Title
81383
    1CHL1    C3    1   2.079   0.901  10.257  0.0835  0.7445 -0.0587
    1CHL1    H3    2   2.037   0.805  10.218  1.7163  0.1401 -0.3849
    1CHL1    O3    3   2.054   0.908  10.393  0.6256 -0.1958  0.2013
    1CHL1   H3'    4   1.964   0.880  10.408  0.3653  1.1495  1.2554
    1CHL1    C4    5   2.227   0.906  10.230  0.1821  0.0036 -0.3922
    1CHL1   H4A    6   2.278   0.999  10.262  1.5520 -1.4012  1.8109
    1CHL1   H4B    7   2.269   0.818  10.285 -1.9388 -0.4573  0.5719
    1CHL1    C5    8   2.254   0.907  10.083 -0.2239 -1.5088  0.0572
    1CHL1    C6    9   2.334   0.806  10.032  0.7918 -1.1639 -0.1833
    1CHL1    H6   10   2.374   0.734  10.105 -0.4607 -1.0326  0.6574
    1CHL1    C7   11   2.376   0.792   9.888  0.3064 -0.0929 -0.5374
    1CHL1   H7A   12   2.487   0.785   9.879  0.1489 -1.8475 -1.6699
    1CHL1   H7B   13   2.328   0.701   9.847 -1.2678 -0.3171  1.6142
    1CHL1    C8   14   2.332   0.916   9.811  0.4755 -0.3132  0.3303
    1CHL1    H8   15   2.403   0.999   9.834 -0.0138  0.4884 -0.9616
    1CHL1   C14   16   2.341   0.881   9.657  0.1988 -0.0692 -0.6345
    1CHL1   H14   17   2.269   0.797   9.653 -1.5835  1.1051  2.8179
    1CHL1   C15   18   2.475   0.834   9.600 -0.0558 -0.3182  0.1469
    1CHL1  H15A   19   2.560   0.901   9.627  0.9802 -1.2122 -0.7707
    1CHL1  H15B   20   2.497   0.733   9.641  1.2792 -0.0998  0.0301
    1CHL1   C16   21   2.463   0.852   9.450  0.1434  0.0418 -0.2527
    1CHL1  H16A   22   2.548   0.918   9.424  0.2337 -0.3601 -0.9837
    1CHL1  H16B   23   2.474   0.758   9.392  3.7913  0.6813 -0.8362
    1CHL1   C17   24   2.327   0.926   9.428 -0.5702  0.9871  0.4354
    1CHL1   H17   25   2.255   0.844   9.409  1.2144 -0.6377  0.4298
    1CHL1   C13   26   2.292   0.993   9.563 -0.1124  0.0814 -0.4832
    1CHL1   C18   27   2.385   1.126   9.577 -0.1042 -0.0213 -0.3881
    1CHL1  H18A   28   2.488   1.096   9.551  0.7646  1.8222  0.7264
    1CHL1  H18B   29   2.362   1.204   9.501 -0.7040 -0.0608 -0.2599
    1CHL1  H18C   30   2.376   1.167   9.680 -1.5457  0.7723 -0.7993
    1CHL1   C12   31   2.144   1.030   9.594 -0.3437  0.3275 -0.1079
    1CHL1  H12A   32   2.091   1.110   9.538 -0.6067  2.0500  2.4468
    1CHL1  H12B   33   2.092   0.932   9.585 -1.4094  0.8720 -0.1227
    1CHL1   C11   34   2.130   1.072   9.738  0.4535  0.9560  0.0340
    1CHL1  H11A   35   2.172   1.174   9.753  0.3232  0.8626  1.1032
    1CHL1  H11B   36   2.026   1.071   9.776  0.3082 -3.2066 -0.0610
    1CHL1    C9   37   2.183   0.967   9.840 -1.0430 -0.2359 -0.0726
    1CHL1    H9   38   2.119   0.877   9.828  1.3980 -1.8106 -2.3547
    1CHL1   C10   39   2.181   1.010   9.991 -0.1584 -0.4588  0.1938
    1CHL1   C19   40   2.243   1.152  10.019 -0.4667 -0.4535  0.3410
    1CHL1  H19A   41   2.347   1.155   9.978 -0.1340 -2.5853  0.9118
    1CHL1  H19B   42   2.188   1.225   9.956  0.5139  0.4305  0.4728
    1CHL1  H19C   43   2.242   1.178  10.127 -2.8327  1.6225 -0.0778
    1CHL1    C1   44   2.023   1.015  10.040 -0.4278 -0.2828 -0.6129
    1CHL1   H1A   45   1.975   1.102   9.989  0.2283 -0.2940 -1.2733
    1CHL1   H1B   46   1.974   0.924   9.999 -2.5456 -0.6299  2.3892
    1CHL1    C2   47   2.009   1.018  10.194  0.1311  0.3878 -0.5909
    1CHL1   H2A   48   1.901   1.025  10.219 -0.3048 -1.1151 -1.8181
    1CHL1   H2B   49   2.059   1.110  10.230  0.0694 -0.2644  1.2544
    1CHL1   C20   50   2.332   1.015   9.296 -0.4335  1.2876  0.0916
    1CHL1   H20   51   2.418   1.084   9.304  1.4587 -0.6792 -2.0330
    1CHL1   C21   52   2.204   1.097   9.277 -0.6047  0.2504  0.4359
    1CHL1  H21A   53   2.200   1.143   9.176  2.2661 -0.3625 -0.0525
    1CHL1  H21B   54   2.195   1.172   9.358  0.6224  1.4726 -0.4984
    1CHL1  H21C   55   2.110   1.038   9.285  0.2492 -1.0196  1.5203
    1CHL1   C22   56   2.340   0.916   9.169 -0.1040  1.0045  0.1856
    1CHL1  H22A   57   2.367   0.984   9.085  1.3234  1.0439  0.6576
    1CHL1  H22B   58   2.425   0.845   9.178 -0.8548 -0.0359 -0.7434
    1CHL1   C23   59   2.203   0.851   9.123  0.2922  0.1299  0.0974
    1CHL1  H23A   60   2.162   0.799   9.213 -1.0989  1.5224  0.3288
    1CHL1  H23B   61   2.130   0.934   9.109  0.1617  0.1968  1.0978
    1CHL1   C24   62   2.215   0.755   8.998  0.0150 -0.1739 -0.0111
    1CHL1  H24A   63   2.277   0.672   9.036  0.1936  0.1306  0.3613
    1CHL1  H24B   64   2.126   0.696   8.969  0.3509  0.0862 -1.7005
    1CHL1   C25   65   2.269   0.815   8.868  0.2118  0.2587 -0.5230
    1CHL1   H25   66   2.367   0.865   8.887 -0.2451  1.4635 -1.2040
    1CHL1   C26   67   2.283   0.702   8.763  0.3170 -0.5231  0.9088
    1CHL1  H26A   68   2.182   0.676   8.726  0.4626  0.3799 -0.1850
    1CHL1  H26B   69   2.328   0.744   8.671  0.6641  0.0079  1.3161
    1CHL1  H26C   70   2.326   0.605   8.795  0.0134 -1.0221 -0.1407
    1CHL1   C27   71   2.183   0.931   8.810  0.4181  0.7774  0.4699
    1CHL1  H27A   72   2.186   1.017   8.879  0.7488 -0.1864  1.7000
    1CHL1  H27B   73   2.232   0.955   8.714  0.4389  0.4928  0.4066
    1CHL1  H27C   74   2.080   0.892   8.793 -0.0128  0.4893  3.2832
    2CHL1    C3   75   2.582   5.614  10.191  0.0651 -0.3149  0.5094
    2CHL1    H3   76   2.668   5.684  10.185  1.5131 -1.7569  2.7119
    2CHL1    O3   77   2.529   5.610  10.320  0.5109 -0.0026 -0.2524
    2CHL1   H3'   78   2.448   5.559  10.307  0.0921  0.2082  1.3004
    2CHL1    C4   79   2.470   5.674  10.094 -0.4374  0.2236 -0.0526
    2CHL1   H4A   80   2.382   5.609  10.112 -1.5911  1.1894 -1.9601
    2CHL1   H4B   81   2.455   5.776  10.136  2.7242  1.2967 -1.2054
    2CHL1    C5   82   2.505   5.690   9.946 -0.9208  0.4314 -0.0701
    2CHL1    C6   83   2.506   5.809   9.875  0.1402  0.1827 -0.2443
    2CHL1    H6   84   2.472   5.903   9.921  1.2986 -0.4552  2.0583
    2CHL1    C7   85   2.548   5.827   9.731 -0.6153  0.3856 -0.1903
    2CHL1   H7A   86   2.481   5.893   9.672 -0.4720  1.5093  0.8742
    2CHL1   H7B   87   2.651   5.867   9.734 -0.5724  0.2073  1.3542
    2CHL1    C8   88   2.564   5.688   9.660  0.1369 -0.0030 -0.4231
    2CHL1    H8   89   2.464   5.652   9.625 -0.2657  2.3808 -1.9741
    2CHL1   C14   90   2.660   5.704   9.543  0.8765  0.0718  0.7422
    2CHL1   H14   91   2.761   5.723   9.585  1.6051  1.0917 -1.3029
    2CHL1   C15   92   2.647   5.828   9.441  0.2910  0.2658 -0.1781
    2CHL1  H15A   93   2.543   5.862   9.423 -0.2279 -0.4589  1.2940
    2CHL1  H15B   94   2.696   5.918   9.485  1.0234  0.4801 -1.3695
    2CHL1   C16   95   2.711   5.780   9.307  0.7628 -0.0920 -0.5275
    2CHL1  H16A   96   2.630   5.749   9.237  0.2405 -1.8842  0.7849
    2CHL1  H16B   97   2.776   5.857   9.260  2.1473  2.1238  4.3794
    2CHL1   C17   98   2.774   5.639   9.340  0.5682 -0.2151 -0.1013
    2CHL1   H17   99   2.876   5.653   9.380  1.3053  0.6976 -2.1397
    2CHL1   C13  100   2.685   5.579   9.454  0.2013 -0.1897 -0.1869
    2CHL1   C18  101   2.550   5.530   9.399  0.4378  0.0389  0.5261
    2CHL1  H18A  102   2.479   5.508   9.481  1.3529  2.3485  2.0549
    2CHL1  H18B  103   2.503   5.601   9.327 -0.9225  1.4195  2.6512
    2CHL1  H18C  104   2.561   5.432   9.348  1.6670  0.3126  0.2373
    2CHL1   C12  105   2.745   5.474   9.549 -0.5257  0.8269  0.1748
    2CHL1  H12A  106   2.761   5.381   9.491  4.7201  1.2789  0.4595
    2CHL1  H12B  107   2.850   5.500   9.573  0.6069 -1.7775 -1.5265
    2CHL1   C11  108   2.654   5.448   9.668  0.2766 -0.6163 -0.0164
    2CHL1  H11A  109   2.565   5.386   9.647  0.0261 -0.2973  0.1002
    2CHL1  H11B  110   2.722   5.383   9.727  0.7570  2.1720  2.7958
    2CHL1    C9  111   2.625   5.575   9.746 -0.6255  0.5311  0.5218
    2CHL1    H9  112   2.725   5.617   9.773 -0.0097 -0.2727 -0.4542
    2CHL1   C10  113   2.560   5.548   9.884  0.6821 -0.9096 -0.0314
    2CHL1   C19  114   2.436   5.447   9.875 -0.6535 -0.0188 -0.1765
    2CHL1  H19A  115   2.380   5.429   9.970  0.6118 -0.9140  0.4301
    2CHL1  H19B  116   2.370   5.482   9.794  0.3433 -1.4938 -1.6945
    2CHL1  H19C  117   2.474   5.348   9.841 -2.7322 -0.9520  0.0110
    2CHL1    C1  118   2.666   5.496   9.983  0.0301 -0.0777  0.4326
    2CHL1   H1A  119   2.720   5.409   9.941 -0.8688 -0.3301 -0.2319
    2CHL1   H1B  120   2.753   5.565   9.986  0.2826 -0.3399 -0.5058
    2CHL1    C2  121   2.620   5.480  10.128  0.2276 -0.2016 -0.3273
    2CHL1   H2A  122   2.711   5.442  10.179  3.0481  4.2034 -1.4954
    2CHL1   H2B  123   2.539   5.408  10.152 -1.5238  1.9415  0.5000
    2CHL1   C20  124   2.790   5.553   9.211 -0.1272  0.3754  0.0984
    2CHL1   H20  125   2.688   5.523   9.180 -1.3249  0.5879  3.4890
    2CHL1   C21  126   2.861   5.415   9.235  0.0380  0.4670 -0.5807
    2CHL1  H21A  127   2.916   5.370   9.150  2.0652 -1.5921  1.6588
    2CHL1  H21B  128   2.792   5.341   9.280  0.5146  0.8870  0.9019
    2CHL1  H21C  129   2.935   5.436   9.316 -2.1099  2.6555  0.9833
    2CHL1   C22  130   2.857   5.632   9.094  0.3901  0.1022 -0.3101
    2CHL1  H22A  131   2.788   5.715   9.070  0.0575  0.2199  0.9376
    2CHL1  H22B  132   2.956   5.671   9.126  0.5755  0.7848 -1.6480
    2CHL1   C23  133   2.894   5.556   8.963  0.3621  0.5894  0.5521
    2CHL1  H23A  134   2.922   5.625   8.881  2.2395 -1.2796 -0.4664
    2CHL1  H23B  135   2.982   5.492   8.983 -1.0967 -1.2562  1.4491
    2CHL1   C24  136   2.775   5.472   8.895 -0.1272 -0.1271 -0.6125
    2CHL1  H24A  137   2.713   5.429   8.977  1.0788  0.4418  0.6321
    2CHL1  H24B  138   2.700   5.523   8.831  0.6742 -0.0649 -1.5130
    2CHL1   C25  139   2.833   5.352   8.809  0.2731 -0.4369 -0.3131
    2CHL1   H25  140   2.903   5.298   8.876 -0.3113  0.3378  0.9571
    2CHL1   C26  141   2.731   5.261   8.753  0.2184 -0.4938  0.0624
    2CHL1  H26A  142   2.666   5.210   8.828  2.2636 -0.6510  1.8108
    2CHL1  H26B  143   2.651   5.318   8.701  0.7566  0.0653 -0.1677
    2CHL1  H26C  144   2.754   5.198   8.664 -1.6322  0.4036 -1.1139
    2CHL1   C27  145   2.910   5.402   8.685 -0.1549 -0.1008  0.4960
    2CHL1  H27A  146   2.987   5.474   8.720  0.0892 -0.4492  0.6863
    2CHL1  H27B  147   2.955   5.334   8.609  1.4270 -0.6076  1.8297
    2CHL1  H27C  148   2.832   5.450   8.622 -0.2546  0.9305  1.3752
    3CHL1    C3  149   4.246   6.507  10.410 -0.5105 -0.8366  0.0023
    3CHL1    H3  150   4.230   6.398  10.416  1.0900 -1.2293 -1.7179
    3CHL1    O3  151   4.269   6.571  10.538  1.2369 -0.7979 -0.0953
    3CHL1   H3'  152   4.195   6.549  10.595  0.8690  2.1397  0.7221
    3CHL1    C4  153   4.370   6.545  10.327  0.0234  0.0234 -0.1132
    3CHL1   H4A  154   4.387   6.655  10.322  2.6600 -0.3081  0.0628
    3CHL1   H4B  155   4.463   6.517  10.380  1.9125  1.4317 -2.4617
    3CHL1    C5  156   4.358   6.491  10.188 -0.0093 -0.5400  0.5001
    3CHL1    C6  157   4.455   6.422  10.134  0.4737 -1.1186 -0.1392
    3CHL1    H6  158   4.545   6.399  10.193 -0.2975 -1.7958  0.7918
    3CHL1    C7  159   4.453   6.376   9.992 -0.4599  0.1683  0.7302
    3CHL1   H7A  160   4.554   6.404   9.955  0.2184 -2.2748  0.5119
    3CHL1   H7B  161   4.437   6.266   9.986  0.8185 -0.0978  1.6818
    3CHL1    C8  162   4.349   6.446   9.907  0.0749  0.5002 -0.2343
    3CHL1    H8  163   4.388   6.544   9.872 -0.9498  0.5035 -1.4333
    3CHL1   C14  164   4.311   6.369   9.779  0.6201  0.8040  0.3194
    3CHL1   H14  165   4.259   6.280   9.820 -0.4207  0.9220 -0.7135
    3CHL1   C15  166   4.431   6.319   9.694  0.3357 -0.6958  0.2206
    3CHL1  H15A  167   4.518   6.387   9.688  0.6510 -1.1983 -1.1506
    3CHL1  H15B  168   4.453   6.227   9.753 -0.9592 -1.3966 -0.3469
    3CHL1   C16  169   4.376   6.285   9.558  0.4724  0.1933 -0.2349
    3CHL1  H16A  170   4.430   6.353   9.489  0.1332  0.3982 -0.2957
    3CHL1  H16B  171   4.384   6.176   9.538 -0.7243  0.0214  0.1551
    3CHL1   C17  172   4.221   6.319   9.567  0.3683 -0.2465  0.7282
    3CHL1   H17  173   4.175   6.224   9.600 -0.4826 -0.1295 -0.0741
    3CHL1   C13  174   4.216   6.428   9.682  0.0276  0.0384  0.3125
    3CHL1   C18  175   4.265   6.566   9.626 -0.6654  0.1743 -0.3171
    3CHL1  H18A  176   4.188   6.614   9.562 -1.9857 -1.5997 -0.1665
    3CHL1  H18B  177   4.284   6.641   9.706  1.1016  1.6347 -2.0386
    3CHL1  H18C  178   4.360   6.560   9.570  0.1540  1.3303  0.8947
    3CHL1   C12  179   4.078   6.444   9.753  0.0053  0.3938 -0.1435
    3CHL1  H12A  180   4.005   6.498   9.688  2.1936  0.0653 -3.0793
    3CHL1  H12B  181   4.042   6.341   9.775 -1.2652  0.5639 -1.2626
    3CHL1   C11  182   4.100   6.519   9.889  0.0420  0.2959 -0.3656
    3CHL1  H11A  183   4.126   6.622   9.855 -2.3503  0.5906 -1.5260
    3CHL1  H11B  184   4.007   6.533   9.949  0.4561 -0.4161  0.4627
    3CHL1    C9  185   4.217   6.457   9.983 -0.0230 -0.6578 -0.2380
    3CHL1    H9  186   4.176   6.355  10.001  2.2409 -2.0045 -2.1568
    3CHL1   C10  187   4.227   6.531  10.118  0.4035  0.4642  0.3601
    3CHL1   C19  188   4.232   6.682  10.095 -0.0716 -0.8930  0.3079
    3CHL1  H19A  189   4.235   6.736  10.192 -1.2440 -1.2171  0.5316
    3CHL1  H19B  190   4.326   6.715  10.045 -1.8217  1.6026 -1.5551
    3CHL1  H19C  191   4.145   6.718  10.037 -1.0842 -1.9094  1.1482
    3CHL1    C1  192   4.104   6.494  10.210 -0.3827  0.1577  0.7189
    3CHL1   H1A  193   4.009   6.532  10.168 -0.8089 -1.1950  0.4269
    3CHL1   H1B  194   4.105   6.385  10.231 -0.8242  0.0209  0.0561
    3CHL1    C2  195   4.113   6.560  10.346 -0.1336 -0.2047 -0.2050
    3CHL1   H2A  196   4.026   6.532  10.409  0.3215 -0.0931  0.4850
    3CHL1   H2B  197   4.105   6.671  10.342 -0.8847 -0.0948  2.4556
    3CHL1   C20  198   4.171   6.344   9.426 -0.0392  0.2706  0.1244
    3CHL1   H20  199   4.231   6.428   9.385  0.0554 -0.4966 -1.3456
    3CHL1   C21  200   4.026   6.387   9.418 -0.4009  0.6487  0.2188
    3CHL1  H21A  201   3.994   6.401   9.312 -1.2390 -0.9597  0.2294
    3CHL1  H21B  202   4.024   6.477   9.483  1.0508  0.5459  0.4420
    3CHL1  H21C  203   3.965   6.300   9.450  0.0512 -1.2555 -3.4906
    3CHL1   C22  204   4.191   6.220   9.333  0.7262 -0.2269 -0.2751
    3CHL1  H22A  205   4.300   6.200   9.331  0.9196  0.8279 -1.2244
    3CHL1  H22B  206   4.146   6.127   9.375  0.5611 -0.0405 -0.0325
    3CHL1   C23  207   4.154   6.227   9.185  0.2621  0.8429 -0.2014
    3CHL1  H23A  208   4.044   6.244   9.179  0.1097  0.1643  0.5965
    3CHL1  H23B  209   4.194   6.316   9.132 -1.8278 -0.7556 -5.0040
    3CHL1   C24  210   4.196   6.105   9.104  0.1323  1.0937 -0.5908
    3CHL1  H24A  211   4.168   6.128   8.999  2.3025  1.4837 -1.1338
    3CHL1  H24B  212   4.307   6.098   9.098  0.0570 -0.9891 -0.3641
    3CHL1   C25  213   4.122   5.970   9.140  0.6690 -0.5328  0.4338
    3CHL1   H25  214   4.160   5.948   9.242  0.3548 -0.5179  0.5559
    3CHL1   C26  215   3.969   5.993   9.143 -0.1307  0.3342 -0.4067
    3CHL1  H26A  216   3.961   6.048   9.239 -0.0782 -1.5023  0.7089
    3CHL1  H26B  217   3.939   6.044   9.049  3.0607  1.4523 -0.9445
    3CHL1  H26C  218   3.911   5.899   9.133  1.1606 -0.4191 -1.2048
    3CHL1   C27  219   4.170   5.871   9.039  0.2404  0.2751 -0.5449
    3CHL1  H27A  220   4.119   5.884   8.942  0.4041 -0.1592 -0.6936
    3CHL1  H27B  221   4.281   5.866   9.043  0.2303  0.4784  0.1244
    3CHL1  H27C  222   4.148   5.769   9.077  1.5744  0.6379  1.3877
    4CHL1    C3  223   3.160   0.933  10.449 -0.5549  0.4183  0.4775
    4CHL1    H3  224   3.234   0.862  10.493 -1.4149  0.8531  2.7662
    4CHL1    O3  225   3.112   1.008  10.561  0.3052 -0.3646 -0.5465
    4CHL1   H3'  226   3.185   1.064  10.587 -0.6298 -0.4022  2.6245
    4CHL1    C4  227   3.211   1.034  10.349  0.0477 -0.4307  0.7426
    4CHL1   H4A  228   3.135   1.111  10.324  0.6417 -0.8671 -2.9797
    4CHL1   H4B  229   3.304   1.084  10.382  1.2178  0.1185 -2.9038
    4CHL1    C5  230   3.250   0.968  10.217  0.5366  1.1118  0.6109
    4CHL1    C6  231   3.365   0.982  10.161  0.2477  0.3993  0.4513
    4CHL1    H6  232   3.437   1.044  10.217  0.2900  1.4852 -0.7690
    4CHL1    C7  233   3.393   0.933  10.022  0.1028  0.1989  0.0642
    4CHL1   H7A  234   3.449   1.011   9.967  1.0407 -1.5705 -1.6385
    4CHL1   H7B  235   3.452   0.839  10.026 -0.0609  0.1134  3.0379
    4CHL1    C8  236   3.264   0.913   9.935  0.0472 -0.3795 -0.0244
    4CHL1    H8  237   3.225   1.010   9.897  1.2410 -0.6564 -2.1216
    4CHL1   C14  238   3.293   0.849   9.797  0.5994  0.1723 -0.2874
    4CHL1   H14  239   3.339   0.749   9.813 -2.0757 -1.0831  0.1253
    4CHL1   C15  240   3.392   0.930   9.708  0.3466  0.3674  0.3676
    4CHL1  H15A  241   3.351   1.033   9.704  1.0314  0.6804  1.0707
    4CHL1  H15B  242   3.499   0.918   9.736  0.2365 -1.0240  0.2690
    4CHL1   C16  243   3.362   0.858   9.571 -0.5839  0.1502 -0.2324
    4CHL1  H16A  244   3.341   0.933   9.491 -1.9526 -0.6403 -0.6527
    4CHL1  H16B  245   3.447   0.794   9.539 -1.0643 -0.7708  0.2692
    4CHL1   C17  246   3.244   0.759   9.584  0.6501 -0.1629 -0.9592
    4CHL1   H17  247   3.282   0.661   9.623 -0.3520 -0.0541  0.3425
    4CHL1   C13  248   3.168   0.816   9.703 -0.6035 -0.1376  0.7369
    4CHL1   C18  249   3.090   0.942   9.673 -0.6427 -0.3339  0.4806
    4CHL1  H18A  250   3.005   0.911   9.608  0.0243 -0.6380 -0.2681
    4CHL1  H18B  251   3.045   0.986   9.764  1.5528  3.1852  0.0812
    4CHL1  H18C  252   3.155   1.016   9.621  2.6854 -3.0690  0.3884
    4CHL1   C12  253   3.085   0.714   9.784  0.1730  0.2745 -0.5626
    4CHL1  H12A  254   3.009   0.675   9.713  1.3171 -1.4941 -0.9084
    4CHL1  H12B  255   3.154   0.630   9.808  0.7607  0.7643 -0.5199
    4CHL1   C11  256   3.042   0.781   9.923  0.0867 -0.6812  0.1441
    4CHL1  H11A  257   2.963   0.858   9.912  0.6907  0.3854  2.4942
    4CHL1  H11B  258   3.006   0.703   9.993  3.3535 -0.2003  2.6403
    4CHL1    C9  259   3.162   0.835  10.015 -0.3171 -0.3792 -0.4159
    4CHL1    H9  260   3.219   0.742  10.033  0.6443  0.0717 -1.0473
    4CHL1   C10  261   3.130   0.898  10.152  0.5414 -0.0903 -0.5185
    4CHL1   C19  262   3.003   0.989  10.125 -0.3577  0.4996 -0.0784
    4CHL1  H19A  263   2.979   1.051  10.214  1.7092  0.1267  0.7907
    4CHL1  H19B  264   3.023   1.061  10.043  2.9407 -2.2282 -1.9176
    4CHL1  H19C  265   2.911   0.930  10.106  0.1194 -0.5142  0.7081
    4CHL1    C1  266   3.085   0.787  10.257  0.7051 -0.0276  0.5304
    4CHL1   H1A  267   3.003   0.727  10.211  1.5414 -0.1978 -0.7715
    4CHL1   H1B  268   3.171   0.716  10.257  2.0534  1.5138 -1.3948
    4CHL1    C2  269   3.041   0.849  10.387 -0.4621  0.6772  0.7397
    4CHL1   H2A  270   3.016   0.768  10.459  0.7005  0.3635  0.8159
    4CHL1   H2B  271   2.943   0.902  10.381 -1.5662 -1.2499  0.7140
    4CHL1   C20  272   3.176   0.728   9.455  0.7377 -0.8432 -0.4516
    4CHL1   H20  273   3.077   0.776   9.441  0.1837 -1.7511  0.2511
    4CHL1   C21  274   3.162   0.579   9.446  0.4558  0.0971  0.5116
    4CHL1  H21A  275   3.092   0.547   9.366 -0.1530 -0.7036  1.3373
    4CHL1  H21B  276   3.114   0.539   9.538 -2.5575 -2.2854 -1.8749
    4CHL1  H21C  277   3.255   0.520   9.435 -1.2396 -2.3734 -1.6543
    4CHL1   C22  278   3.237   0.784   9.331  0.0826  0.3512  0.6557
    4CHL1  H22A  279   3.226   0.894   9.338 -1.6344  0.1816  0.8839
    4CHL1  H22B  280   3.348   0.770   9.332  0.5748  3.3754 -0.8970
    4CHL1   C23  281   3.187   0.741   9.194 -0.1673 -0.2919 -0.4879
    4CHL1  H23A  282   3.224   0.637   9.180 -1.5930 -1.1468  1.5130
    4CHL1  H23B  283   3.078   0.718   9.193 -0.2933  0.3004 -0.7320
    4CHL1   C24  284   3.211   0.854   9.088  0.3336  0.3173  0.0682
    4CHL1  H24A  285   3.161   0.822   8.994 -1.1254  0.6676  0.6969
    4CHL1  H24B  286   3.146   0.938   9.120 -1.3610 -0.6777 -0.6235
    4CHL1   C25  287   3.356   0.892   9.060  0.0113 -0.0323  0.2242
    4CHL1   H25  288   3.386   0.947   9.152  1.1042  0.0401 -0.1541
    4CHL1   C26  289   3.443   0.774   9.029  0.8502 -0.4369 -0.7472
    4CHL1  H26A  290   3.553   0.785   9.040  0.9428 -1.1197 -0.9138
    4CHL1  H26B  291   3.425   0.687   9.096  1.5099  0.4653  0.6467
    4CHL1  H26C  292   3.422   0.740   8.925 -0.6281 -0.3135 -0.5137
    4CHL1   C27  293   3.357   0.992   8.947  0.3151  0.1159 -0.5747
    4CHL1  H27A  294   3.269   1.058   8.964  0.2453  0.2324 -1.3728
    4CHL1  H27B  295   3.451   1.052   8.945 -0.3074  1.1258 -0.4007
    4CHL1  H27C  296   3.344   0.951   8.845  1.1216  1.5496 -1.2961
    5CHL1    C3  297   3.285   5.611  10.334 -0.7524 -0.4339  0.4655
    5CHL1    H3  298   3.390   5.647  10.327 -0.7957  0.2109  2.4750
    5CHL1    O3  299   3.256   5.558  10.462  0.4516  0.2454  0.3588
    5CHL1   H3'  300   3.161   5.543  10.454  0.6155 -0.0207 -1.6513
    5CHL1    C4  301   3.182   5.722  10.307  0.3111  0.4048  0.0309
    5CHL1   H4A  302   3.081   5.677  10.315  1.5293 -2.5567  0.0484
    5CHL1   H4B  303   3.197   5.788  10.395  0.9567  0.4075 -0.0735
    5CHL1    C5  304   3.199   5.785  10.169  0.0874  1.3015  0.1856
    5CHL1    C6  305   3.221   5.912  10.150 -0.3991  0.2403  0.3000
    5CHL1    H6  306   3.227   5.985  10.232 -0.2276 -0.9056  1.3426
    5CHL1    C7  307   3.219   5.979  10.015 -0.3956 -0.5368  1.1084
    5CHL1   H7A  308   3.166   6.076  10.021 -0.8359 -0.7339  0.4823
    5CHL1   H7B  309   3.324   6.005   9.990 -0.1715 -0.8094  1.7360
    5CHL1    C8  310   3.163   5.891   9.899  0.0269  0.1236  0.2054
    5CHL1    H8  311   3.054   5.884   9.916  0.0865  1.2343  1.1736
    5CHL1   C14  312   3.205   5.956   9.766 -0.0749  0.3168  0.0669
    5CHL1   H14  313   3.313   5.933   9.772 -0.1107  0.2344  0.4687
    5CHL1   C15  314   3.196   6.105   9.739 -0.4913  0.7310 -0.0096
    5CHL1  H15A  315   3.093   6.136   9.768  0.0191  2.0341  0.4752
    5CHL1  H15B  316   3.275   6.159   9.795 -0.2948  0.3473  0.0800
    5CHL1   C16  317   3.223   6.108   9.590 -0.2747  0.2577 -0.2194
    5CHL1  H16A  318   3.147   6.159   9.528  1.1832 -0.1377 -2.4393
    5CHL1  H16B  319   3.315   6.165   9.564  0.8823 -2.0538 -1.5453
    5CHL1   C17  320   3.222   5.966   9.532  0.4028  0.6271 -0.0652
    5CHL1   H17  321   3.328   5.935   9.519 -0.2475 -1.2401 -1.3649
    5CHL1   C13  322   3.154   5.878   9.638 -0.0494 -0.4544 -0.0860
    5CHL1   C18  323   2.993   5.890   9.646  0.0517 -0.5497  0.1839
    5CHL1  H18A  324   2.968   5.996   9.623  1.3763 -0.5623 -1.5766
    5CHL1  H18B  325   2.948   5.823   9.569 -1.5668 -0.2484  0.8375
    5CHL1  H18C  326   2.948   5.863   9.743 -1.3414 -1.1505 -0.5970
    5CHL1   C12  327   3.221   5.735   9.649  0.7919  0.0280 -0.2556
    5CHL1  H12A  328   3.194   5.673   9.562 -2.7059  1.5379 -0.4300
    5CHL1  H12B  329   3.331   5.744   9.641  0.7967  1.2441  0.7509
    5CHL1   C11  330   3.172   5.668   9.783  0.7599  0.5083 -0.7799
    5CHL1  H11A  331   3.061   5.670   9.779  0.7696  2.4741 -1.5102
    5CHL1  H11B  332   3.201   5.561   9.779 -0.5161  0.0790  0.6165
    5CHL1    C9  333   3.213   5.747   9.912  0.4056  0.4369 -0.6082
    5CHL1    H9  334   3.324   5.754   9.906  0.4417  3.1527  1.2678
    5CHL1   C10  335   3.185   5.680  10.051 -0.4631  0.0077 -0.6464
    5CHL1   C19  336   3.041   5.619  10.042 -0.4384 -0.2961 -0.4403
    5CHL1  H19A  337   3.002   5.572  10.134 -1.4489  1.1254 -0.1231
    5CHL1  H19B  338   2.968   5.698  10.016 -0.6061 -0.0752  0.6843
    5CHL1  H19C  339   3.048   5.554   9.952  1.4256  2.3097 -2.3505
    5CHL1    C1  340   3.275   5.559  10.090 -0.2415 -0.5560  0.2665
    5CHL1   H1A  341   3.251   5.477  10.020  2.5433 -1.5702  0.3754
    5CHL1   H1B  342   3.380   5.579  10.060 -0.3127 -0.6737 -0.0550
    5CHL1    C2  343   3.260   5.505  10.231  0.1896  0.1703  0.6034
    5CHL1   H2A  344   3.324   5.414  10.242 -0.2051 -0.3762 -1.1364
    5CHL1   H2B  345   3.153   5.479  10.249 -0.2001 -0.5814 -2.1817
    5CHL1   C20  346   3.156   5.966   9.392 -0.2884  0.3197 -0.1086
    5CHL1   H20  347   3.053   6.006   9.400  0.2696  1.4926  2.0329
    5CHL1   C21  348   3.132   5.823   9.335 -0.7850  0.3098 -0.2430
    5CHL1  H21A  349   3.228   5.767   9.331 -0.1156  1.4147 -0.0599
    5CHL1  H21B  350   3.106   5.828   9.228  2.5772  0.1917 -1.1782
    5CHL1  H21C  351   3.060   5.762   9.395  1.1627 -0.2177  1.7220
    5CHL1   C22  352   3.222   6.061   9.298 -0.2476 -0.3647  0.7413
    5CHL1  H22A  353   3.264   6.156   9.337 -1.1264  0.8896 -1.2285
    5CHL1  H22B  354   3.304   6.005   9.247 -2.6067 -0.2433 -3.7033
    5CHL1   C23  355   3.133   6.112   9.183  0.4370 -0.0224  0.2716
    5CHL1  H23A  356   3.081   6.032   9.126  1.5454  1.5615 -3.2436
    5CHL1  H23B  357   3.063   6.178   9.239  1.2161  0.3615  0.8168
    5CHL1   C24  358   3.215   6.191   9.083 -0.1202  0.6021  0.6779
    5CHL1  H24A  359   3.275   6.268   9.137  0.5745  0.0149  0.7476
    5CHL1  H24B  360   3.288   6.119   9.041 -1.3449 -0.4642  0.3021
    5CHL1   C25  361   3.126   6.263   8.982 -0.6990  0.3986 -0.3187
    5CHL1   H25  362   3.046   6.325   9.029 -0.4286  0.3597  0.1952
    5CHL1   C26  363   3.217   6.352   8.888 -0.4000  0.1530 -0.5275
    5CHL1  H26A  364   3.154   6.421   8.827  0.0028  1.1450  0.1412
    5CHL1  H26B  365   3.284   6.413   8.953 -0.0190  1.3989 -2.0272
    5CHL1  H26C  366   3.277   6.291   8.817  2.4982  3.5478 -1.3121
    5CHL1   C27  367   3.052   6.155   8.899  0.8510  0.3055 -0.3139
    5CHL1  H27A  368   3.003   6.202   8.811  2.1586 -0.8003 -1.6889
    5CHL1  H27B  369   3.122   6.078   8.861  0.5707 -0.5672  0.8864
    5CHL1  H27C  370   2.964   6.105   8.945 -1.1194  2.3225 -1.6222
    6CHL1    C3  371   1.964   3.006  10.462 -0.4861 -0.7485 -0.4269
    6CHL1    H3  372   1.857   3.034  10.460 -0.7950 -1.8547  0.1195
    6CHL1    O3  373   2.013   3.023  10.593 -0.5255  0.4489 -0.3394
    6CHL1   H3'  374   2.040   3.114  10.586 -0.2596  0.5295  1.3878
    6CHL1    C4  375   1.972   2.860  10.416  0.5872  0.4280  0.3300
    6CHL1   H4A  376   2.071   2.814  10.435 -0.1628 -2.1515 -1.5890
    6CHL1   H4B  377   1.912   2.792  10.481  2.4235 -2.1148 -0.4853
    6CHL1    C5  378   1.928   2.845  10.269  0.5197 -0.4922 -0.4589
    6CHL1    C6  379   1.822   2.768  10.232 -0.2308  0.2477 -0.4291
    6CHL1    H6  380   1.757   2.710  10.299  0.0343 -1.4610 -1.5777
    6CHL1    C7  381   1.781   2.759  10.087 -0.6791 -0.5886 -0.3122
    6CHL1   H7A  382   1.768   2.650  10.069  2.2372 -1.2667  1.0598
    6CHL1   H7B  383   1.686   2.812  10.065 -2.6807 -2.6258  2.6422
    6CHL1    C8  384   1.885   2.804   9.993  0.1248  0.4290 -0.1662
    6CHL1    H8  385   1.962   2.724   9.990  0.4041  0.5803  1.8170
    6CHL1   C14  386   1.827   2.811   9.853  0.1725 -0.8602  0.2322
    6CHL1   H14  387   1.745   2.887   9.853  1.4915  0.6337  0.4901
    6CHL1   C15  388   1.770   2.684   9.791 -0.8292 -0.4726  0.0323
    6CHL1  H15A  389   1.845   2.602   9.792  0.2188  0.4611  1.8798
    6CHL1  H15B  390   1.670   2.646   9.824 -1.0773 -1.1177 -1.3782
    6CHL1   C16  391   1.755   2.716   9.648 -0.0679 -1.2923  0.7748
    6CHL1  H16A  392   1.794   2.630   9.591 -0.3576 -0.6348 -0.4610
    6CHL1  H16B  393   1.645   2.727   9.637 -0.2772 -2.3738  1.6151
    6CHL1   C17  394   1.834   2.851   9.624  0.3228 -0.4841 -0.3503
    6CHL1   H17  395   1.762   2.935   9.627  0.8666 -0.0301  0.4616
    6CHL1   C13  396   1.918   2.864   9.746 -0.1116  0.4756  0.5563
    6CHL1   C18  397   2.051   2.778   9.732  0.3814  0.3025  0.3609
    6CHL1  H18A  398   2.021   2.687   9.676 -2.4739  1.8410 -0.8292
    6CHL1  H18B  399   2.122   2.823   9.660  2.2421 -1.9931  0.6255
    6CHL1  H18C  400   2.095   2.764   9.833 -0.0342  1.6130  0.7460
    6CHL1   C12  401   1.952   3.008   9.782 -0.0797 -0.3421  0.2349
    6CHL1  H12A  402   2.027   3.048   9.710  2.7833 -1.5402  2.3656
    6CHL1  H12B  403   1.862   3.072   9.779 -0.1757 -0.4983 -0.3647
    6CHL1   C11  404   2.029   3.005   9.917 -0.2841 -0.4152  0.5720
    6CHL1  H11A  405   2.124   2.948   9.906  0.4989  1.0205 -0.3762
    6CHL1  H11B  406   2.048   3.114   9.931 -0.1964 -0.5470  1.5477
    6CHL1    C9  407   1.941   2.934  10.029  0.3965 -0.0602  0.1498
    6CHL1    H9  408   1.857   3.006  10.039  1.2445  0.7635  1.9124
    6CHL1   C10  409   2.009   2.930  10.169 -0.0332  0.1860  0.1003
    6CHL1   C19  410   2.154   2.880  10.171 -0.4250 -0.8881  0.9989
    6CHL1  H19A  411   2.164   2.785  10.115 -0.4169 -0.4588  0.2594
    6CHL1  H19B  412   2.212   2.955  10.113 -3.0902  0.0441 -0.6779
    6CHL1  H19C  413   2.205   2.878  10.269  1.5710  0.3198  0.0427
    6CHL1    C1  414   2.023   3.075  10.224 -0.4197 -0.0764 -0.4966
    6CHL1   H1A  415   2.096   3.141  10.172 -0.0846 -0.3006 -0.3174
    6CHL1   H1B  416   1.923   3.122  10.218 -0.5832 -0.4043 -0.3787
    6CHL1    C2  417   2.061   3.083  10.375 -0.4133 -0.0761  0.2950
    6CHL1   H2A  418   2.052   3.190  10.402  1.6326  0.2418 -0.1500
    6CHL1   H2B  419   2.170   3.071  10.393  0.6058  2.7284 -3.1580
    6CHL1   C20  420   1.885   2.857   9.479 -0.0140  0.7711 -0.3926
    6CHL1   H20  421   1.965   2.780   9.473 -2.0504 -1.5528  0.8035
    6CHL1   C21  422   1.934   3.001   9.447 -0.4227 -0.4134 -0.0076
    6CHL1  H21A  423   1.866   3.068   9.504 -0.9233 -2.9788  2.6358
    6CHL1  H21B  424   1.922   3.032   9.341 -1.4548  1.3587  0.5809
    6CHL1  H21C  425   2.041   3.003   9.478  0.9840  0.5162 -4.3083
    6CHL1   C22  426   1.780   2.818   9.373  0.0960  0.7129  0.5762
    6CHL1  H22A  427   1.721   2.727   9.394 -0.5072  0.7707 -0.7489
    6CHL1  H22B  428   1.702   2.898   9.370 -1.6764 -0.9485 -0.2074
    6CHL1   C23  429   1.827   2.802   9.228  0.4987  0.1177 -0.4644
    6CHL1  H23A  430   1.919   2.858   9.204  1.9572 -0.4724  3.1083
    6CHL1  H23B  431   1.857   2.697   9.208 -0.0677  0.4724 -3.8906
    6CHL1   C24  432   1.714   2.836   9.121 -0.1275 -0.0040  0.3625
    6CHL1  H24A  433   1.616   2.805   9.162 -0.7250 -1.3254 -1.8564
    6CHL1  H24B  434   1.709   2.946   9.106 -3.1849  0.0904  1.3956
    6CHL1   C25  435   1.738   2.756   8.986  0.0073 -0.8680  0.8843
    6CHL1   H25  436   1.834   2.787   8.939 -0.7486  1.4747  0.7752
    6CHL1   C26  437   1.733   2.609   8.996  0.0507 -0.2054 -0.2260
    6CHL1  H26A  438   1.646   2.576   9.057 -0.0776 -1.2293 -0.9289
    6CHL1  H26B  439   1.724   2.563   8.895  1.8713 -1.0454 -0.0491
    6CHL1  H26C  440   1.832   2.575   9.032  0.6579  0.9556 -0.7379
    6CHL1   C27  441   1.628   2.803   8.892 -0.2070 -0.2436  0.2293
    6CHL1  H27A  442   1.528   2.776   8.933  1.0034 -2.2385  2.0935
    6CHL1  H27B  443   1.622   2.913   8.874 -1.7714 -0.6708 -2.3622
    6CHL1  H27C  444   1.637   2.752   8.794 -1.9771  1.3424 -0.8440
    7CHL1    C3  445   4.361   6.232  10.612 -0.3756 -0.2236  0.6550
    7CHL1    H3  446   4.351   6.335  10.572  0.7907 -0.5257 -0.4538
    7CHL1    O3  447   4.379   6.246  10.758 -0.4257 -0.5524  1.1246
    7CHL1   H3'  448   4.475   6.251  10.769 -0.2695 -0.8278  0.0245
    7CHL1    C4  449   4.232   6.155  10.581  0.5395  0.3982 -0.2591
    7CHL1   H4A  450   4.236   6.074  10.656  0.3475  0.5325 -0.1007
    7CHL1   H4B  451   4.146   6.219  10.613  1.6289  1.5923  0.4242
    7CHL1    C5  452   4.216   6.093  10.448  0.5910 -0.1924  0.9827
    7CHL1    C6  453   4.097   6.110  10.382  0.7376 -0.2827  0.0963
    7CHL1    H6  454   4.011   6.153  10.434  1.0493 -1.0057  1.2571
    7CHL1    C7  455   4.071   6.079  10.239  0.2065 -0.3140  0.3639
    7CHL1   H7A  456   3.973   6.025  10.238  0.9264 -1.7311  1.7191
    7CHL1   H7B  457   4.065   6.176  10.185  1.4936  0.2491  1.1977
    7CHL1    C8  458   4.187   6.001  10.179 -0.3389 -0.1808 -0.4194
    7CHL1    H8  459   4.169   5.896  10.208 -0.1460 -0.0798  0.0678
    7CHL1   C14  460   4.176   6.006  10.023  0.1369 -0.3892  0.5228
    7CHL1   H14  461   4.199   6.110   9.993 -1.1356 -0.2663 -0.1176
    7CHL1   C15  462   4.035   5.979   9.964  0.5981 -0.0978 -0.1444
    7CHL1  H15A  463   3.980   5.900  10.020  1.1497 -0.3848  0.0042
    7CHL1  H15B  464   3.968   6.066   9.950 -0.0549 -0.9001 -2.5053
    7CHL1   C16  465   4.068   5.917   9.827 -0.4037  0.3513 -0.8657
    7CHL1  H16A  466   4.015   5.819   9.818 -2.7822  1.5490 -0.8281
    7CHL1  H16B  467   4.018   5.981   9.751 -1.8129  1.0329  0.5706
    7CHL1   C17  468   4.223   5.920   9.806  0.7410 -0.2334  0.5784
    7CHL1   H17  469   4.257   6.016   9.763  1.8628 -0.3084  1.2717
    7CHL1   C13  470   4.273   5.916   9.955  0.9319  1.0284  0.3406
    7CHL1   C18  471   4.253   5.764   9.999 -0.5738 -0.0067 -0.0538
    7CHL1  H18A  472   4.275   5.744  10.106  1.9594 -0.5104 -0.6056
    7CHL1  H18B  473   4.148   5.734   9.975 -0.0959 -2.9292  1.1012
    7CHL1  H18C  474   4.322   5.696   9.943 -0.3295 -0.7848  1.1587
    7CHL1   C12  475   4.421   5.962   9.990 -0.4234 -0.2469  0.3957
    7CHL1  H12A  476   4.491   5.883   9.958  0.6431 -0.2138  2.5005
    7CHL1  H12B  477   4.446   6.058   9.939 -2.4929 -0.0472 -0.3367
    7CHL1   C11  478   4.432   5.966  10.140 -0.0091  0.6299 -0.9411
    7CHL1  H11A  479   4.429   5.861  10.178 -0.7006  0.8810 -0.2525
    7CHL1  H11B  480   4.535   6.001  10.160  0.1998 -0.3390 -0.2354
    7CHL1    C9  481   4.324   6.047  10.220 -0.0086 -0.7943  0.7128
    7CHL1    H9  482   4.330   6.151  10.182 -2.4097 -1.5661 -2.1462
    7CHL1   C10  483   4.345   6.049  10.373 -0.2106 -0.5904  0.2612
    7CHL1   C19  484   4.368   5.906  10.433  0.8999  0.0783  0.5559
    7CHL1  H19A  485   4.377   5.920  10.543  1.3028  1.7175  0.3453
    7CHL1  H19B  486   4.281   5.842  10.406  0.3109  1.2046 -0.2955
    7CHL1  H19C  487   4.464   5.872  10.389 -0.1625 -0.1830 -1.6501
    7CHL1    C1  488   4.469   6.140  10.404  0.4982 -0.6562  0.0367
    7CHL1   H1A  489   4.554   6.076  10.372  1.1253  0.7654 -1.2887
    7CHL1   H1B  490   4.469   6.232  10.341  2.1705 -1.0577 -0.6043
    7CHL1    C2  491   4.488   6.167  10.546 -0.4410 -0.1232 -0.0324
    7CHL1   H2A  492   4.576   6.230  10.573 -1.4118  0.7564  1.2227
    7CHL1   H2B  493   4.488   6.066  10.594 -0.7214  0.2685  0.8169
    7CHL1   C20  494   4.266   5.813   9.705 -0.3266  0.6158  0.8809
    7CHL1   H20  495   4.242   5.714   9.750  1.0326 -0.0411  0.2448
    7CHL1   C21  496   4.418   5.819   9.700  0.2970  0.2787 -0.3249
    7CHL1  H21A  497   4.475   5.785   9.789  0.3564  2.2166  0.4268
    7CHL1  H21B  498   4.450   5.923   9.676  0.1730  0.3705 -0.0906
    7CHL1  H21C  499   4.461   5.752   9.622  1.2756 -0.1354  0.5481
    7CHL1   C22  500   4.203   5.829   9.564  0.7613  0.0978  1.3166
    7CHL1  H22A  501   4.096   5.857   9.573 -0.1135 -2.8601  1.3839
    7CHL1  H22B  502   4.243   5.919   9.512 -1.1498 -0.2057 -0.8780
    7CHL1   C23  503   4.225   5.708   9.472 -0.0614  0.1249 -0.4157
    7CHL1  H23A  504   4.237   5.731   9.364 -2.0757  0.1153 -0.6797
    7CHL1  H23B  505   4.321   5.665   9.508 -1.7733 -1.9583  2.0229
    7CHL1   C24  506   4.120   5.596   9.499 -0.4235  0.3767  0.3317
    7CHL1  H24A  507   4.125   5.578   9.609  1.9606  0.5268  0.3113
    7CHL1  H24B  508   4.018   5.634   9.479 -1.0315 -0.1513  2.1654
    7CHL1   C25  509   4.137   5.467   9.416 -0.6110 -0.0052 -0.1680
    7CHL1   H25  510   4.237   5.421   9.432 -1.4090 -2.2461 -1.2168
    7CHL1   C26  511   4.027   5.375   9.463 -0.1873 -0.4407 -0.4156
    7CHL1  H26A  512   3.940   5.417   9.408  1.3134 -0.4522 -2.9417
    7CHL1  H26B  513   4.039   5.278   9.409  1.6077 -0.8256  0.6065
    7CHL1  H26C  514   4.012   5.371   9.573  2.1278  1.6007  0.0614
    7CHL1   C27  515   4.124   5.486   9.261  0.5413  0.4097  0.5643
    7CHL1  H27A  516   4.025   5.534   9.245 -1.6141 -3.2555  1.5237
    7CHL1  H27B  517   4.207   5.548   9.221  1.0847  0.5651  1.8735
    7CHL1  H27C  518   4.114   5.388   9.209 -1.5764  1.4258 -1.1144
    8CHL1    C3  519   4.900   6.522  10.533  0.5117 -0.5782  0.8460
    8CHL1    H3  520   4.818   6.588  10.496 -0.1941 -2.3371 -0.9827
    8CHL1    O3  521   4.896   6.541  10.673 -0.4149  0.4002 -0.0229
    8CHL1   H3'  522   4.964   6.478  10.697 -1.2543 -0.5619 -0.0973
    8CHL1    C4  523   4.875   6.375  10.508 -0.4859  0.1679  0.6032
    8CHL1   H4A  524   4.955   6.315  10.556  0.2425 -0.8346 -1.7311
    8CHL1   H4B  525   4.775   6.345  10.548 -0.9713  0.6167 -0.2354
    8CHL1    C5  526   4.882   6.347  10.360 -0.2641 -0.6976  0.0602
    8CHL1    C6  527   4.782   6.286  10.299 -0.2611 -0.7721  0.3726
    8CHL1    H6  528   4.697   6.258  10.363 -0.7064  0.3190  0.2892
    8CHL1    C7  529   4.770   6.254  10.158  0.3859  0.2503  0.6159
    8CHL1   H7A  530   4.731   6.151  10.145  0.9298 -0.0800  1.4940
    8CHL1   H7B  531   4.691   6.318  10.113 -1.4142 -1.2679  1.4658
    8CHL1    C8  532   4.901   6.275  10.086  0.0743  0.7129 -0.3799
    8CHL1    H8  533   4.961   6.183  10.101 -1.0406 -0.1033 -0.7689
    8CHL1   C14  534   4.878   6.290   9.929 -0.4395  0.3046  0.1907
    8CHL1   H14  535   4.825   6.387   9.918  0.6912  0.7370 -1.9892
    8CHL1   C15  536   4.783   6.196   9.850  0.3590  0.1343 -0.0653
    8CHL1  H15A  537   4.792   6.090   9.879 -2.6033  0.2216  1.5871
    8CHL1  H15B  538   4.684   6.238   9.881 -0.5252 -0.5828 -1.7911
    8CHL1   C16  539   4.818   6.213   9.699 -0.2827  0.0947 -0.1695
    8CHL1  H16A  540   4.842   6.115   9.654 -0.1166 -0.0631  0.2637
    8CHL1  H16B  541   4.738   6.262   9.639  0.1645  0.7341 -0.2560
    8CHL1   C17  542   4.944   6.307   9.707  0.2300 -0.5674  0.1351
    8CHL1   H17  543   4.902   6.408   9.691  2.4359  0.0781 -2.3366
    8CHL1   C13  544   5.004   6.293   9.849 -0.1574  0.0293  0.8116
    8CHL1   C18  545   5.079   6.157   9.860  0.2236 -0.7451  0.4926
    8CHL1  H18A  546   5.162   6.163   9.786  0.8396  1.9041  1.3125
    8CHL1  H18B  547   5.128   6.145   9.959  5.2589  3.6122 -1.0240
    8CHL1  H18C  548   5.017   6.071   9.827 -0.2651  0.1692 -1.0485
    8CHL1   C12  549   5.105   6.408   9.904 -0.2493  0.0963  0.0092
    8CHL1  H12A  550   5.208   6.390   9.867 -0.4845 -1.1551 -0.0813
    8CHL1  H12B  551   5.057   6.503   9.872 -0.8465 -0.4413 -0.7352
    8CHL1   C11  552   5.124   6.399  10.056 -0.6122  0.1406  0.2377
    8CHL1  H11A  553   5.175   6.306  10.090 -1.4043 -1.0333 -1.6434
    8CHL1  H11B  554   5.176   6.492  10.086 -0.0163 -0.1243  0.0359
    8CHL1    C9  555   4.988   6.390  10.137 -0.5171 -0.3622  0.0462
    8CHL1    H9  556   4.934   6.484  10.113  0.4341 -0.2366 -1.7898
    8CHL1   C10  557   5.012   6.393  10.291  0.1707 -0.1017 -0.2752
    8CHL1   C19  558   5.135   6.307  10.332 -0.0877  0.4282  0.1696
    8CHL1  H19A  559   5.142   6.291  10.442  2.1766 -0.7375 -0.0899
    8CHL1  H19B  560   5.132   6.208  10.281 -0.3203  0.1759  0.6646
    8CHL1  H19C  561   5.225   6.370  10.316 -0.7191  1.5908  0.9871
    8CHL1    C1  562   5.049   6.539  10.341  0.1794 -0.3454  0.2480
    8CHL1   H1A  563   5.149   6.569  10.303 -0.2253  3.0695  1.5082
    8CHL1   H1B  564   4.981   6.612  10.293  2.5823  3.6514  2.3807
    8CHL1    C2  565   5.036   6.564  10.489  0.6071 -0.5572  0.6342
    8CHL1   H2A  566   5.044   6.671  10.517 -1.9386 -0.5328  1.5833
    8CHL1   H2B  567   5.118   6.507  10.538  1.3903 -0.1952 -0.2297
    8CHL1   C20  568   5.035   6.292   9.582 -0.0172 -0.6733  0.0753
    8CHL1   H20  569   5.087   6.194   9.586  1.3106 -0.0137 -0.4607
    8CHL1   C21  570   5.139   6.406   9.567 -0.5492 -0.1540 -0.5054
    8CHL1  H21A  571   5.086   6.503   9.580 -2.8629 -1.4143  0.1354
    8CHL1  H21B  572   5.195   6.396   9.472 -0.9002 -1.8078 -0.5815
    8CHL1  H21C  573   5.223   6.413   9.639  0.2157 -0.6665 -1.3348
    8CHL1   C22  574   4.938   6.293   9.456 -0.1698 -0.2266 -0.8911
    8CHL1  H22A  575   4.878   6.200   9.452  4.1345 -3.3876  0.5124
    8CHL1  H22B  576   4.865   6.376   9.467  0.1932 -0.2359  2.6832
    8CHL1   C23  577   5.014   6.316   9.323  1.3664 -0.6283 -0.9109
    8CHL1  H23A  578   5.033   6.426   9.321 -0.1785 -0.2039  2.2193
    8CHL1  H23B  579   5.116   6.277   9.302  1.4430 -0.7169 -0.3816
    8CHL1   C24  580   4.927   6.275   9.204  0.1072 -0.7125  0.2326
    8CHL1  H24A  581   4.914   6.165   9.199  1.2052 -0.8240 -0.4229
    8CHL1  H24B  582   4.828   6.325   9.214  0.8919  1.0165 -0.2298
    8CHL1   C25  583   4.985   6.327   9.065 -0.5201 -0.4698 -0.0206
    8CHL1   H25  584   5.091   6.293   9.056 -0.2765 -0.6444  2.7326
    8CHL1   C26  585   4.911   6.276   8.940  0.1104 -0.0479 -0.0471
    8CHL1  H26A  586   4.922   6.166   8.950  1.3762 -0.0987 -1.6740
    8CHL1  H26B  587   4.805   6.309   8.949  0.0943  0.0381 -0.5351
    8CHL1  H26C  588   4.944   6.319   8.843  0.2055  3.4039  1.3651
    8CHL1   C27  589   5.005   6.488   9.054 -0.3812 -0.0043  0.2479
    8CHL1  H27A  590   5.076   6.534   9.127  1.0268  1.2913 -1.8338
    8CHL1  H27B  591   5.030   6.503   8.947  1.9739 -0.8215  0.6169
    8CHL1  H27C  592   4.905   6.534   9.068 -0.5393  0.2145 -1.3934
    9CHL1    C3  593   3.684   2.987  10.307 -0.0800  0.1756  0.4234
    9CHL1    H3  594   3.778   2.932  10.286 -0.3231  0.0922 -0.4670
    9CHL1    O3  595   3.702   3.055  10.436  0.4461 -0.0401  0.4177
    9CHL1   H3'  596   3.628   3.115  10.437 -0.0664 -0.6672  0.3379
    9CHL1    C4  597   3.663   3.092  10.194  0.3129  1.1061  0.0533
    9CHL1   H4A  598   3.579   3.157  10.226 -1.3111 -1.0202  0.3753
    9CHL1   H4B  599   3.751   3.156  10.212  1.2332 -0.1314  0.0717
    9CHL1    C5  600   3.625   3.034  10.062  1.1941  0.0594  0.4124
    9CHL1    C6  601   3.705   3.058   9.954 -0.5087  0.2904  0.3027
    9CHL1    H6  602   3.785   3.133   9.953 -1.4076  1.3340 -2.5079
    9CHL1    C7  603   3.671   3.002   9.815 -0.2698 -0.2546  0.0390
    9CHL1   H7A  604   3.673   3.079   9.735  0.7880 -0.2643  0.0469
    9CHL1   H7B  605   3.745   2.928   9.780  0.7819  0.7755  0.0309
    9CHL1    C8  606   3.526   2.943   9.813 -0.1810 -0.8385 -0.7146
    9CHL1    H8  607   3.453   3.026   9.816 -0.1750 -0.8423 -0.2965
    9CHL1   C14  608   3.509   2.854   9.692  0.7337  0.2015 -0.4688
    9CHL1   H14  609   3.572   2.763   9.703 -0.2172 -0.3420  0.7341
    9CHL1   C15  610   3.556   2.914   9.562  0.9381  0.4664  0.3517
    9CHL1  H15A  611   3.520   3.019   9.552 -1.8621 -0.2777  1.5967
    9CHL1  H15B  612   3.666   2.902   9.552  0.8968  1.0739 -1.1382
    9CHL1   C16  613   3.489   2.833   9.452 -0.2651 -0.1527 -0.0523
    9CHL1  H16A  614   3.428   2.909   9.399 -2.2209 -1.0837  0.7337
    9CHL1  H16B  615   3.555   2.793   9.372 -1.1501 -0.2589 -0.7416
    9CHL1   C17  616   3.401   2.731   9.524  0.7883  0.5482 -0.2947
    9CHL1   H17  617   3.459   2.637   9.534  0.6811 -0.0197 -3.6893
    9CHL1   C13  618   3.371   2.793   9.667  0.4062 -0.1600  0.1444
    9CHL1   C18  619   3.270   2.909   9.639 -0.1106 -0.1474 -0.6668
    9CHL1  H18A  620   3.307   2.959   9.547  2.8265  0.0244  0.4789
    9CHL1  H18B  621   3.167   2.873   9.621 -1.2666  2.6779 -0.1233
    9CHL1  H18C  622   3.272   2.989   9.716  1.3769  1.8520 -2.6421
    9CHL1   C12  623   3.316   2.717   9.782  0.5195 -0.2286  0.0787
    9CHL1  H12A  624   3.207   2.696   9.772  0.6916 -0.2771 -2.1047
    9CHL1  H12B  625   3.366   2.617   9.787 -0.7891 -0.9314 -0.3589
    9CHL1   C11  626   3.342   2.789   9.914  0.2510  0.5653 -0.4016
    9CHL1  H11A  627   3.266   2.869   9.930 -0.4113  0.5018 -2.7653
    9CHL1  H11B  628   3.325   2.715   9.994 -1.0342  1.6653  0.3874
    9CHL1    C9  629   3.486   2.854   9.932 -0.0429  0.5096  0.3136
    9CHL1    H9  630   3.552   2.765   9.942 -0.6988  0.0325  0.4621
    9CHL1   C10  631   3.506   2.927  10.065 -0.4440 -0.0715  0.2102
    9CHL1   C19  632   3.376   3.003  10.096  0.1638 -0.0890  0.3607
    9CHL1  H19A  633   3.294   2.938  10.133 -0.5738  1.5599  1.7822
    9CHL1  H19B  634   3.392   3.080  10.176  0.5156 -0.5006  0.6939
    9CHL1  H19C  635   3.343   3.067  10.012 -0.3599 -1.3674 -0.4307
    9CHL1    C1  636   3.526   2.818  10.181  0.1662 -0.4790  1.0908
    9CHL1   H1A  637   3.439   2.750  10.193  1.9746 -2.9319  1.0321
    9CHL1   H1B  638   3.614   2.756  10.156 -0.0529 -0.9660  1.5008
    9CHL1    C2  639   3.564   2.889  10.314  0.2225 -0.2921 -0.5217
    9CHL1   H2A  640   3.585   2.818  10.397 -1.5230 -2.2034 -1.6034
    9CHL1   H2B  641   3.467   2.938  10.337  0.9341  0.6113  0.6712
    9CHL1   C20  642   3.286   2.681   9.439  0.7816 -0.1050 -0.1008
    9CHL1   H20  643   3.208   2.760   9.439  1.9956  1.1772 -1.7792
    9CHL1   C21  644   3.236   2.551   9.499  0.8785 -0.0105 -0.3017
    9CHL1  H21A  645   3.186   2.562   9.598 -1.3090 -0.1465 -1.3301
    9CHL1  H21B  646   3.312   2.471   9.512  0.3171 -0.5790 -0.4865
    9CHL1  H21C  647   3.151   2.512   9.439 -1.6179  1.3676  2.0447
    9CHL1   C22  648   3.321   2.661   9.294 -0.4541  0.1212 -0.4488
    9CHL1  H22A  649   3.361   2.758   9.256 -1.8807 -0.1203 -2.7204
    9CHL1  H22B  650   3.404   2.587   9.286  0.6563  1.4395 -1.7315
    9CHL1   C23  651   3.208   2.621   9.204 -0.2028 -0.7901  0.5519
    9CHL1  H23A  652   3.178   2.515   9.221 -1.1944 -0.7400 -0.7360
    9CHL1  H23B  653   3.116   2.682   9.221 -1.3907 -1.5573 -2.5731
    9CHL1   C24  654   3.243   2.629   9.054 -0.3706 -0.9927 -0.0073
    9CHL1  H24A  655   3.313   2.716   9.052  1.1073 -1.8130  4.5608
    9CHL1  H24B  656   3.307   2.548   9.012  0.9477  0.2730 -0.5515
    9CHL1   C25  657   3.127   2.651   8.956  0.3635 -0.0625 -0.1191
    9CHL1   H25  658   3.057   2.722   9.003 -0.6440 -1.1792  0.1148
    9CHL1   C26  659   3.157   2.729   8.820  0.5193 -0.1199 -0.0632
    9CHL1  H26A  660   3.222   2.815   8.847  0.5462 -1.2595  4.2624
    9CHL1  H26B  661   3.221   2.658   8.764 -0.0761 -0.5596 -0.1966
    9CHL1  H26C  662   3.067   2.769   8.769 -0.3857 -2.5314 -0.4834
    9CHL1   C27  663   3.055   2.518   8.938 -0.8950 -0.4848  0.4022
    9CHL1  H27A  664   3.010   2.480   9.032 -0.9608  0.9840  0.9936
    9CHL1  H27B  665   2.969   2.527   8.868  0.3094 -0.7761 -1.1668
    9CHL1  H27C  666   3.117   2.449   8.878 -2.6799 -2.8226  1.0644
   10CHL1    C3  667   1.330   1.175  10.137 -0.1156 -0.2413  0.3314
   10CHL1    H3  668   1.221   1.157  10.127 -0.3833  1.0179  0.8321
   10CHL1    O3  669   1.380   1.172  10.268  0.4668 -0.0276  0.3401
   10CHL1   H3'  670   1.472   1.184  10.246  0.2316  0.5805 -0.3512
   10CHL1    C4  671   1.396   1.060  10.062  0.2055  0.1867  0.0607
   10CHL1   H4A  672   1.505   1.075  10.073  0.4619  1.9261 -3.3649
   10CHL1   H4B  673   1.368   0.971  10.123 -1.0601  1.6999  1.8271
   10CHL1    C5  674   1.359   1.061   9.911 -0.2462  0.1572  0.1941
   10CHL1    C6  675   1.298   0.962   9.850  0.4358 -0.3352 -0.0162
   10CHL1    H6  676   1.269   0.872   9.906  0.5398 -1.1254 -1.1836
   10CHL1    C7  677   1.253   0.960   9.706  0.0779  0.0927 -0.0621
   10CHL1   H7A  678   1.275   0.862   9.659  1.4063  0.1872  0.3080
   10CHL1   H7B  679   1.143   0.975   9.701  0.1507  0.5206 -0.4377
   10CHL1    C8  680   1.319   1.069   9.623  0.4999  0.4672  0.3825
   10CHL1    H8  681   1.423   1.039   9.598 -0.7934 -1.0810 -4.1788
   10CHL1   C14  682   1.242   1.084   9.494 -0.5259  0.3950  0.6166
   10CHL1   H14  683   1.143   1.116   9.532 -1.1662  0.2690 -0.8877
   10CHL1   C15  684   1.210   0.970   9.407  0.0104 -0.2065  0.2929
   10CHL1  H15A  685   1.287   0.890   9.418  0.2257  0.0161  0.4128
   10CHL1  H15B  686   1.105   0.936   9.423 -0.3599  0.6415 -0.2442
   10CHL1   C16  687   1.193   1.024   9.261 -0.1945  0.2370 -1.0197
   10CHL1  H16A  688   1.281   1.004   9.196 -0.0425  2.6750 -1.6750
   10CHL1  H16B  689   1.094   0.996   9.219 -0.2286 -0.1804 -0.6667
   10CHL1   C17  690   1.194   1.178   9.289 -0.0263 -0.1409 -0.0063
   10CHL1   H17  691   1.096   1.204   9.334  0.2690 -1.9359  1.7738
   10CHL1   C13  692   1.292   1.200   9.410 -0.6136 -0.6948  0.6810
   10CHL1   C18  693   1.443   1.189   9.351 -0.3404 -0.3951  0.2249
   10CHL1  H18A  694   1.469   1.277   9.289 -1.1305 -1.6892 -2.0659
   10CHL1  H18B  695   1.513   1.175   9.436  0.3283  0.6788 -0.1317
   10CHL1  H18C  696   1.454   1.088   9.305 -5.0780 -1.3078  0.5563
   10CHL1   C12  697   1.271   1.331   9.488 -0.0098  0.5126 -0.5961
   10CHL1  H12A  698   1.302   1.420   9.428 -1.8430  0.8093 -1.1708
   10CHL1  H12B  699   1.163   1.347   9.507 -0.4289 -0.1029 -2.2313
   10CHL1   C11  700   1.351   1.326   9.616 -0.2493 -0.1885  0.2077
   10CHL1  H11A  701   1.459   1.324   9.591  0.2799  2.3050  1.9798
   10CHL1  H11B  702   1.339   1.414   9.683 -2.2579  0.8676 -1.4369
   10CHL1    C9  703   1.316   1.203   9.701  0.3136  0.0172 -0.6020
   10CHL1    H9  704   1.208   1.206   9.727  0.0355  0.2557 -1.7231
   10CHL1   C10  705   1.389   1.199   9.842  0.3469 -0.4312  0.0127
   10CHL1   C19  706   1.538   1.220   9.818  0.1996  0.6520  0.0695
   10CHL1  H19A  707   1.569   1.312   9.764  2.8514 -1.1252 -1.6788
   10CHL1  H19B  708   1.599   1.214   9.910  0.2860 -1.0113 -0.0615
   10CHL1  H19C  709   1.569   1.141   9.746  0.6321  0.4007  0.5273
   10CHL1    C1  710   1.333   1.314   9.924  0.4257  0.9234  0.2125
   10CHL1   H1A  711   1.367   1.411   9.883 -1.5257  0.8618 -1.7738
   10CHL1   H1B  712   1.222   1.311   9.911  0.1865  0.5410  2.1459
   10CHL1    C2  713   1.369   1.306  10.069  0.3798 -0.2041 -0.0134
   10CHL1   H2A  714   1.305   1.384  10.115 -1.5038 -0.2866 -2.3256
   10CHL1   H2B  715   1.472   1.331  10.103 -0.5024  1.6851  1.4585
   10CHL1   C20  716   1.208   1.266   9.159  0.1012  0.1850  0.1746
   10CHL1   H20  717   1.312   1.260   9.120  0.0558  0.1096  0.0622
   10CHL1   C21  718   1.170   1.407   9.169  0.3410 -0.1180 -1.1580
   10CHL1  H21A  719   1.062   1.427   9.156  0.0426 -0.1446  0.9728
   10CHL1  H21B  720   1.219   1.471   9.092 -1.4046  1.5046 -0.9943
   10CHL1  H21C  721   1.204   1.455   9.263  0.9700 -0.5163 -1.1705
   10CHL1   C22  722   1.137   1.208   9.033  0.2777 -0.2716  0.5595
   10CHL1  H22A  723   1.169   1.107   8.998 -1.8005 -0.0507 -2.2980
   10CHL1  H22B  724   1.030   1.196   9.061 -0.0840  0.6270 -0.4025
   10CHL1   C23  725   1.139   1.296   8.907 -0.4469  0.1911  0.2506
   10CHL1  H23A  726   1.082   1.240   8.830 -0.4993  0.6251 -0.0287
   10CHL1  H23B  727   1.079   1.389   8.920 -0.1569  0.4486 -0.2408
   10CHL1   C24  728   1.273   1.327   8.849 -0.0016  0.2048  1.3571
   10CHL1  H24A  729   1.320   1.412   8.902  3.2518  0.7412 -1.9523
   10CHL1  H24B  730   1.343   1.243   8.870  0.5326  0.4190  0.4841
   10CHL1   C25  731   1.267   1.359   8.698 -0.3531 -0.2723 -0.0179
   10CHL1   H25  732   1.219   1.272   8.650  0.8844 -0.7115 -0.4928
   10CHL1   C26  733   1.185   1.484   8.665 -0.0089 -0.2261  0.0731
   10CHL1  H26A  734   1.173   1.511   8.558  0.2832  1.4937  0.4452
   10CHL1  H26B  735   1.088   1.482   8.718 -0.0550  1.2552  0.0714
   10CHL1  H26C  736   1.242   1.577   8.688  1.6926 -0.9673 -0.9593
   10CHL1   C27  737   1.410   1.375   8.649 -0.1060 -0.1578 -0.1894
   10CHL1  H27A  738   1.449   1.478   8.656 -0.2338 -0.1765  1.0459
   10CHL1  H27B  739   1.485   1.311   8.699  3.8202  1.3158 -3.5913
   10CHL1  H27C  740   1.421   1.350   8.541  1.9788 -1.8888  0.3595
   11CHL1    C3  741   4.253   4.280  10.358  0.0478  0.0402 -0.1912
   11CHL1    H3  742   4.162   4.218  10.341  0.3795  0.0208 -2.1145
   11CHL1    O3  743   4.251   4.298  10.496 -0.7944  0.0512 -0.0015
   11CHL1   H3'  744   4.343   4.299  10.523 -0.3466  2.0175 -1.3870
   11CHL1    C4  745   4.379   4.191  10.310  0.7629 -0.8209 -0.1390
   11CHL1   H4A  746   4.474   4.242  10.335 -0.8966  1.4983  2.0235
   11CHL1   H4B  747   4.376   4.094  10.363  1.1329 -0.1247  1.2014
   11CHL1    C5  748   4.377   4.171  10.161  0.3144 -0.0186  1.0737
   11CHL1    C6  749   4.369   4.043  10.116  0.2008 -0.6658  1.1558
   11CHL1    H6  750   4.378   3.967  10.195 -1.8156 -1.0021  1.1030
   11CHL1    C7  751   4.356   4.010   9.972  0.7669 -0.3153  0.4870
   11CHL1   H7A  752   4.421   3.923   9.947  1.1183 -0.8052  2.8786
   11CHL1   H7B  753   4.250   3.983   9.956  1.0534 -1.0194 -0.2658
   11CHL1    C8  754   4.386   4.133   9.879 -0.4529  0.2239  1.1023
   11CHL1    H8  755   4.495   4.154   9.878 -0.3762 -0.0721 -0.9824
   11CHL1   C14  756   4.345   4.101   9.735  0.3707 -0.7248  0.4709
   11CHL1   H14  757   4.238   4.070   9.732 -0.5154  2.1322 -0.7064
   11CHL1   C15  758   4.420   3.981   9.668 -0.3174  0.1867  0.0679
   11CHL1  H15A  759   4.529   3.989   9.690  0.6245 -0.6751 -3.5771
   11CHL1  H15B  760   4.395   3.878   9.703  1.8858 -1.1081 -1.8617
   11CHL1   C16  761   4.391   4.007   9.519  0.2721 -0.6618  0.7100
   11CHL1  H16A  762   4.482   4.002   9.454 -1.3320 -0.3576 -1.7018
   11CHL1  H16B  763   4.320   3.929   9.483 -2.1672  0.8339  2.1001
   11CHL1   C17  764   4.314   4.141   9.508 -0.0678  0.3578  0.1121
   11CHL1   H17  765   4.207   4.119   9.529  0.4620 -1.6121  0.9455
   11CHL1   C13  766   4.362   4.219   9.635  0.6395 -0.0986  0.5793
   11CHL1   C18  767   4.511   4.269   9.625  0.2588 -0.0950  0.3538
   11CHL1  H18A  768   4.546   4.313   9.720  0.0239 -1.4072  1.0738
   11CHL1  H18B  769   4.575   4.181   9.604 -3.2689 -2.6816 -0.6450
   11CHL1  H18C  770   4.517   4.348   9.546 -0.6203 -0.1133  0.2498
   11CHL1   C12  771   4.257   4.323   9.685 -0.0637 -0.5024  0.0509
   11CHL1  H12A  772   4.270   4.413   9.621 -0.9175  0.3448  1.0458
   11CHL1  H12B  773   4.150   4.295   9.692  0.1728 -2.1002 -1.8670
   11CHL1   C11  774   4.302   4.373   9.823  0.4057  0.4644  0.2589
   11CHL1  H11A  775   4.405   4.414   9.821  0.6548 -0.1034  1.2152
   11CHL1  H11B  776   4.234   4.458   9.844  1.3842  1.1579  0.6999
   11CHL1    C9  777   4.304   4.254   9.926  0.0096 -0.4091  0.4433
   11CHL1    H9  778   4.199   4.218   9.930 -0.3962  0.7697  2.9289
   11CHL1   C10  779   4.351   4.297  10.069  0.5043 -0.4650  0.4146
   11CHL1   C19  780   4.474   4.375  10.052 -0.2224 -0.0871 -0.3513
   11CHL1  H19A  781   4.449   4.471  10.001  2.2031  0.2566 -1.0031
   11CHL1  H19B  782   4.512   4.406  10.152 -1.4423  1.7155 -0.3900
   11CHL1  H19C  783   4.555   4.330   9.991 -0.3434 -0.7667 -0.0234
   11CHL1    C1  784   4.230   4.377  10.131  0.5815  0.3121 -0.2361
   11CHL1   H1A  785   4.221   4.469  10.070 -1.0862  0.3653  0.0248
   11CHL1   H1B  786   4.132   4.326  10.116 -0.3645  2.0890 -0.3803
   11CHL1    C2  787   4.253   4.413  10.277  0.2744 -0.0671  0.4446
   11CHL1   H2A  788   4.164   4.466  10.317  0.1499 -0.0501  0.1442
   11CHL1   H2B  789   4.340   4.478  10.301  0.9353 -0.1805 -1.5115
   11CHL1   C20  790   4.339   4.203   9.364 -0.9951  0.6173  0.6688
   11CHL1   H20  791   4.448   4.221   9.352 -0.3484 -3.1145 -0.3057
   11CHL1   C21  792   4.257   4.332   9.358 -0.3014 -0.1096 -0.1468
   11CHL1  H21A  793   4.260   4.371   9.254 -0.1069 -0.7104 -0.3710
   11CHL1  H21B  794   4.296   4.413   9.425  0.0053 -0.4967  0.1506
   11CHL1  H21C  795   4.156   4.317   9.401 -0.6120  1.5705 -0.2161
   11CHL1   C22  796   4.291   4.105   9.248 -0.0449 -0.5345  0.8182
   11CHL1  H22A  797   4.342   4.007   9.248 -0.3628 -0.7009  0.4337
   11CHL1  H22B  798   4.187   4.069   9.265 -0.3895 -1.1812 -2.1637
   11CHL1   C23  799   4.315   4.169   9.108  0.6747  0.4969  1.3294
   11CHL1  H23A  800   4.245   4.254   9.093 -3.1052 -2.3938  1.0324
   11CHL1  H23B  801   4.424   4.187   9.104  0.6728  0.3333 -0.8495
   11CHL1   C24  802   4.271   4.066   8.991  0.4455 -0.1668  0.5954
   11CHL1  H24A  803   4.314   3.968   9.021 -1.3292 -1.7228 -1.6184
   11CHL1  H24B  804   4.164   4.037   8.993 -0.2515  2.0310 -0.5489
   11CHL1   C25  805   4.328   4.116   8.847 -0.5258  0.2329 -0.9404
   11CHL1   H25  806   4.432   4.149   8.870  0.2461 -3.8753  2.9253
   11CHL1   C26  807   4.344   3.990   8.756  0.0867 -0.0070 -0.4486
   11CHL1  H26A  808   4.398   3.907   8.808  1.5455  1.4767  0.4919
   11CHL1  H26B  809   4.255   3.942   8.710 -0.1695 -0.3949  0.4162
   11CHL1  H26C  810   4.415   4.022   8.676  0.1140 -0.2965 -0.5415
   11CHL1   C27  811   4.241   4.226   8.783  0.0000  0.7144 -0.2653
   11CHL1  H27A  812   4.145   4.189   8.740  0.9594 -1.5649 -0.6018
   11CHL1  H27B  813   4.212   4.295   8.866 -1.1280  0.7333 -0.6616
   11CHL1  H27C  814   4.302   4.273   8.703 -0.7389  3.0985  0.4818
   12CHL1    C3  815   4.788   0.244  10.430 -0.0715 -0.2146  0.2383
   12CHL1    H3  816   4.809   0.344  10.387  1.1809 -1.0324 -1.1786
   12CHL1    O3  817   4.794   0.261  10.573 -0.0381  0.2024  0.2813
   12CHL1   H3'  818   4.836   0.182  10.609  0.9535  0.5519 -0.0766
   12CHL1    C4  819   4.647   0.203  10.396 -0.2977  0.4743  0.2205
   12CHL1   H4A  820   4.643   0.101  10.440  0.9908  0.0679 -0.5320
   12CHL1   H4B  821   4.569   0.269  10.439 -1.0037  0.3117 -0.7869
   12CHL1    C5  822   4.630   0.184  10.244 -0.1251  0.2129 -0.1738
   12CHL1    C6  823   4.536   0.248  10.175  0.3645 -0.3018 -0.2393
   12CHL1    H6  824   4.459   0.311  10.224  0.1158 -0.3700 -0.5332
   12CHL1    C7  825   4.515   0.226  10.022  0.1619 -0.4988  0.4686
   12CHL1   H7A  826   4.410   0.207   9.993  0.6888 -1.9675 -0.6507
   12CHL1   H7B  827   4.533   0.323   9.971 -1.9052 -1.5452 -2.4834
   12CHL1    C8  828   4.601   0.113   9.968 -0.5482  0.3367  0.1915
   12CHL1    H8  829   4.548   0.020   9.994 -0.0906  0.3082  1.0821
   12CHL1   C14  830   4.625   0.125   9.818 -0.3420 -0.3586 -0.0769
   12CHL1   H14  831   4.700   0.206   9.806  1.3859 -2.0592 -1.3801
   12CHL1   C15  832   4.501   0.159   9.743  0.5631 -0.0320 -0.2332
   12CHL1  H15A  833   4.410   0.099   9.764  1.3055 -1.5358 -1.1396
   12CHL1  H15B  834   4.468   0.264   9.748 -0.0614 -0.1906 -0.8530
   12CHL1   C16  835   4.535   0.113   9.600  0.6996  0.7177 -0.3346
   12CHL1  H16A  836   4.471   0.026   9.575  0.8894  0.2293  0.7819
   12CHL1  H16B  837   4.523   0.192   9.523 -0.2197  0.2329 -0.6982
   12CHL1   C17  838   4.682   0.060   9.605  0.4724 -0.3996 -0.4763
   12CHL1   H17  839   4.758   0.139   9.585  1.1162 -1.5306 -2.8920
   12CHL1   C13  840   4.701   0.012   9.751 -0.0131  0.0301  0.0867
   12CHL1   C18  841   4.638  -0.126   9.765  0.2318 -0.3824  0.7380
   12CHL1  H18A  842   4.545  -0.142   9.707  1.2088  0.9174 -1.3204
   12CHL1  H18B  843   4.711  -0.208   9.747  1.3388  0.7766 -0.2450
   12CHL1  H18C  844   4.603  -0.144   9.869 -1.2936 -0.5100  0.2293
   12CHL1   C12  845   4.846   0.017   9.802  0.3706  0.5623 -0.5390
   12CHL1  H12A  846   4.916  -0.065   9.774 -1.6388 -1.2501 -0.5169
   12CHL1  H12B  847   4.911   0.102   9.772  2.8963 -1.5621 -1.4743
   12CHL1   C11  848   4.838   0.006   9.958  0.1787 -0.2094  0.9622
   12CHL1  H11A  849   4.788  -0.092   9.974 -0.7504 -0.3163 -1.9776
   12CHL1  H11B  850   4.940   0.016  10.001  0.9106  1.5580 -0.9977
   12CHL1    C9  851   4.745   0.105  10.024  0.8164 -0.5510 -0.7203
   12CHL1    H9  852   4.783   0.209  10.009 -1.9301  0.4295 -1.5247
   12CHL1   C10  853   4.734   0.099  10.176 -0.9952 -0.3596 -0.4408
   12CHL1   C19  854   4.697  -0.054  10.214  0.6494 -0.1098 -0.6570
   12CHL1  H19A  855   4.643  -0.054  10.311  2.6344  1.0312  0.5269
   12CHL1  H19B  856   4.632  -0.102  10.138  0.2923 -2.5126  1.0614
   12CHL1  H19C  857   4.784  -0.121  10.233  0.0075 -0.9550 -0.6480
   12CHL1    C1  858   4.875   0.122  10.227  0.1616  0.1300 -0.3216
   12CHL1   H1A  859   4.949   0.047  10.192 -0.4914 -0.6631 -0.0444
   12CHL1   H1B  860   4.901   0.220  10.180  1.5346  0.5778  1.2590
   12CHL1    C2  861   4.889   0.138  10.382 -0.9464  0.0931 -0.0107
   12CHL1   H2A  862   4.991   0.163  10.417 -1.8131  0.5165  2.4490
   12CHL1   H2B  863   4.865   0.038  10.426 -1.9014  1.8696  3.9982
   12CHL1   C20  864   4.705  -0.039   9.491  0.0747  0.0356 -0.0482
   12CHL1   H20  865   4.649  -0.133   9.511  0.4699  0.1658  1.8057
   12CHL1   C21  866   4.853  -0.072   9.490  0.2875 -0.0921  0.2222
   12CHL1  H21A  867   4.910   0.020   9.517 -1.0163 -0.0008  2.9539
   12CHL1  H21B  868   4.899  -0.107   9.395 -1.7730  1.5001 -1.4674
   12CHL1  H21C  869   4.870  -0.146   9.571 -3.4014  0.4769  1.7023
   12CHL1   C22  870   4.667   0.019   9.348 -0.6335  0.6749  0.4348
   12CHL1  H22A  871   4.633   0.124   9.353 -1.1405  0.5419 -0.1706
   12CHL1  H22B  872   4.757   0.012   9.284  1.2669  1.8527  2.8135
   12CHL1   C23  873   4.548  -0.047   9.285  0.2380 -1.4360 -0.0549
   12CHL1  H23A  874   4.458  -0.051   9.349  0.5914  0.4845  0.6076
   12CHL1  H23B  875   4.520  -0.003   9.187 -0.4325 -0.8075  0.4139
   12CHL1   C24  876   4.593  -0.189   9.254  0.8066  0.0255 -0.0339
   12CHL1  H24A  877   4.695  -0.180   9.211  1.2756  0.6315  1.1684
   12CHL1  H24B  878   4.602  -0.255   9.343  0.9697 -2.0245 -1.5002
   12CHL1   C25  879   4.498  -0.252   9.155  0.7697 -0.4029  1.0000
   12CHL1   H25  880   4.395  -0.225   9.187 -0.0756  0.9047 -2.4050
   12CHL1   C26  881   4.496  -0.204   9.006 -0.1423  0.3223  0.4531
   12CHL1  H26A  882   4.475  -0.096   8.987  0.7592  0.4801  0.2948
   12CHL1  H26B  883   4.598  -0.229   8.969 -0.9344 -0.7259 -1.0998
   12CHL1  H26C  884   4.423  -0.263   8.947  0.9326 -0.0833 -0.5209
   12CHL1   C27  885   4.514  -0.402   9.159 -0.6607 -0.5020 -1.2056
   12CHL1  H27A  886   4.618  -0.433   9.136 -0.8374 -2.3587  0.2641
   12CHL1  H27B  887   4.492  -0.438   9.261 -0.7305  0.3012 -0.9265
   12CHL1  H27C  888   4.446  -0.457   9.090 -1.9077 -0.5799  0.0425
   13CHL1    C3  889   6.283   1.646  10.090 -0.0008 -0.2923  0.7902
   13CHL1    H3  890   6.178   1.677  10.069  0.1128  0.0272  0.6866
   13CHL1    O3  891   6.337   1.712  10.205  0.1549  0.0387 -0.3613
   13CHL1   H3'  892   6.383   1.790  10.174 -2.1208  1.5660 -0.1329
   13CHL1    C4  893   6.285   1.499  10.099 -0.0055  0.6833  0.1869
   13CHL1   H4A  894   6.392   1.469  10.105  0.0867  0.8323 -0.5702
   13CHL1   H4B  895   6.236   1.480  10.197 -1.7679 -0.3408 -0.8246
   13CHL1    C5  896   6.227   1.432   9.977  0.1774 -0.1505 -0.1533
   13CHL1    C6  897   6.118   1.353   9.991 -0.1887 -0.7103  0.2806
   13CHL1    H6  898   6.065   1.341  10.087  0.4843 -0.4844  0.6834
   13CHL1    C7  899   6.072   1.279   9.873  0.5290  0.0789  0.0315
   13CHL1   H7A  900   6.051   1.172   9.893 -1.8443  0.6163  0.7483
   13CHL1   H7B  901   5.967   1.310   9.855  0.1745 -1.0164  0.1161
   13CHL1    C8  902   6.164   1.282   9.746  0.2087 -0.3386 -1.0344
   13CHL1    H8  903   6.253   1.217   9.761 -0.6871 -1.4549 -0.4414
   13CHL1   C14  904   6.076   1.236   9.628 -0.0832  0.4365  0.5569
   13CHL1   H14  905   5.992   1.309   9.620 -0.6378 -0.1143  1.2158
   13CHL1   C15  906   5.996   1.100   9.637  0.4143  0.3304  0.5215
   13CHL1  H15A  907   6.062   1.019   9.676 -0.3953 -0.9589 -0.6785
   13CHL1  H15B  908   5.902   1.111   9.695  0.6483  0.4827  0.8783
   13CHL1   C16  909   5.958   1.071   9.493  0.3327  0.8006 -0.0757
   13CHL1  H16A  910   5.980   0.965   9.467 -0.0160  0.7249 -0.0704
   13CHL1  H16B  911   5.851   1.098   9.502  0.5844  2.1403 -0.9615
   13CHL1   C17  912   6.035   1.172   9.402 -0.8075 -0.5890 -0.1962
   13CHL1   H17  913   5.960   1.253   9.388  0.4401  0.5807 -0.3519
   13CHL1   C13  914   6.147   1.229   9.490 -0.9161 -0.1891  0.3538
   13CHL1   C18  915   6.266   1.125   9.490 -0.2321 -0.0306 -0.5016
   13CHL1  H18A  916   6.226   1.024   9.511  1.0645 -0.3413  0.5536
   13CHL1  H18B  917   6.306   1.126   9.387 -1.3637  1.3267 -0.9764
   13CHL1  H18C  918   6.338   1.150   9.571 -2.6100  2.8766  0.9179
   13CHL1   C12  919   6.203   1.372   9.459  0.4301 -0.3729  0.3472
   13CHL1  H12A  920   6.272   1.357   9.372 -1.6356  0.0250 -1.4481
   13CHL1  H12B  921   6.128   1.441   9.415  2.2755  0.3128 -1.9970
   13CHL1   C11  922   6.282   1.435   9.579  0.9918 -0.3527 -0.5180
   13CHL1  H11A  923   6.369   1.367   9.592  1.0687  0.2122  2.8097
   13CHL1  H11B  924   6.318   1.537   9.553  0.1589 -0.3634 -1.7584
   13CHL1    C9  925   6.214   1.428   9.723  0.2124 -0.8404  0.1748
   13CHL1    H9  926   6.127   1.497   9.719  1.7072  1.0803 -0.7182
   13CHL1   C10  927   6.295   1.472   9.844 -0.7827 -0.5834 -0.4158
   13CHL1   C19  928   6.432   1.402   9.851 -0.0641 -0.1415  0.2299
   13CHL1  H19A  929   6.486   1.415   9.755 -1.9530  0.6071 -0.7942
   13CHL1  H19B  930   6.495   1.442   9.934 -2.0901  0.1803  1.6915
   13CHL1  H19C  931   6.423   1.293   9.871  1.0950 -0.1257  0.9132
   13CHL1    C1  932   6.314   1.632   9.837  0.3201 -0.4844  0.6357
   13CHL1   H1A  933   6.379   1.651   9.749 -1.0552  1.8562  0.0276
   13CHL1   H1B  934   6.218   1.680   9.808  2.1754  2.3087 -1.5073
   13CHL1    C2  935   6.363   1.692   9.967  0.5424  0.2918 -0.8833
   13CHL1   H2A  936   6.359   1.802   9.949  1.1480 -0.0733 -3.8440
   13CHL1   H2B  937   6.471   1.668   9.973  1.0628  1.9395 -2.6159
   13CHL1   C20  938   6.072   1.106   9.269  0.1793 -0.0541  0.6953
   13CHL1   H20  939   6.140   1.018   9.276  1.3881  0.5778 -2.0523
   13CHL1   C21  940   6.125   1.210   9.166 -0.5631  0.1834 -0.3101
   13CHL1  H21A  941   6.210   1.269   9.208 -2.1764  1.6833  0.9927
   13CHL1  H21B  942   6.053   1.289   9.135  0.4132  1.2860  0.1142
   13CHL1  H21C  943   6.155   1.169   9.067 -1.0512  1.3104 -0.9408
   13CHL1   C22  944   5.950   1.049   9.197  0.2032  0.4688 -0.0753
   13CHL1  H22A  945   5.882   1.002   9.270  1.3951 -1.2471 -0.0225
   13CHL1  H22B  946   5.891   1.130   9.150 -1.2803 -0.8623 -0.5765
   13CHL1   C23  947   5.972   0.940   9.090 -0.2778 -0.2565 -0.5847
   13CHL1  H23A  948   6.039   0.986   9.014 -0.9613  0.7186 -0.6200
   13CHL1  H23B  949   6.006   0.856   9.154 -0.4109  1.8597  2.4931
   13CHL1   C24  950   5.839   0.895   9.021 -0.3485  0.5046  0.0191
   13CHL1  H24A  951   5.773   0.856   9.101 -0.9901  4.4595  1.6321
   13CHL1  H24B  952   5.795   0.990   8.982 -1.6791 -0.4147 -0.8149
   13CHL1   C25  953   5.870   0.800   8.907  1.0167 -0.2805  0.0170
   13CHL1   H25  954   5.979   0.788   8.889  1.5104 -0.4224  2.7036
   13CHL1   C26  955   5.813   0.659   8.941 -0.7972  0.1296 -0.0930
   13CHL1  H26A  956   5.844   0.638   9.045  1.4390  0.2860 -0.6665
   13CHL1  H26B  957   5.704   0.656   8.922 -0.4768  0.1800 -2.2999
   13CHL1  H26C  958   5.855   0.585   8.870  1.2874  1.2044 -0.0733
   13CHL1   C27  959   5.811   0.853   8.779 -0.1108  1.0646  0.0157
   13CHL1  H27A  960   5.705   0.820   8.781  0.3440 -0.4891  0.0442
   13CHL1  H27B  961   5.821   0.962   8.761 -0.5204  0.9387 -1.0458
   13CHL1  H27C  962   5.857   0.788   8.702  1.4234 -0.2211  1.9063
   14CHL1    C3  963   5.166   4.869  10.406  0.6699  0.0443  0.4986
   14CHL1    H3  964   5.158   4.971  10.363  2.2584  0.0533  0.1477
   14CHL1    O3  965   5.141   4.877  10.546 -0.1455 -0.3577 -0.1064
   14CHL1   H3'  966   5.213   4.932  10.578  1.2249 -1.4610 -1.1888
   14CHL1    C4  967   5.053   4.777  10.341 -0.6875  0.4847  0.3304
   14CHL1   H4A  968   5.061   4.680  10.395  1.0193  1.1064  1.2511
   14CHL1   H4B  969   4.951   4.820  10.353 -0.9889 -0.8461  3.5878
   14CHL1    C5  970   5.080   4.750  10.197  0.2101  0.0402 -0.5256
   14CHL1    C6  971   4.975   4.773  10.108  0.2642 -0.8277 -0.0548
   14CHL1    H6  972   4.872   4.791  10.145  0.0567 -0.6471 -0.6990
   14CHL1    C7  973   4.994   4.772   9.958  0.3030 -0.3796  0.1579
   14CHL1   H7A  974   4.923   4.704   9.905 -1.6165  1.8668 -0.3106
   14CHL1   H7B  975   4.994   4.875   9.916  1.9471 -0.6104 -0.4811
   14CHL1    C8  976   5.133   4.714   9.914  1.1335  0.7220 -0.4291
   14CHL1    H8  977   5.117   4.605   9.931 -1.5442  1.0013 -0.7106
   14CHL1   C14  978   5.167   4.748   9.778  0.2754  0.4879  0.7980
   14CHL1   H14  979   5.178   4.858   9.788  0.7879  0.3981  1.2752
   14CHL1   C15  980   5.062   4.734   9.667  0.2226  0.2645  0.2741
   14CHL1  H15A  981   5.008   4.638   9.685  0.5291 -0.3025 -1.6186
   14CHL1  H15B  982   4.989   4.816   9.682 -0.2411 -0.5458  3.1566
   14CHL1   C16  983   5.125   4.746   9.533 -0.5035  0.2509  0.0572
   14CHL1  H16A  984   5.099   4.649   9.484 -0.5563 -1.3279  2.9704
   14CHL1  H16B  985   5.092   4.833   9.472 -0.8347 -0.4499 -0.7858
   14CHL1   C17  986   5.283   4.755   9.564  0.3415 -0.4478 -0.0246
   14CHL1   H17  987   5.318   4.860   9.568  0.5651 -0.5304  0.2305
   14CHL1   C13  988   5.293   4.696   9.712  0.1941 -0.2960 -0.4885
   14CHL1   C18  989   5.278   4.545   9.709  0.1813 -0.3778  0.3604
   14CHL1  H18A  990   5.188   4.507   9.657 -0.6034 -0.3602  1.6491
   14CHL1  H18B  991   5.364   4.501   9.655 -0.1501  2.4261 -2.8045
   14CHL1  H18C  992   5.275   4.496   9.809 -1.4237 -1.3113 -0.1132
   14CHL1   C12  993   5.410   4.744   9.798  0.2794 -0.2855  0.0424
   14CHL1  H12A  994   5.506   4.704   9.759  0.0634 -1.2356  0.4467
   14CHL1  H12B  995   5.411   4.855   9.805 -0.7954 -0.3550  2.0413
   14CHL1   C11  996   5.393   4.706   9.944 -0.0779 -0.3345 -0.8858
   14CHL1  H11A  997   5.384   4.597   9.964 -0.5362  0.2223  2.7244
   14CHL1  H11B  998   5.477   4.756   9.998 -1.7176  0.9335  0.5985
   14CHL1    C9  999   5.251   4.745  10.005  0.3715 -0.0610 -0.0472
   14CHL1    H9 1000   5.257   4.856  10.005  1.1422 -0.0815  1.2847
   14CHL1   C10 1001   5.225   4.722  10.161 -0.0799  0.6083 -0.0040
   14CHL1   C19 1002   5.248   4.571  10.188 -0.2800 -0.2898  0.1643
   14CHL1  H19A 1003   5.239   4.543  10.295 -0.5735  0.0119  0.2208
   14CHL1  H19B 1004   5.166   4.529  10.126 -0.0745  1.0627 -1.0900
   14CHL1  H19C 1005   5.345   4.535  10.147 -0.4792  1.4331 -2.0584
   14CHL1    C1 1006   5.330   4.813  10.233  0.7419 -0.1482  0.2508
   14CHL1   H1A 1007   5.428   4.766  10.211  0.5726 -0.1270 -0.6001
   14CHL1   H1B 1008   5.328   4.917  10.193 -1.2626 -0.1496  0.2606
   14CHL1    C2 1009   5.311   4.815  10.386  0.7290  0.1004  0.2814
   14CHL1   H2A 1010   5.381   4.892  10.426  1.1902  1.1790 -2.3756
   14CHL1   H2B 1011   5.338   4.718  10.434 -0.4422 -0.1922  0.3755
   14CHL1   C20 1012   5.373   4.704   9.454  0.3335 -0.6629  1.0696
   14CHL1   H20 1013   5.345   4.598   9.437  1.2745 -0.5992 -1.3101
   14CHL1   C21 1014   5.521   4.704   9.498  0.1967 -0.3106  0.1808
   14CHL1  H21A 1015   5.553   4.637   9.581 -2.0168  0.7514  2.0298
   14CHL1  H21B 1016   5.547   4.806   9.534  1.1398 -1.4516  2.9990
   14CHL1  H21C 1017   5.594   4.684   9.417  0.5259  0.1598  0.3565
   14CHL1   C22 1018   5.354   4.781   9.323 -0.6797 -0.4063 -0.2190
   14CHL1  H22A 1019   5.250   4.816   9.302 -0.3347  1.4992  0.9741
   14CHL1  H22B 1020   5.408   4.878   9.326 -3.8904  1.7638 -3.0697
   14CHL1   C23 1021   5.427   4.727   9.199 -0.1382 -0.3402  0.9343
   14CHL1  H23A 1022   5.535   4.707   9.217  0.3064  0.9109 -0.1873
   14CHL1  H23B 1023   5.389   4.628   9.165 -1.5551  0.7023 -0.6773
   14CHL1   C24 1024   5.419   4.815   9.064 -0.3883 -0.5882  0.4543
   14CHL1  H24A 1025   5.312   4.828   9.037  0.1452  0.8373 -1.1142
   14CHL1  H24B 1026   5.466   4.912   9.091 -1.5364 -0.0484  0.5563
   14CHL1   C25 1027   5.505   4.757   8.947 -0.1220  0.0573 -0.0103
   14CHL1   H25 1028   5.607   4.742   8.987  0.9529  1.3799 -2.0598
   14CHL1   C26 1029   5.453   4.624   8.893  0.0043 -0.7588  0.1415
   14CHL1  H26A 1030   5.409   4.555   8.969 -2.3640 -1.1704 -1.5239
   14CHL1  H26B 1031   5.369   4.651   8.826 -0.0075 -2.1395 -0.4343
   14CHL1  H26C 1032   5.532   4.572   8.834 -0.3637  1.4003 -2.3998
   14CHL1   C27 1033   5.519   4.860   8.830 -0.1739 -0.5165  1.0698
   14CHL1  H27A 1034   5.573   4.951   8.861 -0.1932 -0.3503  0.6172
   14CHL1  H27B 1035   5.582   4.814   8.751  0.1095 -1.2040  1.6754
   14CHL1  H27C 1036   5.420   4.880   8.783  0.0224  3.2016  1.9987
   15CHL1    C3 1037   5.411   3.220  10.155 -0.2514 -0.1500 -0.3615
   15CHL1    H3 1038   5.309   3.256  10.130 -0.7806 -0.0084  1.8413
   15CHL1    O3 1039   5.412   3.198  10.296 -0.2161  0.3561 -0.2834
   15CHL1   H3' 1040   5.480   3.130  10.302  0.0703  0.5445 -1.2903
   15CHL1    C4 1041   5.445   3.091  10.083  0.0268 -0.1718 -0.0277
   15CHL1   H4A 1042   5.550   3.064  10.106  0.1206  1.4485  1.7125
   15CHL1   H4B 1043   5.372   3.010  10.106 -2.8687  2.0174 -0.8619
   15CHL1    C5 1044   5.438   3.111   9.930  0.4515 -0.3233 -0.1770
   15CHL1    C6 1045   5.346   3.044   9.857 -0.3926 -0.5986  0.8815
   15CHL1    H6 1046   5.299   2.956   9.903  2.2521 -1.6382  1.7960
   15CHL1    C7 1047   5.339   3.052   9.700 -0.0569 -0.8268  0.0562
   15CHL1   H7A 1048   5.329   2.955   9.647  2.3170 -1.1371  0.0535
   15CHL1   H7B 1049   5.247   3.111   9.682 -0.7612 -2.4513 -2.1654
   15CHL1    C8 1050   5.458   3.131   9.646 -0.4617  0.9586 -0.3684
   15CHL1    H8 1051   5.543   3.062   9.666 -0.5705  0.9062 -0.0847
   15CHL1   C14 1052   5.433   3.164   9.500 -0.4396  0.0092  0.0840
   15CHL1   H14 1053   5.340   3.224   9.490  0.5201  1.6947  0.7352
   15CHL1   C15 1054   5.413   3.042   9.406 -1.0418 -0.7422 -0.0106
   15CHL1  H15A 1055   5.479   2.960   9.441 -1.1001 -0.9559 -0.3918
   15CHL1  H15B 1056   5.309   3.007   9.420 -1.3854  0.4586  0.6196
   15CHL1   C16 1057   5.439   3.097   9.261 -0.2009 -0.1298  0.8217
   15CHL1  H16A 1058   5.521   3.041   9.212 -0.1504  1.7755 -1.4311
   15CHL1  H16B 1059   5.350   3.080   9.197 -0.2658 -0.0426  0.8878
   15CHL1   C17 1060   5.482   3.244   9.290 -0.3843 -0.3397  1.1738
   15CHL1   H17 1061   5.385   3.297   9.300 -1.1953 -1.5988  0.3475
   15CHL1   C13 1062   5.540   3.252   9.434 -0.4174  0.2854 -0.0495
   15CHL1   C18 1063   5.682   3.186   9.430 -0.5142 -0.0575  0.9641
   15CHL1  H18A 1064   5.750   3.265   9.393 -0.7919  0.2523  1.1141
   15CHL1  H18B 1065   5.728   3.154   9.526 -1.1430  0.4163  1.4295
   15CHL1  H18C 1066   5.693   3.106   9.353  0.1841 -0.2916  1.2940
   15CHL1   C12 1067   5.532   3.382   9.517 -0.0250  0.1930 -0.3669
   15CHL1  H12A 1068   5.608   3.453   9.477 -2.0124  0.7776 -3.3995
   15CHL1  H12B 1069   5.436   3.438   9.512  0.8547  1.8832  0.4801
   15CHL1   C11 1070   5.567   3.367   9.669 -0.2772  0.2833 -0.1763
   15CHL1  H11A 1071   5.678   3.358   9.669 -0.2979 -0.0081 -0.6396
   15CHL1  H11B 1072   5.542   3.463   9.718 -0.1269  1.0606 -1.5713
   15CHL1    C9 1073   5.487   3.253   9.734  0.0791  0.4436  0.1860
   15CHL1    H9 1074   5.391   3.307   9.744 -1.8920 -2.9665  1.0568
   15CHL1   C10 1075   5.527   3.226   9.882  0.0391  0.1963 -0.1630
   15CHL1   C19 1076   5.671   3.185   9.894 -0.6142  0.1092  0.3977
   15CHL1  H19A 1077   5.739   3.259   9.846  0.8160 -2.0267 -1.0576
   15CHL1  H19B 1078   5.711   3.161   9.994 -0.2040 -0.1503  0.1722
   15CHL1  H19C 1079   5.688   3.091   9.837  3.3832  0.6874  0.3888
   15CHL1    C1 1080   5.501   3.353   9.967  0.6346 -0.5452 -0.4076
   15CHL1   H1A 1081   5.576   3.430   9.941  0.7197 -0.3317  0.4247
   15CHL1   H1B 1082   5.398   3.390   9.946 -0.1335 -1.3914  1.5708
   15CHL1    C2 1083   5.512   3.326  10.122 -0.4109 -0.4030  0.5274
   15CHL1   H2A 1084   5.491   3.418  10.180 -1.9831 -0.2190 -0.2580
   15CHL1   H2B 1085   5.612   3.293  10.155 -0.5919 -1.4106  0.1217
   15CHL1   C20 1086   5.564   3.305   9.169  0.2596  0.0110 -0.3738
   15CHL1   H20 1087   5.656   3.244   9.177 -0.8235 -1.6892 -0.4972
   15CHL1   C21 1088   5.597   3.447   9.203  0.5920 -0.2913  0.7190
   15CHL1  H21A 1089   5.502   3.498   9.227 -0.6465 -1.4271 -1.4908
   15CHL1  H21B 1090   5.639   3.492   9.110 -0.0152 -1.3467 -0.0940
   15CHL1  H21C 1091   5.667   3.436   9.288 -0.4499  1.0129  1.7753
   15CHL1   C22 1092   5.498   3.291   9.030 -0.2873 -0.4603 -0.7136
   15CHL1  H22A 1093   5.575   3.342   8.968  1.6266 -2.2997  0.0319
   15CHL1  H22B 1094   5.504   3.185   8.998 -0.5098 -0.0528 -2.1880
   15CHL1   C23 1095   5.359   3.352   9.004  0.3097 -0.6633 -0.1643
   15CHL1  H23A 1096   5.284   3.290   9.058 -0.4251  0.6159  0.3262
   15CHL1  H23B 1097   5.365   3.454   9.048  3.0252 -0.4591 -0.8608
   15CHL1   C24 1098   5.327   3.364   8.852  0.1933  0.6652 -0.6547
   15CHL1  H24A 1099   5.226   3.411   8.848  0.3755  1.4188  1.6517
   15CHL1  H24B 1100   5.395   3.436   8.802 -0.0915 -0.0536 -2.1079
   15CHL1   C25 1101   5.357   3.239   8.767  0.2041  0.5617 -0.1432
   15CHL1   H25 1102   5.464   3.209   8.778  0.1702 -0.5460 -2.3022
   15CHL1   C26 1103   5.271   3.119   8.813  0.3599  0.2890 -0.3332
   15CHL1  H26A 1104   5.289   3.032   8.746 -1.7366 -0.3203 -0.1632
   15CHL1  H26B 1105   5.298   3.080   8.914 -0.0774  0.4813 -0.1412
   15CHL1  H26C 1106   5.163   3.146   8.808  0.2240  0.1587  1.4100
   15CHL1   C27 1107   5.332   3.257   8.617 -0.7765 -0.1605 -0.2711
   15CHL1  H27A 1108   5.416   3.321   8.582  0.4509 -0.4564  1.9835
   15CHL1  H27B 1109   5.332   3.164   8.556  0.8122  0.0031 -0.5681
   15CHL1  H27C 1110   5.232   3.304   8.608  0.0367  1.8006  0.4447
   16CHL1    C3 1111   5.955   5.497  10.541  0.1813  0.2982 -1.0980
   16CHL1    H3 1112   5.901   5.403  10.513  2.4673 -1.2257 -0.6897
   16CHL1    O3 1113   5.934   5.537  10.668 -0.2628  0.4194 -0.3431
   16CHL1   H3' 1114   5.967   5.627  10.660 -2.4048  1.0976 -2.7062
   16CHL1    C4 1115   6.107   5.483  10.520  0.0373  0.9145 -0.3528
   16CHL1   H4A 1116   6.155   5.579  10.546  1.3670 -0.3249  2.2168
   16CHL1   H4B 1117   6.146   5.410  10.594 -2.2338  0.5754  0.5925
   16CHL1    C5 1118   6.135   5.440  10.375 -0.1660  0.2113  1.0473
   16CHL1    C6 1119   6.186   5.325  10.349  0.2329 -0.4186 -0.1240
   16CHL1    H6 1120   6.219   5.252  10.424 -0.5246  0.1750  0.8186
   16CHL1    C7 1121   6.210   5.275  10.209  0.0321  0.4187  0.0325
   16CHL1   H7A 1122   6.306   5.222  10.191  0.3776  0.8774  0.5059
   16CHL1   H7B 1123   6.137   5.194  10.189  0.3812 -0.0128  0.4708
   16CHL1    C8 1124   6.179   5.373  10.096 -0.5036 -0.2986  0.6306
   16CHL1    H8 1125   6.276   5.423  10.072 -1.3511 -0.5326 -4.1647
   16CHL1   C14 1126   6.148   5.314   9.964  0.2044 -0.3474 -0.3211
   16CHL1   H14 1127   6.051   5.261   9.970 -1.6011  2.4453 -2.4064
   16CHL1   C15 1128   6.237   5.195   9.907  0.0066  0.5140  1.2426
   16CHL1  H15A 1129   6.342   5.218   9.933  1.2493 -0.9548 -1.9892
   16CHL1  H15B 1130   6.201   5.099   9.950 -2.2678  1.6556  2.0586
   16CHL1   C16 1131   6.210   5.196   9.750 -0.2472  0.0748  0.2908
   16CHL1  H16A 1132   6.316   5.199   9.715 -0.5472 -2.4644 -1.0174
   16CHL1  H16B 1133   6.161   5.101   9.722  0.1212 -0.4257  1.2758
   16CHL1   C17 1134   6.123   5.320   9.726 -0.7967  0.1593 -0.0133
   16CHL1   H17 1135   6.019   5.284   9.743  0.0042 -1.3971  1.9790
   16CHL1   C13 1136   6.140   5.411   9.846 -0.0144 -0.6476 -0.3222
   16CHL1   C18 1137   6.276   5.485   9.826  0.1194  0.4074  0.3153
   16CHL1  H18A 1138   6.299   5.547   9.915 -1.0898  1.1227  0.1635
   16CHL1  H18B 1139   6.360   5.416   9.806  0.1214  0.8620 -1.3937
   16CHL1  H18C 1140   6.270   5.560   9.744  0.3632  0.2255  0.1298
   16CHL1   C12 1141   6.026   5.504   9.872 -0.2481  0.4800 -0.5795
   16CHL1  H12A 1142   6.008   5.584   9.798 -3.6826 -0.4508 -0.9602
   16CHL1  H12B 1143   5.929   5.450   9.882  0.6741 -0.9431  1.6651
   16CHL1   C11 1144   6.042   5.573  10.014 -0.2838  0.1089 -0.5542
   16CHL1  H11A 1145   6.132   5.639  10.005  0.7148 -0.9851  1.0137
   16CHL1  H11B 1146   5.962   5.646  10.034  1.0523  1.6703 -0.6480
   16CHL1    C9 1147   6.068   5.469  10.131  0.9341 -0.2431  0.8715
   16CHL1    H9 1148   5.984   5.397  10.142  2.8022 -2.7391 -0.0331
   16CHL1   C10 1149   6.080   5.536  10.271  0.1503  0.2146 -0.0994
   16CHL1   C19 1150   6.176   5.661  10.267  0.1942 -0.1966 -0.4110
   16CHL1  H19A 1151   6.184   5.700  10.371 -2.2313  0.2477 -0.3336
   16CHL1  H19B 1152   6.279   5.635  10.234  0.1305  0.9560 -1.5982
   16CHL1  H19C 1153   6.124   5.734  10.202 -0.9430 -0.2791  0.3831
   16CHL1    C1 1154   5.935   5.580  10.306  0.7621  0.4591 -0.2661
   16CHL1   H1A 1155   5.897   5.655  10.233  1.5554 -0.0232 -1.2046
   16CHL1   H1B 1156   5.868   5.492  10.295  0.7668  0.0799  2.1634
   16CHL1    C2 1157   5.909   5.616  10.454  0.3985  0.9209  0.0427
   16CHL1   H2A 1158   5.801   5.635  10.472 -0.9669 -3.6834 -1.8991
   16CHL1   H2B 1159   5.970   5.705  10.481 -0.1400  1.2702  0.1346
   16CHL1   C20 1160   6.126   5.377   9.584 -0.0154  0.1094 -0.1157
   16CHL1   H20 1161   6.195   5.464   9.587  0.9035 -0.6179  0.2522
   16CHL1   C21 1162   5.983   5.425   9.540 -0.2255 -0.0664 -0.3996
   16CHL1  H21A 1163   5.991   5.482   9.445 -2.2866  1.8881  0.5150
   16CHL1  H21B 1164   5.935   5.494   9.612 -1.7745 -0.8931 -0.5895
   16CHL1  H21C 1165   5.918   5.336   9.525 -0.8409  0.4123 -0.6214
   16CHL1   C22 1166   6.176   5.267   9.481 -0.4315  0.1589  0.0008
   16CHL1  H22A 1167   6.285   5.253   9.495 -0.7122 -1.7937  0.5785
   16CHL1  H22B 1168   6.130   5.169   9.503  1.6809 -1.3241 -1.8007
   16CHL1   C23 1169   6.141   5.297   9.336  0.0301 -0.4652  0.1254
   16CHL1  H23A 1170   6.030   5.299   9.330  0.0338 -0.6383  0.0122
   16CHL1  H23B 1171   6.176   5.395   9.297 -0.1152 -1.1734 -1.9024
   16CHL1   C24 1172   6.198   5.189   9.245  0.1204 -0.2702 -0.1174
   16CHL1  H24A 1173   6.296   5.155   9.284  0.2890  0.7985  0.4196
   16CHL1  H24B 1174   6.132   5.099   9.244 -0.3519  0.0157  1.5468
   16CHL1   C25 1175   6.218   5.243   9.103  0.5176 -0.2375 -0.3477
   16CHL1   H25 1176   6.311   5.305   9.097  1.1389 -1.0629  0.4237
   16CHL1   C26 1177   6.249   5.130   9.006 -0.4673 -0.1726  0.0529
   16CHL1  H26A 1178   6.357   5.103   9.016  0.4147  2.4732 -1.4115
   16CHL1  H26B 1179   6.184   5.041   9.021 -0.6388 -0.1060 -0.2878
   16CHL1  H26C 1180   6.238   5.164   8.901 -1.4132  3.6120  1.2391
   16CHL1   C27 1181   6.091   5.317   9.048  1.0894  0.1076  0.6214
   16CHL1  H27A 1182   6.074   5.412   9.104  0.1747  0.0058  0.5248
   16CHL1  H27B 1183   6.099   5.347   8.942 -2.5475  1.3946  0.5795
   16CHL1  H27C 1184   5.999   5.256   9.060  0.9376  0.6945  3.0502
   17CHL1    C3 1185   1.624   2.271  10.326  0.0506  0.3052 -1.2409
   17CHL1    H3 1186   1.621   2.160  10.319 -1.5289  0.1444  0.8320
   17CHL1    O3 1187   1.658   2.318  10.454  0.6325 -0.0338  0.1900
   17CHL1   H3' 1188   1.605   2.263  10.513 -1.2064 -0.0969 -1.4165
   17CHL1    C4 1189   1.726   2.317  10.227 -0.6876  0.8521 -0.1714
   17CHL1   H4A 1190   1.741   2.425  10.248  0.9948  0.5997  0.0583
   17CHL1   H4B 1191   1.818   2.263  10.257 -0.4594  0.3593 -1.6696
   17CHL1    C5 1192   1.701   2.303  10.083 -0.3552  0.0914  0.0802
   17CHL1    C6 1193   1.795   2.248  10.002  0.5053  0.4320  0.3881
   17CHL1    H6 1194   1.890   2.217  10.047 -0.4164 -0.0224  2.1257
   17CHL1    C7 1195   1.774   2.218   9.856 -0.1426  0.3489 -0.1747
   17CHL1   H7A 1196   1.865   2.251   9.801  1.0570  1.1787  2.1913
   17CHL1   H7B 1197   1.754   2.110   9.843 -0.7627  0.6028 -1.5254
   17CHL1    C8 1198   1.650   2.294   9.799 -0.1362  0.6323  0.3911
   17CHL1    H8 1199   1.675   2.401   9.782  1.0788  0.2494 -0.3444
   17CHL1   C14 1200   1.608   2.228   9.666  0.1363 -0.6540  0.0583
   17CHL1   H14 1201   1.582   2.126   9.702  1.4320  0.0581  3.4584
   17CHL1   C15 1202   1.714   2.219   9.556  0.9216  0.0635  0.0885
   17CHL1  H15A 1203   1.770   2.313   9.541 -3.3062  2.4918 -2.2473
   17CHL1  H15B 1204   1.786   2.140   9.588  1.9390  1.4318  1.2811
   17CHL1   C16 1205   1.640   2.183   9.427 -0.0221  0.4411 -0.1807
   17CHL1  H16A 1206   1.661   2.238   9.332 -0.0623 -0.8014 -0.9357
   17CHL1  H16B 1207   1.660   2.077   9.401  3.1006  0.6099  1.0943
   17CHL1   C17 1208   1.484   2.209   9.468 -0.7468 -0.0167 -0.2958
   17CHL1   H17 1209   1.450   2.112   9.511  1.3788  0.2211  2.1916
   17CHL1   C13 1210   1.490   2.297   9.594 -0.1431 -0.2741 -0.6243
   17CHL1   C18 1211   1.515   2.441   9.539 -0.0161  0.5111 -0.4107
   17CHL1  H18A 1212   1.584   2.437   9.452 -1.0306  0.9799 -1.2600
   17CHL1  H18B 1213   1.424   2.490   9.498 -2.6339 -2.5035  1.3544
   17CHL1  H18C 1214   1.573   2.504   9.609 -1.6167  0.5240  0.9442
   17CHL1   C12 1215   1.370   2.293   9.693 -0.2302 -0.6525  0.3319
   17CHL1  H12A 1216   1.282   2.342   9.646  0.9859  2.2286  0.8929
   17CHL1  H12B 1217   1.353   2.183   9.704 -0.2018 -0.9792 -2.2826
   17CHL1   C11 1218   1.407   2.362   9.823 -0.2431 -0.1593  0.5471
   17CHL1  H11A 1219   1.434   2.466   9.793  2.2335 -0.1778  2.3398
   17CHL1  H11B 1220   1.327   2.369   9.900  1.9100  0.4538  2.8624
   17CHL1    C9 1221   1.526   2.294   9.894  0.4218  0.0754  0.0312
   17CHL1    H9 1222   1.487   2.190   9.908  2.4404 -0.6295  0.8333
   17CHL1   C10 1223   1.559   2.338  10.039  0.5851  0.5216 -0.6375
   17CHL1   C19 1224   1.539   2.489  10.046  0.1738 -0.6527  0.2039
   17CHL1  H19A 1225   1.563   2.534  10.145 -0.3479  2.0012 -0.7914
   17CHL1  H19B 1226   1.601   2.543   9.972  0.5349 -1.3967 -0.0463
   17CHL1  H19C 1227   1.434   2.514  10.021 -0.7963 -1.7083  2.8239
   17CHL1    C1 1228   1.460   2.281  10.142 -0.1622  0.2464 -0.2649
   17CHL1   H1A 1229   1.372   2.343  10.115  1.3146  2.4359 -0.3812
   17CHL1   H1B 1230   1.436   2.173  10.137 -0.0616  0.2374 -0.6048
   17CHL1    C2 1231   1.481   2.314  10.287  0.3479 -0.4550  0.6201
   17CHL1   H2A 1232   1.404   2.262  10.349 -1.7050  0.2441 -1.2063
   17CHL1   H2B 1233   1.462   2.421  10.312 -0.4978 -0.3885 -0.2405
   17CHL1   C20 1234   1.384   2.237   9.356  0.3987  0.4995  0.2146
   17CHL1   H20 1235   1.286   2.254   9.406 -1.6259 -4.6461 -1.4212
   17CHL1   C21 1236   1.381   2.108   9.264  0.4990 -0.2764 -0.2367
   17CHL1  H21A 1237   1.484   2.082   9.233 -0.3091 -1.0419 -2.4845
   17CHL1  H21B 1238   1.316   2.130   9.176 -3.1234 -0.4584  2.1769
   17CHL1  H21C 1239   1.329   2.019   9.305 -1.1966  0.6683 -0.2025
   17CHL1   C22 1240   1.415   2.355   9.253  0.3972  0.5190 -0.0676
   17CHL1  H22A 1241   1.437   2.450   9.305 -0.0749  0.1283  0.8675
   17CHL1  H22B 1242   1.501   2.323   9.190  0.2926  0.9288 -0.4200
   17CHL1   C23 1243   1.289   2.390   9.168  0.1482  0.4945  0.8064
   17CHL1  H23A 1244   1.271   2.312   9.091 -0.6227  0.7720  0.6972
   17CHL1  H23B 1245   1.200   2.404   9.233  0.2993  1.8823  0.7407
   17CHL1   C24 1246   1.312   2.519   9.081 -0.2249  0.1915 -0.4125
   17CHL1  H24A 1247   1.320   2.605   9.150 -0.4851 -1.4329  1.7252
   17CHL1  H24B 1248   1.403   2.512   9.017  0.3449 -1.5881  0.5295
   17CHL1   C25 1249   1.186   2.533   8.988  0.1054  0.5294 -0.3863
   17CHL1   H25 1250   1.099   2.515   9.054  1.1409 -0.1043  0.8553
   17CHL1   C26 1251   1.182   2.681   8.936 -0.6673  0.5303 -0.0524
   17CHL1  H26A 1252   1.087   2.699   8.881 -1.2309 -2.3103 -0.1749
   17CHL1  H26B 1253   1.190   2.748   9.024  1.2855 -0.6642  0.7391
   17CHL1  H26C 1254   1.272   2.691   8.872 -0.7829 -1.6953 -0.6537
   17CHL1   C27 1255   1.193   2.439   8.871  0.3520 -0.8459 -0.2931
   17CHL1  H27A 1256   1.286   2.460   8.816  0.4327 -0.5196 -0.0308
   17CHL1  H27B 1257   1.190   2.330   8.894  2.0117 -0.5583  1.5283
   17CHL1  H27C 1258   1.107   2.453   8.802 -0.8786 -0.6145  1.2357
   18CHL1    C3 1259   1.721   0.691  10.192 -0.0667  0.5178 -0.3971
   18CHL1    H3 1260   1.831   0.703  10.201  0.3681 -3.2314  1.0394
   18CHL1    O3 1261   1.672   0.691  10.327 -0.1195  0.5455  0.1057
   18CHL1   H3' 1262   1.707   0.767  10.374  1.6560 -0.3147  0.2220
   18CHL1    C4 1263   1.666   0.801  10.104 -0.0224  0.0856  1.0259
   18CHL1   H4A 1264   1.558   0.822  10.123 -0.4981  1.6534 -2.5370
   18CHL1   H4B 1265   1.693   0.900  10.146  0.0138  1.4323 -1.9054
   18CHL1    C5 1266   1.686   0.789   9.954  1.0886  1.0813  0.1718
   18CHL1    C6 1267   1.731   0.897   9.880  0.2605 -0.1582 -0.3151
   18CHL1    H6 1268   1.744   0.989   9.939  1.6453 -2.0657  2.6045
   18CHL1    C7 1269   1.752   0.901   9.731 -0.0462  0.2583 -0.0960
   18CHL1   H7A 1270   1.712   0.989   9.676 -1.5676 -1.1871 -1.4112
   18CHL1   H7B 1271   1.860   0.886   9.708 -0.1902 -2.8106  0.7449
   18CHL1    C8 1272   1.692   0.778   9.661  0.5756  0.3357  0.7712
   18CHL1    H8 1273   1.583   0.800   9.659  0.2260 -1.3077 -0.3798
   18CHL1   C14 1274   1.758   0.766   9.526  0.0253 -0.2104  0.3631
   18CHL1   H14 1275   1.866   0.747   9.548  0.0310 -1.5394 -0.6929
   18CHL1   C15 1276   1.759   0.890   9.432  0.1782 -0.3161 -0.1681
   18CHL1  H15A 1277   1.668   0.953   9.436 -0.2425 -0.8523 -0.9698
   18CHL1  H15B 1278   1.853   0.943   9.459 -0.6244  0.1213  1.9695
   18CHL1   C16 1279   1.777   0.829   9.290 -0.0945  0.2808 -0.2625
   18CHL1  H16A 1280   1.701   0.854   9.213 -1.2301  0.1997  0.8134
   18CHL1  H16B 1281   1.871   0.857   9.238  0.6616 -0.1043  0.8641
   18CHL1   C17 1282   1.777   0.669   9.311  0.7946 -0.8639 -0.4983
   18CHL1   H17 1283   1.886   0.652   9.324  1.2683  0.9736 -1.6540
   18CHL1   C13 1284   1.709   0.639   9.446 -0.3330  0.1674 -0.4397
   18CHL1   C18 1285   1.562   0.642   9.422  0.7630 -0.3972 -0.3738
   18CHL1  H18A 1286   1.529   0.548   9.375  0.5163 -0.3605 -0.2778
   18CHL1  H18B 1287   1.508   0.637   9.519 -0.1316 -0.2670 -0.8586
   18CHL1  H18C 1288   1.525   0.723   9.356 -2.2228 -2.7763 -1.8577
   18CHL1   C12 1289   1.741   0.507   9.533  0.3330 -0.4998 -0.0453
   18CHL1  H12A 1290   1.699   0.415   9.488  0.2541  0.5435 -2.2287
   18CHL1  H12B 1291   1.852   0.500   9.533  0.3266 -0.6489  0.6157
   18CHL1   C11 1292   1.688   0.520   9.674 -0.1354 -0.3498  0.2755
   18CHL1  H11A 1293   1.577   0.520   9.670 -0.1134 -0.2528 -0.8172
   18CHL1  H11B 1294   1.733   0.437   9.733 -0.2992 -2.2696 -2.1392
   18CHL1    C9 1295   1.722   0.653   9.748  0.6036 -0.7777 -0.2296
   18CHL1    H9 1296   1.832   0.643   9.754  0.5912 -0.5865  0.4171
   18CHL1   C10 1297   1.657   0.655   9.891 -0.7550  0.1813 -0.5272
   18CHL1   C19 1298   1.500   0.631   9.884 -0.5936 -0.0203 -0.4421
   18CHL1  H19A 1299   1.461   0.627   9.987  2.3312  0.4709  0.7831
   18CHL1  H19B 1300   1.453   0.714   9.827 -1.8536 -0.3864  0.0503
   18CHL1  H19C 1301   1.466   0.538   9.833 -1.2214  0.1054 -0.2495
   18CHL1    C1 1302   1.725   0.544   9.986 -0.7686 -0.5444  0.1513
   18CHL1   H1A 1303   1.694   0.439   9.967 -1.5805 -0.7791  2.4671
   18CHL1   H1B 1304   1.836   0.549   9.973 -0.8090  1.8068  0.2539
   18CHL1    C2 1305   1.685   0.558  10.131 -0.4011  0.5174  0.1210
   18CHL1   H2A 1306   1.728   0.470  10.182 -1.6038 -0.5285 -0.6059
   18CHL1   H2B 1307   1.576   0.539  10.141 -0.1525 -1.2198 -0.2292
   18CHL1   C20 1308   1.732   0.588   9.188  0.1939 -0.1904 -0.4747
   18CHL1   H20 1309   1.624   0.613   9.177  0.2478  0.1091 -0.3441
   18CHL1   C21 1310   1.755   0.439   9.210  0.1163 -0.4381 -0.3513
   18CHL1  H21A 1311   1.865   0.423   9.216 -0.2057 -2.3491  2.0650
   18CHL1  H21B 1312   1.708   0.385   9.125 -2.2595 -2.9117  2.3209
   18CHL1  H21C 1313   1.717   0.394   9.304  1.4663  1.6763  1.3265
   18CHL1   C22 1314   1.807   0.631   9.058  0.0068 -0.0570  0.4449
   18CHL1  H22A 1315   1.775   0.736   9.038 -0.6659 -0.4465 -0.5541
   18CHL1  H22B 1316   1.916   0.641   9.078 -0.0560  0.9863  0.3358
   18CHL1   C23 1317   1.775   0.554   8.936 -0.9829 -0.2521  1.0052
   18CHL1  H23A 1318   1.839   0.464   8.923 -4.3751 -2.4384 -2.7060
   18CHL1  H23B 1319   1.670   0.519   8.929 -1.5679  1.7311 -1.8019
   18CHL1   C24 1320   1.805   0.632   8.804 -0.0685 -0.3593 -0.3488
   18CHL1  H24A 1321   1.724   0.707   8.790 -0.2897  0.1198  2.8451
   18CHL1  H24B 1322   1.901   0.688   8.810 -0.5860  0.3634  4.0949
   18CHL1   C25 1323   1.795   0.538   8.676  0.6839 -0.0664  0.2002
   18CHL1   H25 1324   1.697   0.486   8.677  1.1495 -1.0686 -1.6197
   18CHL1   C26 1325   1.791   0.616   8.540  0.0276  0.4092 -0.3604
   18CHL1  H26A 1326   1.732   0.706   8.566  0.6196  1.2265 -1.7351
   18CHL1  H26B 1327   1.897   0.643   8.519 -0.0454  1.3293  0.4153
   18CHL1  H26C 1328   1.751   0.561   8.452 -3.0078  0.2106  1.0463
   18CHL1   C27 1329   1.904   0.431   8.676 -0.2294 -0.0708  0.0595
   18CHL1  H27A 1330   1.909   0.381   8.577 -1.8342 -1.6638  0.7310
   18CHL1  H27B 1331   1.997   0.486   8.706 -0.9455  1.8284 -0.9976
   18CHL1  H27C 1332   1.876   0.361   8.757 -0.3737 -1.7573 -1.4075
   19CHL1    C3 1333   3.723   4.109  10.298  0.0033  0.5296  0.1832
   19CHL1    H3 1334   3.643   4.183  10.273 -0.7827 -0.8652 -1.6284
   19CHL1    O3 1335   3.733   4.106  10.447  0.3773 -0.6565  0.3377
   19CHL1   H3' 1336   3.797   4.175  10.465  0.6850  0.0797 -2.8664
   19CHL1    C4 1337   3.683   3.975  10.238 -0.0600  0.1897 -0.5887
   19CHL1   H4A 1338   3.761   3.907  10.278 -0.0638 -0.2101 -1.2544
   19CHL1   H4B 1339   3.588   3.946  10.288 -0.1455  0.5327 -0.5459
   19CHL1    C5 1340   3.673   3.974  10.089 -0.8010  0.2034 -0.3448
   19CHL1    C6 1341   3.563   3.936  10.025  0.1675 -0.0407  0.0891
   19CHL1    H6 1342   3.477   3.894  10.080  0.7010  2.3982  3.0245
   19CHL1    C7 1343   3.561   3.938   9.873 -0.2381  0.4273  0.6466
   19CHL1   H7A 1344   3.529   3.840   9.833 -0.3529  0.8801 -0.4159
   19CHL1   H7B 1345   3.481   4.004   9.832 -0.7863 -0.2539  0.5991
   19CHL1    C8 1346   3.693   3.963   9.804 -0.0543  0.4736  0.2589
   19CHL1    H8 1347   3.763   3.877   9.811 -0.8596 -0.1656  0.6201
   19CHL1   C14 1348   3.663   4.000   9.661 -0.0280  0.5780  0.0459
   19CHL1   H14 1349   3.605   4.093   9.643  1.3419  1.5312  0.4094
   19CHL1   C15 1350   3.581   3.894   9.584 -0.1727  0.4461 -0.2135
   19CHL1  H15A 1351   3.623   3.793   9.602 -0.5233  0.3047 -0.1760
   19CHL1  H15B 1352   3.473   3.881   9.607  0.1442  0.8508  1.7483
   19CHL1   C16 1353   3.607   3.942   9.440 -0.4426 -0.5818  0.5113
   19CHL1  H16A 1354   3.637   3.846   9.393  4.8578  0.0195  2.0217
   19CHL1  H16B 1355   3.513   3.987   9.401  0.6812  1.9326  0.5219
   19CHL1   C17 1356   3.726   4.052   9.441  0.4115  0.2126 -0.1987
   19CHL1   H17 1357   3.667   4.146   9.447  0.0523  0.2737 -3.2376
   19CHL1   C13 1358   3.794   4.029   9.579 -0.2398 -0.3434  0.1563
   19CHL1   C18 1359   3.891   3.905   9.575  0.3124  0.1020  0.2792
   19CHL1  H18A 1360   3.841   3.816   9.532  0.9575 -0.1361  0.0010
   19CHL1  H18B 1361   3.986   3.937   9.526  0.7224 -1.4737  0.0112
   19CHL1  H18C 1362   3.907   3.880   9.682 -0.8985  1.0689  0.7111
   19CHL1   C12 1363   3.846   4.159   9.647 -0.3992 -0.4128 -0.4182
   19CHL1  H12A 1364   3.933   4.197   9.590 -0.9742  0.8160 -0.5147
   19CHL1  H12B 1365   3.766   4.236   9.650  1.3537  1.4513  0.1256
   19CHL1   C11 1366   3.884   4.130   9.791 -0.7027  0.0284  0.2968
   19CHL1  H11A 1367   3.966   4.054   9.796 -1.7387 -1.0774  1.2599
   19CHL1  H11B 1368   3.922   4.226   9.831 -0.1575 -0.2339  0.4198
   19CHL1    C9 1369   3.761   4.080   9.873  0.8570  0.4643 -0.0350
   19CHL1    H9 1370   3.690   4.163   9.891  1.7574  0.8913  1.9576
   19CHL1   C10 1371   3.801   4.037  10.019 -0.0379 -0.2798  0.0917
   19CHL1   C19 1372   3.918   3.942  10.026 -0.4318 -0.0523  0.5899
   19CHL1  H19A 1373   4.008   3.988   9.980 -1.6895  1.1839 -0.7254
   19CHL1  H19B 1374   3.946   3.916  10.130  1.9237 -0.5080 -0.0959
   19CHL1  H19C 1375   3.899   3.841   9.983 -1.7886 -0.4188  1.9748
   19CHL1    C1 1376   3.846   4.168  10.091  0.1806 -0.2364 -0.5933
   19CHL1   H1A 1377   3.944   4.201  10.050 -1.4417  2.1432 -2.8035
   19CHL1   H1B 1378   3.772   4.249  10.076  1.1475  0.7952  0.1138
   19CHL1    C2 1379   3.856   4.163  10.243  0.1646 -0.5635 -0.4801
   19CHL1   H2A 1380   3.875   4.262  10.289 -0.0696  0.0773 -1.7236
   19CHL1   H2B 1381   3.937   4.092  10.273 -0.5934 -0.1964  2.7889
   19CHL1   C20 1382   3.825   4.051   9.323  1.0149 -0.0700 -0.2504
   19CHL1   H20 1383   3.896   3.966   9.323  1.6658  0.4417 -1.4743
   19CHL1   C21 1384   3.909   4.178   9.332 -0.7306  0.7887 -0.7156
   19CHL1  H21A 1385   3.861   4.276   9.355  2.3618  3.1280 -3.1974
   19CHL1  H21B 1386   3.969   4.191   9.239  0.0995  1.0309 -0.1521
   19CHL1  H21C 1387   3.989   4.158   9.406 -1.9419 -0.9398  0.1758
   19CHL1   C22 1388   3.731   4.032   9.189  0.5774  0.3941  0.1478
   19CHL1  H22A 1389   3.706   3.924   9.189  0.6969  0.3648 -0.1568
   19CHL1  H22B 1390   3.633   4.084   9.178 -0.6484 -2.0126 -0.9484
   19CHL1   C23 1391   3.804   4.057   9.056 -0.2055  0.1825 -0.0346
   19CHL1  H23A 1392   3.794   4.166   9.036  0.4027  0.0704 -1.0090
   19CHL1  H23B 1393   3.910   4.025   9.056  0.2862  1.7193 -1.1003
   19CHL1   C24 1394   3.730   3.991   8.944 -0.3522 -0.0220 -0.3644
   19CHL1  H24A 1395   3.734   3.881   8.955  1.9110 -0.1227 -1.6233
   19CHL1  H24B 1396   3.622   4.017   8.952 -0.6676 -1.4441  0.3828
   19CHL1   C25 1397   3.789   4.021   8.803 -0.4209 -0.1125 -1.0625
   19CHL1   H25 1398   3.826   4.125   8.813  0.0154 -0.3676  0.1141
   19CHL1   C26 1399   3.914   3.938   8.759  0.1736 -0.0235  0.3843
   19CHL1  H26A 1400   3.885   3.833   8.734  0.7071  0.1008 -0.7954
   19CHL1  H26B 1401   3.963   3.993   8.676  1.1079  0.8747  1.4992
   19CHL1  H26C 1402   3.984   3.940   8.845 -2.8424 -1.3182  3.0922
   19CHL1   C27 1403   3.687   4.015   8.694  0.2034 -0.0043  0.0355
   19CHL1  H27A 1404   3.727   4.054   8.598  0.8133  2.0451  1.0776
   19CHL1  H27B 1405   3.645   3.913   8.682 -0.3027  0.0589  1.1995
   19CHL1  H27C 1406   3.604   4.088   8.699 -1.4579 -1.9188  1.5320
   20CHL1    C3 1407   6.439   4.940  10.363  0.2389  0.1784 -0.2068
   20CHL1    H3 1408   6.373   5.030  10.362  0.9439  0.7816  1.8515
   20CHL1    O3 1409   6.472   4.935  10.502 -0.2840  0.1206  0.3391
   20CHL1   H3' 1410   6.532   4.860  10.511  1.7432  1.5017 -0.9035
   20CHL1    C4 1411   6.382   4.808  10.304  0.4365 -0.3470 -0.1208
   20CHL1   H4A 1412   6.442   4.717  10.322 -0.6819 -1.0347  0.2444
   20CHL1   H4B 1413   6.284   4.786  10.351 -1.5220  1.6123 -2.9421
   20CHL1    C5 1414   6.364   4.817  10.152 -0.2656 -0.2235 -0.1076
   20CHL1    C6 1415   6.246   4.796  10.091 -0.6201  0.2294 -0.0292
   20CHL1    H6 1416   6.161   4.768  10.155  0.9470 -1.4329  1.4523
   20CHL1    C7 1417   6.232   4.779   9.943  0.1074  0.2151  0.0749
   20CHL1   H7A 1418   6.172   4.687   9.924 -1.7392  1.1906  0.9729
   20CHL1   H7B 1419   6.163   4.860   9.913  0.7345  0.5973 -0.3663
   20CHL1    C8 1420   6.364   4.778   9.862  0.4468 -0.0463 -0.1557
   20CHL1    H8 1421   6.405   4.675   9.854 -1.8460 -1.1426  1.0451
   20CHL1   C14 1422   6.338   4.818   9.719 -1.4668  0.1120  0.6450
   20CHL1   H14 1423   6.303   4.923   9.710  0.0924  0.5380 -1.0804
   20CHL1   C15 1424   6.233   4.744   9.638 -0.1629  0.1627 -0.0501
   20CHL1  H15A 1425   6.246   4.634   9.644  0.0666  0.2238  0.6496
   20CHL1  H15B 1426   6.129   4.775   9.663 -0.6001 -1.7168  0.5962
   20CHL1   C16 1427   6.274   4.773   9.494  0.4007  0.2713  1.2185
   20CHL1  H16A 1428   6.277   4.681   9.432 -0.0166  0.7776  0.4164
   20CHL1  H16B 1429   6.200   4.842   9.447 -0.5071 -0.4974  1.5014
   20CHL1   C17 1430   6.407   4.843   9.494 -0.7354  0.3771  0.2499
   20CHL1   H17 1431   6.380   4.950   9.490 -1.3021  0.2616 -3.9236
   20CHL1   C13 1432   6.465   4.820   9.632 -0.6055  0.2340 -1.3111
   20CHL1   C18 1433   6.551   4.694   9.634 -0.0831 -0.2054  0.3810
   20CHL1  H18A 1434   6.506   4.607   9.582  0.0804  0.8748 -1.6716
   20CHL1  H18B 1435   6.641   4.722   9.576 -1.6753  0.5841 -1.8226
   20CHL1  H18C 1436   6.573   4.662   9.738 -2.2614 -0.9285  0.6736
   20CHL1   C12 1437   6.547   4.938   9.687  0.2158 -0.5211  0.1274
   20CHL1  H12A 1438   6.651   4.950   9.647  0.7287 -1.7080  1.0194
   20CHL1  H12B 1439   6.500   5.035   9.661 -1.1257 -1.4679 -1.1328
   20CHL1   C11 1440   6.572   4.923   9.842 -0.5480  0.2083  0.0521
   20CHL1  H11A 1441   6.657   4.852   9.848 -0.0813  0.7980  0.5192
   20CHL1  H11B 1442   6.612   5.022   9.872  0.8653  0.4935 -2.4588
   20CHL1    C9 1443   6.452   4.883   9.926  0.1342  0.5157 -0.2871
   20CHL1    H9 1444   6.388   4.974   9.930  1.6365  1.5928  0.2951
   20CHL1   C10 1445   6.489   4.857  10.076  0.2126 -0.2062  0.2348
   20CHL1   C19 1446   6.577   4.735  10.093 -0.6312  0.2630  0.4259
   20CHL1  H19A 1447   6.539   4.657  10.024 -0.4807  0.6035 -0.0467
   20CHL1  H19B 1448   6.677   4.761  10.051 -0.4248 -1.7116 -0.3601
   20CHL1  H19C 1449   6.595   4.704  10.198  0.7986 -1.2947 -0.2228
   20CHL1    C1 1450   6.562   4.986  10.134  0.9810  0.5771  0.0281
   20CHL1   H1A 1451   6.667   4.986  10.097  0.7772 -0.0128 -0.5541
   20CHL1   H1B 1452   6.508   5.076  10.097  0.0094  0.6347  1.4681
   20CHL1    C2 1453   6.573   4.983  10.288  0.2349  0.1877 -0.3100
   20CHL1   H2A 1454   6.598   5.080  10.336  0.3928  0.4573 -0.9291
   20CHL1   H2B 1455   6.648   4.906  10.315  1.7149  1.8453  0.5261
   20CHL1   C20 1456   6.496   4.812   9.365  0.5304  0.1933  0.9273
   20CHL1   H20 1457   6.526   4.706   9.373  1.0913  0.4136  1.8348
   20CHL1   C21 1458   6.616   4.915   9.364 -0.3609  0.2080 -0.5287
   20CHL1  H21A 1459   6.582   5.020   9.356 -2.2750 -0.2035  1.3356
   20CHL1  H21B 1460   6.684   4.891   9.279 -1.0296  0.4837 -1.1404
   20CHL1  H21C 1461   6.676   4.901   9.457  0.8906 -0.9692 -1.4679
   20CHL1   C22 1462   6.421   4.817   9.230 -0.4539 -0.8890  0.3491
   20CHL1  H22A 1463   6.327   4.758   9.236 -1.7724  0.8179 -1.8776
   20CHL1  H22B 1464   6.394   4.922   9.204 -0.1422 -1.0618 -0.7286
   20CHL1   C23 1465   6.496   4.771   9.101 -0.3141 -0.4013  0.3931
   20CHL1  H23A 1466   6.576   4.844   9.075  1.0578 -2.3629 -1.2279
   20CHL1  H23B 1467   6.532   4.670   9.129  0.6238  0.0311  0.8164
   20CHL1   C24 1468   6.400   4.760   8.987 -0.4776 -0.2855  0.3707
   20CHL1  H24A 1469   6.322   4.685   9.008 -0.7774  0.4004  1.8186
   20CHL1  H24B 1470   6.364   4.865   8.974  0.8336  0.1531  0.0619
   20CHL1   C25 1471   6.460   4.718   8.845 -0.8836 -0.0195 -0.3237
   20CHL1   H25 1472   6.544   4.790   8.830 -0.1802 -0.6285  0.5869
   20CHL1   C26 1473   6.517   4.586   8.837  0.1670  0.1587  0.0770
   20CHL1  H26A 1474   6.549   4.553   8.736 -0.3174 -1.1718  0.3329
   20CHL1  H26B 1475   6.605   4.578   8.904  1.2250  0.6102 -1.2193
   20CHL1  H26C 1476   6.438   4.512   8.862  0.3137  0.0385  0.1910
   20CHL1   C27 1477   6.361   4.747   8.733  0.2454 -0.2198  0.0578
   20CHL1  H27A 1478   6.338   4.856   8.738  0.6853 -0.1117 -0.1973
   20CHL1  H27B 1479   6.391   4.708   8.633 -1.8012  0.5305 -0.9267
   20CHL1  H27C 1480   6.260   4.708   8.756 -1.5730  3.5323 -0.7818
   21CHL1    C3 1481   0.038   0.062  10.200  0.7146 -0.3960  0.5345
   21CHL1    H3 1482   0.144   0.031  10.188  1.0181  1.3505 -2.0924
   21CHL1    O3 1483   0.014   0.105  10.332  0.1884 -0.0222 -0.0269
   21CHL1   H3' 1484  -0.082   0.109  10.339  0.1626 -1.2223  0.5192
   21CHL1    C4 1485   0.023   0.179  10.095  0.0977 -0.4506 -0.3695
   21CHL1   H4A 1486  -0.077   0.221  10.121 -0.9600 -2.5736 -0.8229
   21CHL1   H4B 1487   0.097   0.260  10.114  0.4483 -0.8964  0.1739
   21CHL1    C5 1488   0.031   0.135   9.948 -0.2648 -0.8268 -0.7246
   21CHL1    C6 1489   0.124   0.188   9.862 -0.1509 -0.4089  0.3194
   21CHL1    H6 1490   0.199   0.255   9.906 -1.2360  0.2154  1.2486
   21CHL1    C7 1491   0.149   0.134   9.727  0.5962 -0.1422 -0.2165
   21CHL1   H7A 1492   0.167   0.213   9.651  2.0662 -1.6217 -1.4787
   21CHL1   H7B 1493   0.250   0.087   9.728  0.8705  0.3140  2.9211
   21CHL1    C8 1494   0.042   0.029   9.683 -0.0649 -0.3502 -0.0393
   21CHL1    H8 1495  -0.047   0.088   9.654  0.8029  0.3593 -1.3417
   21CHL1   C14 1496   0.092  -0.045   9.562  0.4171 -0.1221 -0.5768
   21CHL1   H14 1497   0.183  -0.100   9.596  0.1639  1.2248  2.7020
   21CHL1   C15 1498   0.143   0.045   9.441  0.6477 -0.4146 -0.1114
   21CHL1  H15A 1499   0.071   0.125   9.412 -1.0971 -1.6593  0.6777
   21CHL1  H15B 1500   0.243   0.089   9.461  0.5171 -0.6581  1.1406
   21CHL1   C16 1501   0.150  -0.057   9.325  0.3075  0.1456 -0.1519
   21CHL1  H16A 1502   0.104  -0.008   9.237 -0.3726  0.8932  0.5974
   21CHL1  H16B 1503   0.255  -0.072   9.292  0.1674  1.1639 -1.1012
   21CHL1   C17 1504   0.074  -0.189   9.375  0.3085 -0.1071 -0.3455
   21CHL1   H17 1505   0.149  -0.261   9.416  0.8297  1.5964  1.9055
   21CHL1   C13 1506  -0.008  -0.142   9.499 -0.0984  0.0833  0.4413
   21CHL1   C18 1507  -0.137  -0.070   9.454  0.5332 -0.1700  0.3889
   21CHL1  H18A 1508  -0.119   0.007   9.375 -0.3388 -1.1420 -0.8107
   21CHL1  H18B 1509  -0.215  -0.135   9.409 -1.8697  1.3784  2.1104
   21CHL1  H18C 1510  -0.192  -0.022   9.537  0.1441  2.7144 -1.3802
   21CHL1   C12 1511  -0.029  -0.250   9.603  0.6995 -0.2700 -0.6793
   21CHL1  H12A 1512  -0.107  -0.324   9.575 -0.1686  0.1603  0.4662
   21CHL1  H12B 1513   0.065  -0.295   9.641 -0.2257 -0.5936  1.4322
   21CHL1   C11 1514  -0.085  -0.178   9.738  0.5922  0.1125  0.2017
   21CHL1  H11A 1515  -0.187  -0.143   9.712  1.2147  1.7799 -0.1056
   21CHL1  H11B 1516  -0.083  -0.259   9.814  1.7511  0.0381  0.1108
   21CHL1    C9 1517   0.002  -0.065   9.789  1.2015 -0.0156  0.2467
   21CHL1    H9 1518   0.093  -0.120   9.823 -0.3035 -0.9788  2.9742
   21CHL1   C10 1519  -0.054   0.008   9.917  0.1821  0.1128 -0.6571
   21CHL1   C19 1520  -0.206   0.049   9.903  0.1333 -0.3958  0.4269
   21CHL1  H19A 1521  -0.212   0.118   9.816  0.4374  0.8273  1.3427
   21CHL1  H19B 1522  -0.255  -0.048   9.879  0.1671  0.0476 -1.6360
   21CHL1  H19C 1523  -0.245   0.100   9.994 -0.1366 -1.9854  1.2268
   21CHL1    C1 1524  -0.039  -0.101  10.027 -0.0715 -0.3747  0.0125
   21CHL1   H1A 1525  -0.100  -0.193  10.011 -0.8070  0.2521 -0.8623
   21CHL1   H1B 1526   0.064  -0.144  10.028 -0.6920 -1.9459  0.1171
   21CHL1    C2 1527  -0.069  -0.049  10.172  0.1702  0.4781  0.5142
   21CHL1   H2A 1528  -0.059  -0.134  10.242  0.2862  0.7683  0.8531
   21CHL1   H2B 1529  -0.166   0.006  10.177 -0.9543 -1.5163  2.0080
   21CHL1   C20 1530  -0.007  -0.253   9.262  0.1298  0.2708  0.3070
   21CHL1   H20 1531  -0.081  -0.185   9.214 -1.4803 -2.6292 -1.6471
   21CHL1   C21 1532  -0.082  -0.376   9.308 -0.2542 -0.0472 -0.2363
   21CHL1  H21A 1533  -0.132  -0.422   9.220 -0.5425  0.9580 -0.6104
   21CHL1  H21B 1534  -0.168  -0.360   9.376 -0.5381 -0.7454 -0.4138
   21CHL1  H21C 1535  -0.006  -0.439   9.360  1.1556 -0.5181 -2.7154
   21CHL1   C22 1536   0.093  -0.290   9.138  0.3396  0.7494 -0.2853
   21CHL1  H22A 1537   0.158  -0.203   9.116  0.6875  0.6611  0.3560
   21CHL1  H22B 1538   0.160  -0.375   9.162 -1.6982 -0.6311  0.8460
   21CHL1   C23 1539   0.013  -0.307   9.007  0.0708 -0.1578 -0.3630
   21CHL1  H23A 1540  -0.058  -0.392   9.014 -0.9107  0.7484  1.3605
   21CHL1  H23B 1541  -0.057  -0.221   8.997 -0.8131 -0.7106  0.7837
   21CHL1   C24 1542   0.102  -0.309   8.890 -0.3094  0.2444 -0.1169
   21CHL1  H24A 1543   0.156  -0.212   8.894  0.6561 -0.3367  1.8436
   21CHL1  H24B 1544   0.177  -0.390   8.897 -0.8489 -0.1906  0.8757
   21CHL1   C25 1545   0.032  -0.328   8.754  0.1245  0.1889  0.0620
   21CHL1   H25 1546  -0.045  -0.248   8.741 -1.7320 -1.4633  0.3606
   21CHL1   C26 1547   0.142  -0.333   8.652  0.4649 -0.0299 -0.3186
   21CHL1  H26A 1548   0.101  -0.353   8.550  1.6725 -0.1831 -0.7867
   21CHL1  H26B 1549   0.202  -0.240   8.652  0.0123  0.2697  0.2903
   21CHL1  H26C 1550   0.213  -0.416   8.670  1.4725  1.0641  0.9135
   21CHL1   C27 1551  -0.049  -0.459   8.747  0.2986  0.2490 -0.2167
   21CHL1  H27A 1552  -0.106  -0.458   8.652 -3.0222  0.9867  1.6218
   21CHL1  H27B 1553   0.015  -0.549   8.746 -0.4677 -0.3022 -0.3301
   21CHL1  H27C 1554  -0.112  -0.464   8.838  1.9206 -0.7530  0.9018
   22CHL1    C3 1555   5.959   0.789  10.127  0.3248  0.2218  0.7082
   22CHL1    H3 1556   5.855   0.798  10.164 -0.7840 -2.4407 -1.3855
   22CHL1    O3 1557   6.053   0.824  10.228  0.1140 -0.0029  0.1243
   22CHL1   H3' 1558   6.021   0.781  10.307 -1.0397 -1.8361 -1.2560
   22CHL1    C4 1559   5.978   0.640  10.071 -0.1713 -0.0257  0.1375
   22CHL1   H4A 1560   6.084   0.616  10.050 -0.2419 -0.7437  0.5827
   22CHL1   H4B 1561   5.955   0.569  10.154 -2.4666 -0.8223 -1.0899
   22CHL1    C5 1562   5.897   0.606   9.947 -0.8388  0.6917 -0.6392
   22CHL1    C6 1563   5.821   0.494   9.939 -0.8048  0.6580 -0.4418
   22CHL1    H6 1564   5.818   0.421  10.021 -1.1279  1.1787  0.0126
   22CHL1    C7 1565   5.755   0.450   9.812 -0.3393 -0.1196  0.2326
   22CHL1   H7A 1566   5.777   0.343   9.796 -1.9480 -0.5371  0.5762
   22CHL1   H7B 1567   5.646   0.444   9.837 -0.3269 -0.7340  0.1383
   22CHL1    C8 1568   5.787   0.534   9.683 -0.1064 -0.9723  0.1195
   22CHL1    H8 1569   5.886   0.514   9.637  0.2066  1.2327 -0.2867
   22CHL1   C14 1570   5.668   0.519   9.581  0.2826 -0.0754 -0.2176
   22CHL1   H14 1571   5.579   0.557   9.636  0.9295 -1.3743  1.8489
   22CHL1   C15 1572   5.625   0.381   9.534 -0.3707 -0.3904 -0.0752
   22CHL1  H15A 1573   5.706   0.310   9.506 -1.2175 -1.4365  0.0601
   22CHL1  H15B 1574   5.587   0.320   9.619  0.3149  0.7780  1.1141
   22CHL1   C16 1575   5.524   0.405   9.423  0.2365 -0.3561  0.1317
   22CHL1  H16A 1576   5.550   0.333   9.342  0.0682  1.4191 -1.5780
   22CHL1  H16B 1577   5.421   0.379   9.456  0.1807 -0.7288 -0.3279
   22CHL1   C17 1578   5.551   0.563   9.381  0.5693  0.5398 -0.5021
   22CHL1   H17 1579   5.471   0.614   9.440 -0.2672 -2.4391  1.1326
   22CHL1   C13 1580   5.683   0.601   9.452 -0.3518 -0.2384  0.4265
   22CHL1   C18 1581   5.808   0.549   9.373 -0.0526  0.4052 -0.4053
   22CHL1  H18A 1582   5.825   0.615   9.284  1.5261 -0.4090 -0.7431
   22CHL1  H18B 1583   5.898   0.552   9.438  0.5955 -3.1934 -0.9607
   22CHL1  H18C 1584   5.787   0.444   9.343  0.9978  0.2025 -0.4707
   22CHL1   C12 1585   5.703   0.750   9.491  0.4219 -0.1756  0.7044
   22CHL1  H12A 1586   5.736   0.809   9.404  0.5501  1.4201  1.7950
   22CHL1  H12B 1587   5.614   0.790   9.545  0.3342 -0.4929  0.8031
   22CHL1   C11 1588   5.819   0.762   9.592  0.3223 -0.5402 -0.0679
   22CHL1  H11A 1589   5.919   0.740   9.551 -0.1614 -1.3036 -0.8717
   22CHL1  H11B 1590   5.811   0.870   9.614 -0.4311  0.0367 -2.8152
   22CHL1    C9 1591   5.795   0.677   9.718 -0.4134 -0.8248  0.7080
   22CHL1    H9 1592   5.698   0.708   9.763  0.1340  0.8391  0.8207
   22CHL1   C10 1593   5.907   0.702   9.835  0.0298 -0.3186  0.2727
   22CHL1   C19 1594   6.049   0.701   9.771  0.7399 -0.1263 -0.4004
   22CHL1  H19A 1595   6.072   0.775   9.692  0.7471  1.4652  1.0227
   22CHL1  H19B 1596   6.124   0.726   9.849  0.2624 -0.4244  0.1633
   22CHL1  H19C 1597   6.065   0.598   9.733 -1.8992 -0.4373 -0.8861
   22CHL1    C1 1598   5.886   0.841   9.889  0.5073 -0.9195 -0.1158
   22CHL1   H1A 1599   5.907   0.909   9.803  1.1143 -1.9647 -0.8265
   22CHL1   H1B 1600   5.785   0.863   9.929  1.1950  1.1565  0.6249
   22CHL1    C2 1601   5.974   0.885  10.008 -0.1480  0.3284  0.1158
   22CHL1   H2A 1602   5.953   0.990  10.038 -0.1382 -0.0246  1.4347
   22CHL1   H2B 1603   6.079   0.895   9.972  0.0057  1.4729  0.8324
   22CHL1   C20 1604   5.530   0.600   9.225 -0.3529  0.2623 -0.4483
   22CHL1   H20 1605   5.609   0.557   9.160  0.5724  0.9411  0.1928
   22CHL1   C21 1606   5.533   0.755   9.198 -0.3975 -0.1830 -0.4303
   22CHL1  H21A 1607   5.623   0.806   9.237  1.2350 -2.4878 -0.9476
   22CHL1  H21B 1608   5.448   0.804   9.249 -0.8373 -0.2819 -1.0486
   22CHL1  H21C 1609   5.538   0.778   9.089 -1.5425  0.2874 -0.3988
   22CHL1   C22 1610   5.404   0.548   9.157  0.5848  0.0779  0.0224
   22CHL1  H22A 1611   5.419   0.438   9.154 -1.0546 -0.1490 -0.7685
   22CHL1  H22B 1612   5.314   0.584   9.211 -0.0948  0.5777 -1.3920
   22CHL1   C23 1613   5.372   0.586   9.012 -0.2752  0.0174 -0.6293
   22CHL1  H23A 1614   5.350   0.695   9.004 -0.5933  0.1195  1.2440
   22CHL1  H23B 1615   5.462   0.560   8.952  2.1151  0.3182  2.5872
   22CHL1   C24 1616   5.249   0.501   8.969 -0.4448 -0.5625  0.1891
   22CHL1  H24A 1617   5.277   0.394   8.954  1.8187  0.1537 -1.1589
   22CHL1  H24B 1618   5.176   0.513   9.052 -0.4534  0.5644  0.0218
   22CHL1   C25 1619   5.167   0.541   8.836  0.8759  0.3282 -0.4919
   22CHL1   H25 1620   5.237   0.550   8.750 -0.3333 -1.3106 -1.7138
   22CHL1   C26 1621   5.065   0.428   8.803 -0.6984  0.0327 -1.2393
   22CHL1  H26A 1622   4.998   0.420   8.892 -2.7238  1.3476 -2.5791
   22CHL1  H26B 1623   4.989   0.470   8.733 -1.7153 -1.2636 -0.9694
   22CHL1  H26C 1624   5.107   0.333   8.763 -0.6061  0.3112 -1.8030
   22CHL1   C27 1625   5.106   0.677   8.854  0.3306  0.3029  0.1140
   22CHL1  H27A 1626   5.028   0.676   8.933 -0.0813 -1.7093 -0.2647
   22CHL1  H27B 1627   5.177   0.756   8.886  0.8463 -0.5750  1.2007
   22CHL1  H27C 1628   5.056   0.709   8.760  0.7260  0.6037  0.0029
   23CHL1    C3 1629   3.374   3.584  10.153  0.6769  0.1317  0.7426
   23CHL1    H3 1630   3.455   3.640  10.100 -0.7651  2.2637  0.6673
   23CHL1    O3 1631   3.362   3.613  10.287 -0.0962  0.3566 -0.0529
   23CHL1   H3' 1632   3.309   3.546  10.331  1.0701  0.2804  1.3038
   23CHL1    C4 1633   3.244   3.624  10.088  0.0336  0.0249  0.7287
   23CHL1   H4A 1634   3.173   3.554  10.138  0.8367  0.0440  1.9475
   23CHL1   H4B 1635   3.218   3.731  10.100  0.6230  0.4937 -1.7030
   23CHL1    C5 1636   3.229   3.604   9.936 -0.6164  0.0997 -0.3907
   23CHL1    C6 1637   3.219   3.699   9.844  0.6729  0.8156  0.3059
   23CHL1    H6 1638   3.194   3.798   9.885 -2.2216 -0.1421  1.0637
   23CHL1    C7 1639   3.217   3.663   9.697 -0.0781 -1.3104  0.2461
   23CHL1   H7A 1640   3.136   3.726   9.653  0.2349 -1.1065 -0.0443
   23CHL1   H7B 1641   3.317   3.686   9.654 -0.1377 -2.9751 -0.8835
   23CHL1    C8 1642   3.193   3.516   9.654  0.2827  0.0155  0.9549
   23CHL1    H8 1643   3.091   3.476   9.666  0.3911 -0.2226  1.0946
   23CHL1   C14 1644   3.220   3.499   9.507 -0.6854  0.0589 -0.7241
   23CHL1   H14 1645   3.323   3.539   9.498 -0.2220  0.2572  3.5736
   23CHL1   C15 1646   3.142   3.577   9.399 -0.3545 -0.1867 -1.0415
   23CHL1  H15A 1647   3.033   3.579   9.421 -0.6250  0.6113 -2.2821
   23CHL1  H15B 1648   3.169   3.685   9.391 -0.2763 -0.1328 -0.1307
   23CHL1   C16 1649   3.172   3.511   9.262  0.5356  0.1847  0.0084
   23CHL1  H16A 1650   3.072   3.489   9.220 -0.9038  1.7694  2.4139
   23CHL1  H16B 1651   3.234   3.581   9.201  0.2769 -0.0007 -0.4702
   23CHL1   C17 1652   3.251   3.378   9.293 -0.0677 -0.9689 -0.2000
   23CHL1   H17 1653   3.358   3.407   9.295 -0.2937 -0.0421 -0.9626
   23CHL1   C13 1654   3.222   3.357   9.454 -0.3350  0.5580  0.0412
   23CHL1   C18 1655   3.086   3.293   9.457 -0.0315  0.4613 -0.4021
   23CHL1  H18A 1656   3.084   3.187   9.425 -0.6853  0.0076  1.0670
   23CHL1  H18B 1657   3.053   3.296   9.563 -1.4179 -1.8333 -0.7043
   23CHL1  H18C 1658   3.009   3.353   9.403  0.8728  1.2971 -0.7970
   23CHL1   C12 1659   3.321   3.270   9.540 -0.6025 -0.7414  0.4980
   23CHL1  H12A 1660   3.309   3.165   9.508  0.9020 -1.2411  1.4326
   23CHL1  H12B 1661   3.426   3.300   9.520 -1.0238 -0.0614 -0.7575
   23CHL1   C11 1662   3.293   3.284   9.689  0.0803 -0.4933 -0.0853
   23CHL1  H11A 1663   3.204   3.225   9.719  0.0150 -0.0232  0.6664
   23CHL1  H11B 1664   3.378   3.229   9.734 -0.8873 -0.9077  1.2802
   23CHL1    C9 1665   3.286   3.431   9.739 -0.3826  0.0041 -1.5283
   23CHL1    H9 1666   3.390   3.466   9.730 -0.3139  0.4972  0.5824
   23CHL1   C10 1667   3.259   3.455   9.896  0.0965 -0.1298 -0.7621
   23CHL1   C19 1668   3.137   3.367   9.934  0.3997  0.0322 -0.4532
   23CHL1  H19A 1669   3.165   3.259   9.927 -3.4782 -1.1269 -0.2732
   23CHL1  H19B 1670   3.108   3.385  10.040 -0.7990 -1.3740 -0.5093
   23CHL1  H19C 1671   3.063   3.379   9.852  1.6409  0.5894 -1.5339
   23CHL1    C1 1672   3.381   3.399   9.971 -0.0041 -0.2918 -0.3525
   23CHL1   H1A 1673   3.394   3.289   9.961 -1.1627 -0.7445  2.2310
   23CHL1   H1B 1674   3.473   3.443   9.926 -1.4097  2.2311 -0.9449
   23CHL1    C2 1675   3.394   3.438  10.123 -0.9366 -0.9700  0.0009
   23CHL1   H2A 1676   3.495   3.406  10.155 -1.0148 -0.4971  0.7389
   23CHL1   H2B 1677   3.325   3.379  10.186  1.4596 -2.6515  1.1795
   23CHL1   C20 1678   3.232   3.271   9.183  0.8710  0.4726 -0.3858
   23CHL1   H20 1679   3.126   3.239   9.179  0.9717  0.0918 -0.0985
   23CHL1   C21 1680   3.307   3.147   9.235  0.5600 -0.0076 -0.0190
   23CHL1  H21A 1681   3.265   3.112   9.331 -0.6243 -0.9063 -0.8380
   23CHL1  H21B 1682   3.417   3.163   9.243  0.6441  0.2975 -1.4853
   23CHL1  H21C 1683   3.311   3.056   9.172  2.7422 -0.7485  1.0859
   23CHL1   C22 1684   3.272   3.319   9.039  0.6467  0.2276 -0.5022
   23CHL1  H22A 1685   3.214   3.411   9.016  1.4156  1.1305  0.9967
   23CHL1  H22B 1686   3.376   3.357   9.050 -0.8901  4.5524  2.0056
   23CHL1   C23 1687   3.244   3.212   8.926 -0.3700  0.0928 -0.1959
   23CHL1  H23A 1688   3.315   3.129   8.943 -0.7702  0.1519  2.0841
   23CHL1  H23B 1689   3.138   3.181   8.937 -1.0280  2.1519 -0.2725
   23CHL1   C24 1690   3.262   3.266   8.783  0.8018 -0.6427 -0.3197
   23CHL1  H24A 1691   3.204   3.355   8.750 -1.2520 -2.0113 -0.5775
   23CHL1  H24B 1692   3.367   3.298   8.765  1.0301 -0.5102  1.0940
   23CHL1   C25 1693   3.217   3.160   8.683 -0.7926 -0.3448  0.1765
   23CHL1   H25 1694   3.264   3.069   8.727  1.2692  0.8664  0.5900
   23CHL1   C26 1695   3.066   3.133   8.675  0.4974 -0.5132 -0.3250
   23CHL1  H26A 1696   3.024   3.093   8.769 -0.2576 -0.4867 -0.6455
   23CHL1  H26B 1697   3.022   3.232   8.652 -0.4963 -0.7574  0.4385
   23CHL1  H26C 1698   3.052   3.055   8.597 -0.5744  0.9511 -1.6666
   23CHL1   C27 1699   3.274   3.183   8.546 -0.6201 -0.2487 -0.2247
   23CHL1  H27A 1700   3.382   3.157   8.547 -0.7497 -0.7893  0.2680
   23CHL1  H27B 1701   3.240   3.104   8.476 -0.6351  0.4882 -1.0759
   23CHL1  H27C 1702   3.276   3.287   8.505  0.5853 -0.1061  0.1326
   24CHL1    C3 1703   5.417   3.829  10.109  0.0141  0.4974  0.3325
   24CHL1    H3 1704   5.467   3.927  10.089 -1.2842  1.2223  0.5488
   24CHL1    O3 1705   5.426   3.791  10.249  0.5429  0.1228  0.3968
   24CHL1   H3' 1706   5.382   3.705  10.249 -1.9458  1.3070  0.2925
   24CHL1    C4 1707   5.270   3.846  10.076  0.6573  0.1840 -0.5493
   24CHL1   H4A 1708   5.201   3.769  10.117 -0.1109  0.4609 -1.3010
   24CHL1   H4B 1709   5.250   3.937  10.138  0.2974 -1.4358  1.8528
   24CHL1    C5 1710   5.247   3.861   9.928  0.0377 -0.0912  0.8623
   24CHL1    C6 1711   5.172   3.962   9.879  0.4886 -1.0478  0.1127
   24CHL1    H6 1712   5.112   4.022   9.949  0.6050  0.0210 -0.6879
   24CHL1    C7 1713   5.143   3.993   9.737 -0.3177 -0.7085  0.6852
   24CHL1   H7A 1714   5.033   3.988   9.720 -0.4194  1.0502  0.6614
   24CHL1   H7B 1715   5.180   4.093   9.708  0.0845 -1.2771 -0.8410
   24CHL1    C8 1716   5.200   3.888   9.635 -0.4231  0.3735  0.3260
   24CHL1    H8 1717   5.121   3.809   9.631  1.1435 -1.2347 -0.7107
   24CHL1   C14 1718   5.217   3.947   9.493 -0.2606 -0.4037 -0.4042
   24CHL1   H14 1719   5.282   4.037   9.501 -0.6399  0.0899 -2.3486
   24CHL1   C15 1720   5.089   4.004   9.420 -0.0563 -0.1954 -0.0293
   24CHL1  H15A 1721   5.011   3.926   9.431  1.0934 -1.3111  0.5361
   24CHL1  H15B 1722   5.050   4.101   9.457  1.9402  0.5158  0.3803
   24CHL1   C16 1723   5.140   4.019   9.271 -0.0383  0.3234  0.3799
   24CHL1  H16A 1724   5.054   3.989   9.207  1.3456 -1.1742 -0.8377
   24CHL1  H16B 1725   5.162   4.125   9.245 -0.5766 -0.1073 -2.1196
   24CHL1   C17 1726   5.270   3.937   9.267  0.4383 -0.1641 -0.3172
   24CHL1   H17 1727   5.349   4.012   9.288 -0.1447  0.6455 -0.9538
   24CHL1   C13 1728   5.273   3.853   9.389 -0.0931  0.6302 -0.1485
   24CHL1   C18 1729   5.181   3.727   9.357  0.0452 -0.3173 -0.1398
   24CHL1  H18A 1730   5.239   3.654   9.297  0.1889 -0.4819  0.1947
   24CHL1  H18B 1731   5.143   3.672   9.446 -0.3398 -0.5096 -0.4176
   24CHL1  H18C 1732   5.087   3.752   9.303 -1.7259 -2.7955  1.5444
   24CHL1   C12 1733   5.410   3.802   9.437 -0.1792  0.3334 -0.1305
   24CHL1  H12A 1734   5.462   3.731   9.369 -1.3521  0.0726 -0.7717
   24CHL1  H12B 1735   5.474   3.893   9.431  1.7288 -1.0000 -0.8043
   24CHL1   C11 1736   5.392   3.736   9.579  0.3481  0.0307 -0.4320
   24CHL1  H11A 1737   5.328   3.647   9.561  0.2278  0.1904 -0.8135
   24CHL1  H11B 1738   5.488   3.695   9.615 -0.0792 -0.1501  0.5208
   24CHL1    C9 1739   5.335   3.826   9.685  0.5374 -0.8723 -0.0691
   24CHL1    H9 1740   5.398   3.916   9.700  1.2726 -1.3306 -0.3449
   24CHL1   C10 1741   5.325   3.770   9.827 -0.1982  0.3929  0.0883
   24CHL1   C19 1742   5.257   3.629   9.825  0.2839 -0.0343 -0.2547
   24CHL1  H19A 1743   5.243   3.592   9.929  0.1600  1.1496  0.1565
   24CHL1  H19B 1744   5.157   3.640   9.779  0.3833 -1.2926 -0.8190
   24CHL1  H19C 1745   5.317   3.554   9.769 -0.5958  0.8654 -2.4814
   24CHL1    C1 1746   5.469   3.757   9.876  0.5376  0.2627  0.1627
   24CHL1   H1A 1747   5.515   3.678   9.813  1.3537 -1.0216  2.2662
   24CHL1   H1B 1748   5.524   3.853   9.858  0.9633  0.2019  1.0751
   24CHL1    C2 1749   5.473   3.714  10.018 -0.3339 -0.0147 -0.1802
   24CHL1   H2A 1750   5.575   3.688  10.051  0.1530 -0.6845 -2.0685
   24CHL1   H2B 1751   5.425   3.615  10.034 -0.5912  0.0747 -0.3843
   24CHL1   C20 1752   5.310   3.875   9.131  0.3743 -0.6313  0.7506
   24CHL1   H20 1753   5.315   3.765   9.143  0.5906 -0.5501  1.4482
   24CHL1   C21 1754   5.457   3.921   9.092  0.9526 -0.0420  0.3532
   24CHL1  H21A 1755   5.481   3.858   9.004 -3.2632 -0.6512 -0.5772
   24CHL1  H21B 1756   5.519   3.900   9.182  1.0375  1.9466  0.7974
   24CHL1  H21C 1757   5.448   4.029   9.067  0.1654  0.1633  1.4221
   24CHL1   C22 1758   5.204   3.897   9.014 -0.0023  0.5096  0.4130
   24CHL1  H22A 1759   5.108   3.858   9.053  0.5606  0.3506  1.6753
   24CHL1  H22B 1760   5.191   4.006   8.998 -0.3193  0.5115  0.6824
   24CHL1   C23 1761   5.254   3.833   8.881 -0.2374  0.1707  0.3347
   24CHL1  H23A 1762   5.347   3.883   8.846 -0.1997  0.6604  1.1243
   24CHL1  H23B 1763   5.268   3.724   8.899 -2.3901 -0.1004  0.6157
   24CHL1   C24 1764   5.154   3.848   8.764 -0.2825  0.5548 -0.6584
   24CHL1  H24A 1765   5.066   3.783   8.786  1.2659 -1.1806  0.8447
   24CHL1  H24B 1766   5.123   3.954   8.751 -0.2496  1.0843  2.5669
   24CHL1   C25 1767   5.205   3.783   8.629  0.1326  0.0299 -0.5428
   24CHL1   H25 1768   5.284   3.848   8.586  0.2067  1.4642  1.6325
   24CHL1   C26 1769   5.255   3.639   8.652  0.2873 -0.2381 -0.0490
   24CHL1  H26A 1770   5.181   3.590   8.719  1.0701  0.5736  1.4728
   24CHL1  H26B 1771   5.266   3.583   8.557  1.2431  0.5140 -0.3957
   24CHL1  H26C 1772   5.353   3.631   8.703  1.6570  0.5809 -2.4025
   24CHL1   C27 1773   5.081   3.779   8.536  0.1459 -0.6042  0.5727
   24CHL1  H27A 1774   5.120   3.731   8.443  1.8217  0.4202  0.7135
   24CHL1  H27B 1775   5.011   3.708   8.584 -1.6681  0.0250 -1.0191
   24CHL1  H27C 1776   5.041   3.879   8.510 -1.9488 -1.6248 -0.3453
   25CHL1    C3 1777   5.967   5.001  10.585 -0.7294 -0.7186 -0.9397
   25CHL1    H3 1778   5.978   5.110  10.598 -0.0720 -1.0625  2.1297
   25CHL1    O3 1779   6.022   4.942  10.701 -0.3318 -0.0215  0.0803
   25CHL1   H3' 1780   5.957   4.878  10.732 -2.5406  1.1314 -1.9011
   25CHL1    C4 1781   5.811   4.973  10.575 -0.2097  0.8644 -0.1698
   25CHL1   H4A 1782   5.795   4.863  10.577  1.2845  0.5288  4.0672
   25CHL1   H4B 1783   5.768   5.014  10.669  1.3165  1.0008  0.5004
   25CHL1    C5 1784   5.746   5.040  10.458  1.0224  0.5201 -0.4294
   25CHL1    C6 1785   5.644   5.125  10.470  0.4613  0.7023  0.4220
   25CHL1    H6 1786   5.611   5.136  10.575 -1.4625 -1.8002  0.1903
   25CHL1    C7 1787   5.569   5.196  10.364  0.3089  0.2762  0.3090
   25CHL1   H7A 1788   5.459   5.189  10.371  0.1453  1.6739 -0.5014
   25CHL1   H7B 1789   5.599   5.303  10.366  1.7605 -0.0742 -0.7121
   25CHL1    C8 1790   5.609   5.140  10.229  0.3936  0.1530  0.7094
   25CHL1    H8 1791   5.554   5.046  10.209  1.0751  0.2400 -1.9461
   25CHL1   C14 1792   5.566   5.243  10.115 -0.2206 -0.1096  0.5750
   25CHL1   H14 1793   5.628   5.332  10.138  2.7623 -1.9896  0.4593
   25CHL1   C15 1794   5.418   5.284  10.112  0.0834  0.1591  0.0707
   25CHL1  H15A 1795   5.360   5.190  10.124 -1.8263  1.4908  2.1456
   25CHL1  H15B 1796   5.402   5.349  10.201 -0.9921 -1.6443  1.2824
   25CHL1   C16 1797   5.410   5.354   9.979 -0.5771 -0.0187  0.7447
   25CHL1  H16A 1798   5.329   5.310   9.917  0.5016 -3.9204  1.8112
   25CHL1  H16B 1799   5.402   5.463  10.000  0.8152  0.2801 -0.1227
   25CHL1   C17 1800   5.546   5.322   9.904  0.5241  0.1083  0.1772
   25CHL1   H17 1801   5.618   5.403   9.930  0.9529 -0.4157  0.6310
   25CHL1   C13 1802   5.599   5.199   9.968 -0.4550 -0.1087 -0.6184
   25CHL1   C18 1803   5.519   5.075   9.929 -0.4666  0.1067  0.0239
   25CHL1  H18A 1804   5.410   5.070   9.950 -0.1822 -2.1018  1.2030
   25CHL1  H18B 1805   5.546   5.068   9.821 -1.5570  2.3874 -0.4723
   25CHL1  H18C 1806   5.575   4.988   9.970  0.0943  0.9956  1.2091
   25CHL1   C12 1807   5.757   5.180   9.970  0.0025  0.2640  0.5827
   25CHL1  H12A 1808   5.796   5.141   9.874  1.8370  1.1437  0.9185
   25CHL1  H12B 1809   5.817   5.270   9.997  1.6350  0.4276 -3.0375
   25CHL1   C11 1810   5.809   5.074  10.069 -0.2501 -0.0563 -0.3711
   25CHL1  H11A 1811   5.773   4.979  10.025 -0.6997 -0.9699  1.8481
   25CHL1  H11B 1812   5.920   5.075  10.069 -0.2526  0.4936 -0.7585
   25CHL1    C9 1813   5.759   5.106  10.212 -0.5428 -0.0501  0.0345
   25CHL1    H9 1814   5.811   5.200  10.239  0.2064 -0.8531  1.5512
   25CHL1   C10 1815   5.811   5.007  10.320  0.1620 -0.5534 -0.7688
   25CHL1   C19 1816   5.775   4.860  10.283  0.1812 -0.6016 -0.4808
   25CHL1  H19A 1817   5.665   4.842  10.286  0.0701  0.1733  0.4689
   25CHL1  H19B 1818   5.810   4.834  10.180  0.4982 -1.8285 -0.0821
   25CHL1  H19C 1819   5.825   4.792  10.356  0.7432  0.3022 -0.0059
   25CHL1    C1 1820   5.965   5.011  10.337  0.2721 -0.9524 -0.6545
   25CHL1   H1A 1821   6.012   4.971  10.245  1.0401 -1.6283  0.0177
   25CHL1   H1B 1822   5.990   5.118  10.356 -1.9010 -0.6997  1.2920
   25CHL1    C2 1823   6.033   4.943  10.462 -0.0311 -0.0839  0.3210
   25CHL1   H2A 1824   6.140   4.972  10.464 -1.2004  5.0298  0.6912
   25CHL1   H2B 1825   6.020   4.833  10.456 -1.5550  0.0593  0.5849
   25CHL1   C20 1826   5.519   5.323   9.748 -0.3352 -0.2095 -0.1075
   25CHL1   H20 1827   5.470   5.227   9.719  1.0875 -0.9411 -0.1921
   25CHL1   C21 1828   5.651   5.312   9.671 -0.2255  0.1606  0.6760
   25CHL1  H21A 1829   5.708   5.401   9.703 -1.7586  2.4061 -2.3177
   25CHL1  H21B 1830   5.643   5.316   9.560  0.9821 -0.7370  0.5313
   25CHL1  H21C 1831   5.721   5.229   9.695  0.8226  0.0477 -2.3138
   25CHL1   C22 1832   5.447   5.452   9.694 -0.1526  0.5423 -0.0286
   25CHL1  H22A 1833   5.339   5.434   9.713 -0.7274  1.6012 -1.9667
   25CHL1  H22B 1834   5.491   5.531   9.759  0.6129 -0.4652  0.7158
   25CHL1   C23 1835   5.468   5.493   9.546  0.6914  0.4843  0.6212
   25CHL1  H23A 1836   5.574   5.524   9.536  1.0412 -1.2800 -2.0752
   25CHL1  H23B 1837   5.447   5.407   9.480 -1.1103  0.5044  1.1269
   25CHL1   C24 1838   5.376   5.617   9.498 -0.7165  0.2799  0.3233
   25CHL1  H24A 1839   5.272   5.578   9.491 -0.3463 -0.8118  0.7369
   25CHL1  H24B 1840   5.381   5.702   9.570 -0.1296 -0.9687  1.8309
   25CHL1   C25 1841   5.419   5.666   9.357 -0.1216 -0.0597  0.2240
   25CHL1   H25 1842   5.436   5.585   9.283  0.1009  2.9183 -3.2672
   25CHL1   C26 1843   5.321   5.765   9.309 -0.2903  0.1905 -0.3978
   25CHL1  H26A 1844   5.311   5.853   9.377  3.2563  0.8410 -0.5591
   25CHL1  H26B 1845   5.372   5.812   9.222  1.9835 -0.7454  0.3755
   25CHL1  H26C 1846   5.233   5.703   9.281  0.0111  0.2015 -1.3942
   25CHL1   C27 1847   5.555   5.738   9.359  0.4471 -0.4015 -0.6145
   25CHL1  H27A 1848   5.548   5.833   9.417 -1.2092 -0.8626 -0.0064
   25CHL1  H27B 1849   5.636   5.673   9.399 -0.2508 -0.7775  0.2003
   25CHL1  H27C 1850   5.578   5.763   9.253 -0.9472  0.6103 -0.7093
   26CHL1    C3 1851   0.930   1.061  10.156 -0.1502 -0.0319 -0.0785
   26CHL1    H3 1852   1.030   1.033  10.115 -0.5303 -0.3232 -0.8244
   26CHL1    O3 1853   0.942   1.103  10.289 -0.6487  0.1639 -0.4823
   26CHL1   H3' 1854   0.855   1.134  10.315  1.5904  4.3294  3.6343
   26CHL1    C4 1855   0.856   1.176  10.084 -0.5019 -0.2369 -0.3188
   26CHL1   H4A 1856   0.763   1.201  10.139  0.6238  1.3608  0.9532
   26CHL1   H4B 1857   0.933   1.256  10.099 -1.0843  0.2191  0.3175
   26CHL1    C5 1858   0.840   1.145   9.933  0.2835 -0.4199 -0.3295
   26CHL1    C6 1859   0.897   1.219   9.838  0.0319  0.9008 -0.0730
   26CHL1    H6 1860   0.959   1.302   9.875  1.5129 -0.7065  1.1919
   26CHL1    C7 1861   0.884   1.191   9.691 -0.1450  0.2931 -0.5314
   26CHL1   H7A 1862   0.876   1.286   9.634  0.9440 -0.9304 -2.8483
   26CHL1   H7B 1863   0.984   1.154   9.660 -1.0202 -1.1316 -1.7537
   26CHL1    C8 1864   0.778   1.090   9.654  0.2970 -0.6222  0.7116
   26CHL1    H8 1865   0.682   1.146   9.659  0.4899 -0.3456  1.5579
   26CHL1   C14 1866   0.792   1.047   9.512  0.2752  0.9759 -1.0784
   26CHL1   H14 1867   0.890   0.996   9.514  0.7306  1.8473  0.5370
   26CHL1   C15 1868   0.802   1.161   9.408 -0.0293  0.1308  0.4431
   26CHL1  H15A 1869   0.716   1.231   9.420 -0.2593 -0.4035  2.2020
   26CHL1  H15B 1870   0.894   1.222   9.399  0.2189 -0.1766  0.8680
   26CHL1   C16 1871   0.777   1.086   9.274  0.1552  0.0994  0.3390
   26CHL1  H16A 1872   0.697   1.130   9.211 -1.6333 -2.5637  0.5886
   26CHL1  H16B 1873   0.855   1.072   9.195  0.9334  0.2846  1.0589
   26CHL1   C17 1874   0.740   0.941   9.320  0.5719 -0.4235  0.5237
   26CHL1   H17 1875   0.832   0.880   9.311  0.9682  0.1860  0.4299
   26CHL1   C13 1876   0.695   0.949   9.465  0.0974 -0.4403 -0.2501
   26CHL1   C18 1877   0.554   1.002   9.471  0.9677 -0.5751  0.6526
   26CHL1  H18A 1878   0.528   1.038   9.573 -2.6338 -0.5557 -0.1249
   26CHL1  H18B 1879   0.549   1.100   9.419  0.8569  0.6985  2.9259
   26CHL1  H18C 1880   0.489   0.919   9.436  3.0287 -1.3361 -1.6704
   26CHL1   C12 1881   0.706   0.820   9.549  0.0967 -0.1145 -0.4409
   26CHL1  H12A 1882   0.624   0.757   9.508 -0.6581 -1.1121  2.3755
   26CHL1  H12B 1883   0.806   0.773   9.541 -0.3014 -1.7111  2.5725
   26CHL1   C11 1884   0.675   0.856   9.695  0.0063 -0.5684  0.1922
   26CHL1  H11A 1885   0.571   0.893   9.705  0.1332 -0.6867  2.5314
   26CHL1  H11B 1886   0.677   0.769   9.763 -2.1958 -2.0212 -1.4808
   26CHL1    C9 1887   0.780   0.972   9.749 -0.0649 -0.5776  0.4095
   26CHL1    H9 1888   0.882   0.928   9.747 -0.8633 -2.7167  2.1970
   26CHL1   C10 1889   0.760   1.016   9.902 -0.2136 -0.3053  0.1034
   26CHL1   C19 1890   0.616   1.052   9.927 -0.4529  0.6586 -0.0069
   26CHL1  H19A 1891   0.553   0.966   9.896  0.4219  0.3725 -1.0284
   26CHL1  H19B 1892   0.607   1.077  10.035  1.8801  1.5799  0.0231
   26CHL1  H19C 1893   0.587   1.142   9.869 -1.3019  1.1423  1.1253
   26CHL1    C1 1894   0.824   0.901   9.991 -0.3665  0.3831 -0.4257
   26CHL1   H1A 1895   0.755   0.814   9.986 -1.0090  0.9323 -1.4628
   26CHL1   H1B 1896   0.915   0.869   9.936  0.6218  1.9412  0.2351
   26CHL1    C2 1897   0.847   0.937  10.147  0.3163 -0.4482  0.0609
   26CHL1   H2A 1898   0.893   0.849  10.198 -1.6486 -0.5283  1.8061
   26CHL1   H2B 1899   0.750   0.959  10.197  1.5387  1.1899  1.8637
   26CHL1   C20 1900   0.648   0.868   9.215 -0.6891  0.5175  0.1277
   26CHL1   H20 1901   0.542   0.900   9.221 -0.4862  1.5432 -1.2384
   26CHL1   C21 1902   0.657   0.711   9.236 -0.0663 -0.5901  0.2271
   26CHL1  H21A 1903   0.759   0.667   9.230  0.1477 -0.0603 -0.1022
   26CHL1  H21B 1904   0.600   0.682   9.145  1.6743 -1.9237 -0.4959
   26CHL1  H21C 1905   0.596   0.672   9.321 -1.2358  0.8710  0.1052
   26CHL1   C22 1906   0.679   0.897   9.071  0.0060  0.3420  0.6302
   26CHL1  H22A 1907   0.589   0.855   9.020  0.6793 -0.3679 -0.0037
   26CHL1  H22B 1908   0.675   1.004   9.041  0.4091  0.0028 -0.7299
   26CHL1   C23 1909   0.811   0.829   9.014  0.6570  0.1196 -0.2431
   26CHL1  H23A 1910   0.868   0.780   9.096 -0.5131 -1.8170 -0.5301
   26CHL1  H23B 1911   0.773   0.744   8.954 -0.8993 -0.3220  1.3077
   26CHL1   C24 1912   0.895   0.920   8.929 -0.4478 -0.0520  0.1672
   26CHL1  H24A 1913   0.818   0.967   8.863  0.6070  1.1713 -0.2497
   26CHL1  H24B 1914   0.939   1.001   8.990 -0.5457  1.1736 -1.3098
   26CHL1   C25 1915   1.002   0.851   8.851 -0.4330 -0.3039 -0.1456
   26CHL1   H25 1916   0.961   0.763   8.797 -0.0330 -1.0879  0.7850
   26CHL1   C26 1917   1.055   0.944   8.735  0.2292 -0.0094 -0.1768
   26CHL1  H26A 1918   1.113   1.027   8.781 -0.4972  0.9501 -0.9591
   26CHL1  H26B 1919   1.123   0.881   8.673 -0.5755  1.4048 -2.6297
   26CHL1  H26C 1920   0.979   0.978   8.662 -0.6021 -1.3811  0.0157
   26CHL1   C27 1921   1.109   0.806   8.950 -0.2901 -0.6327  0.6736
   26CHL1  H27A 1922   1.153   0.711   8.913  0.1352 -1.3291  2.8428
   26CHL1  H27B 1923   1.189   0.883   8.942  0.7264 -1.7895 -0.8361
   26CHL1  H27C 1924   1.075   0.802   9.055  0.6602 -0.7118  0.9864
   27CHL1    C3 1925   6.527   6.178  10.312  0.5142 -0.0739 -0.4732
   27CHL1    H3 1926   6.582   6.254  10.253 -1.3266  1.0282 -0.8453
   27CHL1    O3 1927   6.532   6.207  10.454 -0.4884 -0.7193 -0.6012
   27CHL1   H3' 1928   6.455   6.166  10.494 -0.6034 -0.8314 -0.9321
   27CHL1    C4 1929   6.382   6.172  10.253 -0.2999 -0.8530  0.1378
   27CHL1   H4A 1930   6.324   6.092  10.304  0.3423 -1.0062  0.6427
   27CHL1   H4B 1931   6.344   6.275  10.270  0.6284 -0.6427  1.0762
   27CHL1    C5 1932   6.383   6.144  10.104  0.2548  0.6978  1.0271
   27CHL1    C6 1933   6.334   6.233  10.017 -0.3750 -0.1814 -0.7907
   27CHL1    H6 1934   6.292   6.328  10.056 -0.3932 -0.0102 -1.2252
   27CHL1    C7 1935   6.344   6.220   9.865 -0.1944  0.8835  0.4083
   27CHL1   H7A 1936   6.245   6.243   9.820 -0.1215 -0.4844 -0.4977
   27CHL1   H7B 1937   6.417   6.295   9.828  1.1018  0.1944  1.4586
   27CHL1    C8 1938   6.397   6.075   9.820  0.2773 -0.7434  0.4648
   27CHL1    H8 1939   6.303   6.017   9.810 -0.0821 -0.3355  1.3367
   27CHL1   C14 1940   6.464   6.090   9.678 -0.1239  0.6409 -0.2114
   27CHL1   H14 1941   6.561   6.140   9.697  0.7463 -1.4101  0.9314
   27CHL1   C15 1942   6.392   6.177   9.579  0.9686 -0.6576 -0.1076
   27CHL1  H15A 1943   6.283   6.161   9.587  0.1766  4.0141  1.4918
   27CHL1  H15B 1944   6.419   6.281   9.605  1.8167 -0.9774  0.3435
   27CHL1   C16 1945   6.431   6.128   9.441  0.9696 -0.0010 -1.1007
   27CHL1  H16A 1946   6.336   6.090   9.398 -0.5047  2.3958 -0.1892
   27CHL1  H16B 1947   6.462   6.212   9.375 -0.5421  1.7364  0.3031
   27CHL1   C17 1948   6.526   6.017   9.471 -0.4625  0.2457  1.4746
   27CHL1   H17 1949   6.622   6.073   9.468 -0.7715  0.7812  1.4268
   27CHL1   C13 1950   6.494   5.962   9.613 -0.3992  0.9411  0.1457
   27CHL1   C18 1951   6.372   5.869   9.607 -0.1771  0.3257 -0.1350
   27CHL1  H18A 1952   6.353   5.823   9.706  1.1128 -0.5239 -0.2625
   27CHL1  H18B 1953   6.290   5.926   9.559  0.6112  2.4100  0.9083
   27CHL1  H18C 1954   6.388   5.785   9.536 -0.9112  0.5413 -0.5783
   27CHL1   C12 1955   6.604   5.899   9.695  0.0954  0.2158  0.5561
   27CHL1  H12A 1956   6.640   5.801   9.657 -0.0510  0.7957 -1.1929
   27CHL1  H12B 1957   6.692   5.967   9.685  0.8160 -0.8172 -0.3585
   27CHL1   C11 1958   6.570   5.891   9.853  0.0375  0.4626  0.2211
   27CHL1  H11A 1959   6.495   5.810   9.863 -0.0464  0.3796 -0.9269
   27CHL1  H11B 1960   6.658   5.849   9.906 -0.2773 -0.3859  0.0957
   27CHL1    C9 1961   6.510   6.023   9.910 -1.1973  0.5157 -0.1649
   27CHL1    H9 1962   6.597   6.093   9.901 -0.1661 -0.3138  2.4127
   27CHL1   C10 1963   6.466   6.017  10.056 -0.3708 -0.0396 -0.0016
   27CHL1   C19 1964   6.372   5.897  10.086 -0.3920  0.1111  0.8291
   27CHL1  H19A 1965   6.335   5.906  10.191 -1.7763  0.0944  0.3657
   27CHL1  H19B 1966   6.282   5.916  10.024  0.7662  1.8307 -0.4085
   27CHL1  H19C 1967   6.407   5.799  10.048  0.4512  1.0230 -0.8785
   27CHL1    C1 1968   6.597   6.004  10.138 -0.0634 -0.3206  0.1641
   27CHL1   H1A 1969   6.617   5.895  10.132  0.4903 -0.2026 -0.1983
   27CHL1   H1B 1970   6.667   6.072  10.086 -1.3487 -0.4297 -1.8232
   27CHL1    C2 1971   6.587   6.035  10.288  0.3328 -0.6454  0.0646
   27CHL1   H2A 1972   6.688   6.030  10.334  0.1908  1.6607  0.7736
   27CHL1   H2B 1973   6.520   5.953  10.322  0.1965  0.0433  1.5576
   27CHL1   C20 1974   6.544   5.909   9.353 -0.9121  0.6097  0.0201
   27CHL1   H20 1975   6.448   5.859   9.329 -0.4280 -0.0284 -0.6439
   27CHL1   C21 1976   6.665   5.810   9.382  0.1436  0.0047  0.0452
   27CHL1  H21A 1977   6.660   5.747   9.472  1.5307 -1.0474 -0.5781
   27CHL1  H21B 1978   6.760   5.867   9.389 -0.2651  0.7312 -0.1343
   27CHL1  H21C 1979   6.664   5.738   9.298 -2.1792  2.2256 -2.0336
   27CHL1   C22 1980   6.572   5.991   9.217  0.3651  0.2991 -0.3218
   27CHL1  H22A 1981   6.486   6.052   9.182  0.3479 -0.4339 -1.6439
   27CHL1  H22B 1982   6.659   6.059   9.230  1.7382 -1.2982 -0.7812
   27CHL1   C23 1983   6.599   5.894   9.103 -0.0831  0.0645  0.1106
   27CHL1  H23A 1984   6.697   5.847   9.123 -0.7012 -1.2023  0.2743
   27CHL1  H23B 1985   6.528   5.809   9.112  0.8611 -0.7021  0.4640
   27CHL1   C24 1986   6.628   5.958   8.964 -0.1758  0.0971  0.9425
   27CHL1  H24A 1987   6.543   6.026   8.943  2.2038  2.8313 -0.6802
   27CHL1  H24B 1988   6.725   6.013   8.968 -0.5632  0.9185 -0.4506
   27CHL1   C25 1989   6.635   5.857   8.854 -0.2095 -0.1716  0.5595
   27CHL1   H25 1990   6.543   5.795   8.848 -1.1542  1.2305  0.1659
   27CHL1   C26 1991   6.654   5.918   8.718 -0.3547 -0.2487  0.0178
   27CHL1  H26A 1992   6.754   5.966   8.705 -1.1758  1.6653  0.4633
   27CHL1  H26B 1993   6.641   5.839   8.641 -2.9450  2.1737 -2.2189
   27CHL1  H26C 1994   6.578   5.995   8.693 -1.3905 -0.3817  2.4552
   27CHL1   C27 1995   6.747   5.754   8.869 -0.7378  0.2570 -0.3617
   27CHL1  H27A 1996   6.766   5.695   8.777 -1.1785 -0.5615  0.0645
   27CHL1  H27B 1997   6.843   5.800   8.901 -0.9558 -0.0709  0.8224
   27CHL1  H27C 1998   6.720   5.685   8.951 -0.5843 -1.3946 -1.6560
   28CHL1    C3 1999   5.859   3.831  10.295  0.4554 -0.2579  0.8311
   28CHL1    H3 2000   5.753   3.810  10.273 -0.0058  3.0840 -0.7098
   28CHL1    O3 2001   5.871   3.850  10.441  0.4265 -0.0647  0.5547
   28CHL1   H3' 2002   5.953   3.898  10.456 -0.2378  1.6435 -0.9334
   28CHL1    C4 2003   5.956   3.723  10.241 -0.6188  0.4573 -0.3827
   28CHL1   H4A 2004   6.061   3.735  10.277 -0.9053  1.5546  0.1199
   28CHL1   H4B 2005   5.930   3.624  10.286 -0.5321 -0.1090 -1.5348
   28CHL1    C5 2006   5.954   3.702  10.090  0.6296 -0.1919  0.2123
   28CHL1    C6 2007   5.937   3.578  10.037  0.2733 -0.2354 -0.3913
   28CHL1    H6 2008   5.939   3.486  10.098  0.8045  0.7897  1.1885
   28CHL1    C7 2009   5.913   3.568   9.889 -0.1446 -1.0810  0.1443
   28CHL1   H7A 2010   5.963   3.477   9.847  1.2815 -1.3367  2.2604
   28CHL1   H7B 2011   5.806   3.552   9.864  0.5562 -1.3401 -3.1995
   28CHL1    C8 2012   5.956   3.696   9.802  0.1091 -0.1539 -0.8315
   28CHL1    H8 2013   6.066   3.709   9.804 -0.0292  1.0302 -0.4201
   28CHL1   C14 2014   5.897   3.688   9.663 -0.3628  0.5158 -0.3813
   28CHL1   H14 2015   5.792   3.707   9.693  0.4957  1.8931  1.9748
   28CHL1   C15 2016   5.906   3.554   9.588 -0.0270  0.3616  0.2848
   28CHL1  H15A 2017   5.998   3.500   9.621 -0.4730 -0.8758 -0.4468
   28CHL1  H15B 2018   5.815   3.496   9.615 -1.3043  1.1555 -2.0236
   28CHL1   C16 2019   5.914   3.594   9.444  0.0853  0.8176  0.5208
   28CHL1  H16A 2020   6.020   3.599   9.412 -0.1235  0.6413 -0.2175
   28CHL1  H16B 2021   5.869   3.523   9.372  0.3066  0.4289  0.7658
   28CHL1   C17 2022   5.862   3.738   9.433  0.3157  0.1138 -0.0132
   28CHL1   H17 2023   5.752   3.735   9.444  0.2232 -0.0326 -0.8373
   28CHL1   C13 2024   5.927   3.800   9.562 -0.1911  0.3291  0.0997
   28CHL1   C18 2025   6.086   3.816   9.554  0.8949  0.1490 -0.0403
   28CHL1  H18A 2026   6.130   3.716   9.536 -1.1924 -0.8404  0.0811
   28CHL1  H18B 2027   6.096   3.882   9.465 -0.7242  0.9007  0.3052
   28CHL1  H18C 2028   6.132   3.865   9.642  1.1463  2.4291 -1.3572
   28CHL1   C12 2029   5.864   3.926   9.627  0.1278 -0.2465 -0.4061
   28CHL1  H12A 2030   5.894   4.016   9.569  0.1348  0.5994  0.8685
   28CHL1  H12B 2031   5.753   3.920   9.619 -0.2072  2.6691  0.5238
   28CHL1   C11 2032   5.909   3.948   9.776  0.3897 -0.8064  0.6328
   28CHL1  H11A 2033   6.014   3.986   9.776 -0.0628  0.5802 -0.8748
   28CHL1  H11B 2034   5.845   4.034   9.805 -1.5474 -1.4171 -1.5263
   28CHL1    C9 2035   5.901   3.825   9.861  0.6683 -0.4362 -0.0790
   28CHL1    H9 2036   5.792   3.805   9.862  0.7538 -0.8930  0.8888
   28CHL1   C10 2037   5.949   3.843  10.009 -0.1983  0.0881  0.6825
   28CHL1   C19 2038   6.098   3.895  10.019  0.2911 -0.3274 -1.0945
   28CHL1  H19A 2039   6.171   3.826   9.970  1.5147  0.6064 -0.6538
   28CHL1  H19B 2040   6.105   3.997   9.975 -0.7498  0.0958 -0.3237
   28CHL1  H19C 2041   6.134   3.906  10.124  3.6144  0.4823 -2.2097
   28CHL1    C1 2042   5.848   3.947  10.075  0.0272 -0.3342  0.3481
   28CHL1   H1A 2043   5.866   4.048  10.035  1.1216  0.3755  2.4555
   28CHL1   H1B 2044   5.741   3.920  10.063 -0.1220  0.6575 -0.6344
   28CHL1    C2 2045   5.874   3.965  10.221 -0.5646  0.6171 -0.4154
   28CHL1   H2A 2046   5.817   4.046  10.271  0.9124 -0.8573  4.1998
   28CHL1   H2B 2047   5.976   3.996  10.253 -1.9401  1.8583  3.2018
   28CHL1   C20 2048   5.886   3.806   9.296 -0.5570  0.4631  0.0815
   28CHL1   H20 2049   5.994   3.811   9.269 -0.9460  0.6264 -1.5946
   28CHL1   C21 2050   5.820   3.944   9.300 -0.5660 -0.1773  0.4503
   28CHL1  H21A 2051   5.828   3.997   9.203  0.0176  0.6662  0.9497
   28CHL1  H21B 2052   5.867   4.016   9.371  1.8360  0.6623 -1.8018
   28CHL1  H21C 2053   5.713   3.925   9.321 -1.0294  0.7284 -0.9586
   28CHL1   C22 2054   5.831   3.719   9.179  0.4823 -0.3333 -0.1083
   28CHL1  H22A 2055   5.878   3.620   9.194  0.5812 -0.3862 -0.7218
   28CHL1  H22B 2056   5.721   3.725   9.195  0.1045 -0.9717 -2.1853
   28CHL1   C23 2057   5.875   3.754   9.042 -0.0879  0.6030  0.6081
   28CHL1  H23A 2058   5.843   3.856   9.013 -1.7474 -0.1138 -0.2249
   28CHL1  H23B 2059   5.981   3.748   9.009 -0.8175  1.8153 -2.3234
   28CHL1   C24 2060   5.795   3.671   8.935 -0.4136  0.9099  0.2253
   28CHL1  H24A 2061   5.826   3.565   8.921  3.0990  2.0261 -1.6632
   28CHL1  H24B 2062   5.690   3.650   8.966  0.3871 -2.3417  1.1501
   28CHL1   C25 2063   5.790   3.721   8.789 -0.1904  0.2688 -0.3799
   28CHL1   H25 2064   5.895   3.745   8.761  0.0161 -0.4516 -0.2288
   28CHL1   C26 2065   5.753   3.606   8.686  0.4083  0.5486 -0.1611
   28CHL1  H26A 2066   5.756   3.641   8.580  2.0543  0.8274 -0.0490
   28CHL1  H26B 2067   5.836   3.535   8.705 -0.7968 -1.1632 -1.0242
   28CHL1  H26C 2068   5.662   3.555   8.726  1.9213 -0.1461  2.6448
   28CHL1   C27 2069   5.697   3.842   8.780 -0.2034 -0.0908  1.4617
   28CHL1  H27A 2070   5.756   3.930   8.816 -1.0784  0.9320  0.4489
   28CHL1  H27B 2071   5.655   3.867   8.681 -1.0864 -3.8980  0.7210
   28CHL1  H27C 2072   5.613   3.833   8.853 -2.1156 -0.9058 -0.7303
   29CHL1    C3 2073   6.327   2.264   6.657  0.0899  0.0746 -0.3014
   29CHL1    H3 2074   6.219   2.251   6.636  0.0411  2.1109 -1.5391
   29CHL1    O3 2075   6.389   2.240   6.531 -0.5178 -0.0540  0.0468
   29CHL1   H3' 2076   6.479   2.269   6.545  0.0999 -1.2245 -1.1941
   29CHL1    C4 2077   6.334   2.410   6.697 -0.7113 -0.7672  0.3566
   29CHL1   H4A 2078   6.442   2.434   6.682 -0.3561 -1.4707  1.6507
   29CHL1   H4B 2079   6.285   2.479   6.624  2.0931  0.9729 -0.0578
   29CHL1    C5 2080   6.286   2.440   6.842  0.2448 -0.0359 -0.3663
   29CHL1    C6 2081   6.187   2.523   6.866 -0.3920  0.2654 -0.5958
   29CHL1    H6 2082   6.155   2.592   6.787  1.2041 -0.5115 -1.9666
   29CHL1    C7 2083   6.126   2.550   7.005 -0.3279  0.2398 -0.0794
   29CHL1   H7A 2084   6.097   2.657   7.002  0.7862  0.5310 -1.2997
   29CHL1   H7B 2085   6.034   2.489   7.023  0.3132 -0.3557  1.3453
   29CHL1    C8 2086   6.230   2.501   7.114 -0.5517  0.0969  0.0274
   29CHL1    H8 2087   6.314   2.571   7.100  1.7047 -2.1932  1.2201
   29CHL1   C14 2088   6.163   2.513   7.249  0.3357  1.2252 -0.2192
   29CHL1   H14 2089   6.083   2.437   7.240  0.2995  1.0485  1.3047
   29CHL1   C15 2090   6.096   2.648   7.291  0.9972  0.0490 -0.0432
   29CHL1  H15A 2091   6.143   2.739   7.248  1.5504  0.0185  0.4760
   29CHL1  H15B 2092   5.989   2.639   7.265  0.7163 -1.6974  1.4540
   29CHL1   C16 2093   6.121   2.654   7.434  0.4991 -0.3845  0.0672
   29CHL1  H16A 2094   6.206   2.720   7.460  1.9962 -2.3768  0.3648
   29CHL1  H16B 2095   6.037   2.691   7.497  0.0935  0.9689 -1.1961
   29CHL1   C17 2096   6.177   2.519   7.491 -0.1255 -0.4170  0.2884
   29CHL1   H17 2097   6.090   2.452   7.508 -0.0036 -0.2096  1.8970
   29CHL1   C13 2098   6.255   2.468   7.363  0.0213 -0.5802 -0.3484
   29CHL1   C18 2099   6.387   2.557   7.356 -0.2744 -0.4117  0.3392
   29CHL1  H18A 2100   6.454   2.522   7.274 -1.2066 -0.3631 -0.4649
   29CHL1  H18B 2101   6.364   2.660   7.322 -0.2667 -0.6014 -0.2592
   29CHL1  H18C 2102   6.445   2.550   7.450 -0.8902  1.2869  0.8770
   29CHL1   C12 2103   6.284   2.314   7.349 -0.0518 -0.6445  0.1306
   29CHL1  H12A 2104   6.347   2.284   7.436 -0.7258  1.1134  1.2696
   29CHL1  H12B 2105   6.188   2.261   7.365 -0.0048 -0.5846  0.6315
   29CHL1   C11 2106   6.330   2.273   7.206 -0.2766 -0.4691 -0.9132
   29CHL1  H11A 2107   6.441   2.269   7.196 -0.3089 -0.0609 -1.4424
   29CHL1  H11B 2108   6.298   2.167   7.199 -2.2347 -0.2391  2.2417
   29CHL1    C9 2109   6.265   2.354   7.086  0.3752  0.0591  0.0708
   29CHL1    H9 2110   6.167   2.304   7.073  1.5560 -1.7545 -3.2067
   29CHL1   C10 2111   6.335   2.333   6.949 -0.2045 -0.8132 -0.1945
   29CHL1   C19 2112   6.481   2.373   6.978 -0.1552  0.0486  0.8290
   29CHL1  H19A 2113   6.478   2.464   7.042 -4.3497  1.1403 -0.6318
   29CHL1  H19B 2114   6.536   2.290   7.028  0.9915  0.9462  1.1123
   29CHL1  H19C 2115   6.537   2.398   6.885  1.0407 -3.3461  0.5146
   29CHL1    C1 2116   6.303   2.194   6.898  0.7186 -0.1051 -0.6889
   29CHL1   H1A 2117   6.339   2.115   6.967 -0.1298  1.0672  1.1824
   29CHL1   H1B 2118   6.196   2.173   6.877  1.2478 -1.9234 -1.7930
   29CHL1    C2 2119   6.377   2.165   6.766  0.9458  0.0420  0.7211
   29CHL1   H2A 2120   6.355   2.059   6.741  2.9311 -0.2102 -0.1224
   29CHL1   H2B 2121   6.486   2.178   6.779  1.3384  0.0390 -2.0205
   29CHL1   C20 2122   6.247   2.526   7.630  0.0804 -0.3885 -0.1409
   29CHL1   H20 2123   6.335   2.594   7.633 -1.0195  1.0911 -0.3032
   29CHL1   C21 2124   6.286   2.388   7.675  1.0990 -0.4995  0.2212
   29CHL1  H21A 2125   6.200   2.318   7.683  1.1034 -0.3521  1.6616
   29CHL1  H21B 2126   6.322   2.406   7.778 -2.0964  2.1164  1.0464
   29CHL1  H21C 2127   6.370   2.342   7.619  2.4621  0.8146  1.1441
   29CHL1   C22 2128   6.148   2.584   7.739  0.2645  0.4065 -0.0869
   29CHL1  H22A 2129   6.099   2.680   7.711 -0.4724 -0.0837 -0.5198
   29CHL1  H22B 2130   6.075   2.500   7.743  2.2071 -1.3019  1.5326
   29CHL1   C23 2131   6.224   2.615   7.872 -0.5870  0.5109  0.3157
   29CHL1  H23A 2132   6.256   2.515   7.907 -1.7648 -0.4290 -1.1855
   29CHL1  H23B 2133   6.321   2.660   7.842  0.6597 -0.6946  2.2618
   29CHL1   C24 2134   6.134   2.687   7.965  0.7260  0.2369 -0.3253
   29CHL1  H24A 2135   6.121   2.787   7.920 -2.0207 -1.6534 -4.2755
   29CHL1  H24B 2136   6.038   2.632   7.981 -0.3548  1.8038 -1.1810
   29CHL1   C25 2137   6.184   2.716   8.110  0.5070 -0.4012 -0.0482
   29CHL1   H25 2138   6.185   2.624   8.172  0.7007 -1.2207 -1.2204
   29CHL1   C26 2139   6.324   2.780   8.100 -0.5865 -0.0299 -0.2270
   29CHL1  H26A 2140   6.398   2.714   8.051  0.0599 -0.8235  1.7173
   29CHL1  H26B 2141   6.335   2.885   8.065  4.0709  0.7805  2.7759
   29CHL1  H26C 2142   6.371   2.785   8.201 -0.5293 -0.3177 -0.2389
   29CHL1   C27 2143   6.091   2.809   8.193  0.3215  0.3524  0.1044
   29CHL1  H27A 2144   6.063   2.903   8.140  0.1477  1.4545  2.0539
   29CHL1  H27B 2145   5.999   2.764   8.236 -0.0479  1.1068  0.1329
   29CHL1  H27C 2146   6.146   2.846   8.282 -1.2732 -0.7679  1.6254
   30CHL1    C3 2147   5.006   0.227   7.537 -0.1736 -0.1985 -0.8147
   30CHL1    H3 2148   5.088   0.302   7.537 -1.3978  1.1983  0.5544
   30CHL1    O3 2149   5.010   0.156   7.417 -0.2911  0.1011 -0.2994
   30CHL1   H3' 2150   4.965   0.071   7.420  1.6440 -0.9433  1.4501
   30CHL1    C4 2151   5.020   0.127   7.646 -0.2949 -0.3374  0.2017
   30CHL1   H4A 2152   4.961   0.037   7.619 -1.0915  0.3120 -0.2731
   30CHL1   H4B 2153   5.122   0.085   7.657 -0.9678 -1.4682  3.1136
   30CHL1    C5 2154   4.979   0.173   7.785 -0.1889 -0.0342 -0.4086
   30CHL1    C6 2155   5.066   0.159   7.888 -0.2786 -0.1260  0.7208
   30CHL1    H6 2156   5.162   0.109   7.868 -0.2317  0.1118  0.3446
   30CHL1    C7 2157   5.036   0.176   8.031 -0.0831 -0.9393 -0.3347
   30CHL1   H7A 2158   5.062   0.084   8.089  1.7128 -0.3656 -0.1862
   30CHL1   H7B 2159   5.092   0.258   8.082  0.5631 -1.8301  0.4406
   30CHL1    C8 2160   4.889   0.211   8.061  0.4531  0.8243  0.2324
   30CHL1    H8 2161   4.824   0.122   8.053 -1.2419  2.0702 -0.4534
   30CHL1   C14 2162   4.859   0.294   8.185 -0.2518 -0.1186 -0.6098
   30CHL1   H14 2163   4.911   0.391   8.165  2.3192 -1.7371 -2.3317
   30CHL1   C15 2164   4.923   0.236   8.314  0.1427 -0.1855  0.0541
   30CHL1  H15A 2165   4.931   0.125   8.316  1.7833 -0.0979  1.7202
   30CHL1  H15B 2166   5.029   0.272   8.311 -0.4067  1.4906 -0.4042
   30CHL1   C16 2167   4.848   0.296   8.433 -0.3296  0.6566 -0.8062
   30CHL1  H16A 2168   4.804   0.214   8.494  1.3498  0.7407  0.5909
   30CHL1  H16B 2169   4.928   0.334   8.499  0.3913 -1.7551 -0.1893
   30CHL1   C17 2170   4.731   0.381   8.376 -0.1028  0.6832  1.0107
   30CHL1   H17 2171   4.769   0.485   8.362 -1.0156  0.8500 -0.4111
   30CHL1   C13 2172   4.712   0.326   8.230 -0.7574 -0.0500 -0.3479
   30CHL1   C18 2173   4.639   0.188   8.252  0.5597  0.4778 -0.1341
   30CHL1  H18A 2174   4.538   0.211   8.290  0.8931  0.8072  0.5774
   30CHL1  H18B 2175   4.624   0.139   8.153 -0.1699 -1.6105  0.9628
   30CHL1  H18C 2176   4.699   0.125   8.321  0.9749  2.0099  0.9507
   30CHL1   C12 2177   4.650   0.413   8.123 -0.3213  0.4074 -0.5643
   30CHL1  H12A 2178   4.542   0.436   8.137 -1.3697 -3.1091 -1.7549
   30CHL1  H12B 2179   4.705   0.509   8.126 -0.1364  0.2826  0.2578
   30CHL1   C11 2180   4.676   0.342   7.984  0.2291  0.3236  0.2252
   30CHL1  H11A 2181   4.615   0.250   7.992  1.1895 -0.1543  3.3336
   30CHL1  H11B 2182   4.648   0.412   7.902 -0.5719 -1.2439 -0.8663
   30CHL1    C9 2183   4.827   0.305   7.949 -0.3729 -0.6263 -0.0763
   30CHL1    H9 2184   4.887   0.398   7.957  1.6184 -1.9172  0.7500
   30CHL1   C10 2185   4.842   0.241   7.807 -0.3777 -0.7033 -0.0203
   30CHL1   C19 2186   4.728   0.139   7.782  0.0910 -0.3985  0.5623
   30CHL1  H19A 2187   4.714   0.070   7.869  0.9145  0.1585  1.1401
   30CHL1  H19B 2188   4.630   0.188   7.762  0.2510 -0.9680 -1.9598
   30CHL1  H19C 2189   4.734   0.078   7.690  2.0683  2.6668 -1.5189
   30CHL1    C1 2190   4.845   0.349   7.696  0.3742 -0.0027  0.3264
   30CHL1   H1A 2191   4.748   0.403   7.691  0.5268  0.3060  0.6438
   30CHL1   H1B 2192   4.927   0.419   7.723  0.7758 -0.6481  0.8222
   30CHL1    C2 2193   4.873   0.303   7.554 -0.0303  0.9010 -0.0582
   30CHL1   H2A 2194   4.869   0.393   7.489 -0.1123  1.0040  0.0895
   30CHL1   H2B 2195   4.788   0.237   7.526 -0.1802  0.3780  1.5198
   30CHL1   C20 2196   4.617   0.400   8.473 -0.6083  0.4779  0.1152
   30CHL1   H20 2197   4.568   0.301   8.483  0.3468 -0.1554 -1.1596
   30CHL1   C21 2198   4.514   0.503   8.421 -0.2204  0.2986  0.0324
   30CHL1  H21A 2199   4.425   0.509   8.488 -0.9821 -0.1126 -0.9095
   30CHL1  H21B 2200   4.473   0.474   8.322 -1.3900 -1.7371  1.0258
   30CHL1  H21C 2201   4.557   0.605   8.420  0.8765 -0.1564 -0.7314
   30CHL1   C22 2202   4.662   0.434   8.623  0.5844  0.2712  0.0835
   30CHL1  H22A 2203   4.564   0.440   8.675  0.0852  0.9060 -0.8991
   30CHL1  H22B 2204   4.727   0.360   8.674 -0.1457  0.6703  1.6615
   30CHL1   C23 2205   4.734   0.571   8.640  0.3340  0.1796 -0.1655
   30CHL1  H23A 2206   4.834   0.566   8.593  0.3648 -1.7726  0.0334
   30CHL1  H23B 2207   4.672   0.648   8.589  0.5027  0.3185 -0.1625
   30CHL1   C24 2208   4.737   0.610   8.792  0.5962 -0.5890  0.1163
   30CHL1  H24A 2209   4.798   0.534   8.846  1.0312  0.7323  1.5395
   30CHL1  H24B 2210   4.781   0.711   8.797  0.1245 -0.3905  0.3233
   30CHL1   C25 2211   4.598   0.615   8.865  0.0978  0.1401  0.4568
   30CHL1   H25 2212   4.557   0.512   8.860 -1.0110  0.6198 -1.0282
   30CHL1   C26 2213   4.612   0.655   9.017 -0.3014 -0.3196 -0.3835
   30CHL1  H26A 2214   4.684   0.594   9.075  0.2394 -0.0158 -0.7356
   30CHL1  H26B 2215   4.639   0.760   9.041  0.5640 -0.7129  0.4251
   30CHL1  H26C 2216   4.513   0.636   9.065 -0.8637  0.1292 -1.3343
   30CHL1   C27 2217   4.512   0.711   8.790 -0.3710 -0.1278 -0.1255
   30CHL1  H27A 2218   4.562   0.809   8.771  0.0379 -0.7286 -2.4580
   30CHL1  H27B 2219   4.489   0.670   8.689 -0.8737  0.0685 -0.0945
   30CHL1  H27C 2220   4.413   0.724   8.838 -1.0378 -2.5778 -0.6886
   31CHL1    C3 2221   5.675   3.691   6.670 -0.1448 -0.2224  0.7526
   31CHL1    H3 2222   5.684   3.798   6.702  1.2838 -0.3863  0.9468
   31CHL1    O3 2223   5.670   3.677   6.532  0.3788  0.3766 -0.8033
   31CHL1   H3' 2224   5.757   3.708   6.505  0.3492  1.0178 -0.2027
   31CHL1    C4 2225   5.789   3.609   6.734 -0.0254  0.4666 -0.2138
   31CHL1   H4A 2226   5.791   3.506   6.693  0.2095  0.5059 -0.3012
   31CHL1   H4B 2227   5.882   3.655   6.697  1.0321 -1.9994 -0.8631
   31CHL1    C5 2228   5.782   3.601   6.887  0.2511  0.1728  0.0475
   31CHL1    C6 2229   5.890   3.634   6.959  0.1018 -0.3298 -0.3720
   31CHL1    H6 2230   5.974   3.674   6.902 -0.4432 -1.1016 -1.7778
   31CHL1    C7 2231   5.895   3.615   7.106  0.2016 -0.3829  0.3319
   31CHL1   H7A 2232   5.986   3.556   7.128  0.1765 -1.3997 -2.0038
   31CHL1   H7B 2233   5.900   3.718   7.148  3.2107 -0.3561  0.1044
   31CHL1    C8 2234   5.767   3.548   7.176 -0.0032  0.4533  0.7136
   31CHL1    H8 2235   5.781   3.438   7.167 -1.0380  0.1838  2.0936
   31CHL1   C14 2236   5.753   3.591   7.323 -0.2203  0.4220 -0.2962
   31CHL1   H14 2237   5.740   3.701   7.321 -2.3009  0.2567  0.9052
   31CHL1   C15 2238   5.866   3.576   7.426  0.6534  0.0679  0.2820
   31CHL1  H15A 2239   5.912   3.475   7.420  2.3965  0.9001 -3.1160
   31CHL1  H15B 2240   5.956   3.639   7.410  1.1976 -0.5895  0.7434
   31CHL1   C16 2241   5.803   3.600   7.562  0.3487 -0.4666 -0.3636
   31CHL1  H16A 2242   5.827   3.518   7.633  1.9138  0.5462  0.3410
   31CHL1  H16B 2243   5.840   3.697   7.601 -1.9360  0.8467 -1.2801
   31CHL1   C17 2244   5.645   3.607   7.541  0.2273  0.0372 -0.1834
   31CHL1   H17 2245   5.619   3.715   7.538 -0.1070  0.0627  1.9448
   31CHL1   C13 2246   5.627   3.545   7.402  0.5002 -0.1251  0.0010
   31CHL1   C18 2247   5.632   3.388   7.419  0.7848  0.8898 -0.5008
   31CHL1  H18A 2248   5.542   3.347   7.469  1.1914  0.2007 -0.3146
   31CHL1  H18B 2249   5.633   3.341   7.319 -0.8493  0.2691 -0.2438
   31CHL1  H18C 2250   5.716   3.349   7.481 -1.4930 -2.6084  0.6684
   31CHL1   C12 2251   5.500   3.586   7.319  0.1187  0.0976  0.5496
   31CHL1  H12A 2252   5.410   3.541   7.366 -0.3473 -0.8870 -1.1929
   31CHL1  H12B 2253   5.488   3.697   7.315  2.2742  0.3419 -1.1583
   31CHL1   C11 2254   5.505   3.545   7.172  0.2853 -0.5436 -0.1463
   31CHL1  H11A 2255   5.476   3.439   7.152  0.0138 -0.3282 -0.9448
   31CHL1  H11B 2256   5.433   3.611   7.118 -0.1183 -1.1741 -0.3889
   31CHL1    C9 2257   5.637   3.593   7.104 -0.1542  0.7340  0.8051
   31CHL1    H9 2258   5.643   3.704   7.105  0.2221  0.7288  2.3938
   31CHL1   C10 2259   5.645   3.554   6.947 -0.2715  0.0206 -0.4025
   31CHL1   C19 2260   5.628   3.401   6.924  0.3232  0.1259 -0.2487
   31CHL1  H19A 2261   5.711   3.348   6.975  0.8996  1.8486  0.6469
   31CHL1  H19B 2262   5.532   3.350   6.950 -1.5319  2.2670 -2.3874
   31CHL1  H19C 2263   5.633   3.385   6.814  0.5981 -2.1199  0.0295
   31CHL1    C1 2264   5.535   3.642   6.875 -0.7306  0.4480  0.5434
   31CHL1   H1A 2265   5.434   3.600   6.896 -0.5022 -0.7664 -0.6661
   31CHL1   H1B 2266   5.558   3.744   6.913  1.3026  1.1501 -2.2640
   31CHL1    C2 2267   5.543   3.640   6.723 -0.1605 -0.4299  0.4274
   31CHL1   H2A 2268   5.452   3.692   6.686  1.1732  0.3192 -2.0262
   31CHL1   H2B 2269   5.530   3.533   6.697 -3.3828  0.1452 -0.8381
   31CHL1   C20 2270   5.572   3.558   7.666 -0.6294 -0.0771 -0.0011
   31CHL1   H20 2271   5.613   3.457   7.682  2.1096  1.2351  2.1570
   31CHL1   C21 2272   5.418   3.538   7.651 -0.0739  0.5499  0.4569
   31CHL1  H21A 2273   5.381   3.479   7.564 -0.7028  0.7031  0.6139
   31CHL1  H21B 2274   5.374   3.640   7.644 -2.6431 -0.5066 -0.2626
   31CHL1  H21C 2275   5.377   3.490   7.742  1.4243 -0.1604  0.7893
   31CHL1   C22 2276   5.595   3.640   7.794 -1.0422 -0.3957  0.3187
   31CHL1  H22A 2277   5.699   3.677   7.806 -0.3577 -1.6692 -1.2056
   31CHL1  H22B 2278   5.524   3.725   7.794 -0.1960  0.4679  4.0160
   31CHL1   C23 2279   5.554   3.565   7.924 -0.1332 -0.1435 -0.2481
   31CHL1  H23A 2280   5.455   3.514   7.917 -1.2247  1.9617 -1.3517
   31CHL1  H23B 2281   5.631   3.490   7.949  0.0944  0.3019  0.4139
   31CHL1   C24 2282   5.558   3.663   8.045  0.0216 -0.0564 -0.5391
   31CHL1  H24A 2283   5.666   3.687   8.061 -0.5218  2.2940  0.0330
   31CHL1  H24B 2284   5.500   3.756   8.025 -0.9416 -0.4300  0.4301
   31CHL1   C25 2285   5.513   3.608   8.187 -0.1915  0.4453  0.2452
   31CHL1   H25 2286   5.402   3.607   8.191 -0.1489 -0.0594  2.3932
   31CHL1   C26 2287   5.558   3.464   8.208 -0.3374  0.4529 -0.0535
   31CHL1  H26A 2288   5.483   3.400   8.158  0.9547 -1.3515  0.2305
   31CHL1  H26B 2289   5.652   3.440   8.155  0.9700  2.6623  1.1327
   31CHL1  H26C 2290   5.556   3.437   8.316  0.3962  2.7578  0.5893
   31CHL1   C27 2291   5.558   3.706   8.292 -0.8599 -0.7066 -0.1590
   31CHL1  H27A 2292   5.540   3.665   8.393 -2.1494 -1.0011 -0.4937
   31CHL1  H27B 2293   5.500   3.800   8.279  0.1164 -0.1853 -0.8957
   31CHL1  H27C 2294   5.667   3.724   8.280 -1.2957  1.3329 -1.8267
   32CHL1    C3 2295   6.040   6.471   7.052 -0.5238 -0.1806  0.0912
   32CHL1    H3 2296   6.147   6.455   7.080  0.3747  4.8962  0.6449
   32CHL1    O3 2297   6.045   6.448   6.913 -0.2997  0.0022 -0.8612
   32CHL1   H3' 2298   6.089   6.363   6.910  1.3347  0.8538 -2.9334
   32CHL1    C4 2299   5.944   6.384   7.121 -0.2761 -0.1410  0.2916
   32CHL1   H4A 2300   5.840   6.398   7.084 -1.6106 -0.6260  3.4780
   32CHL1   H4B 2301   5.958   6.280   7.083 -1.2829 -0.3523  0.4690
   32CHL1    C5 2302   5.937   6.389   7.272 -0.6554  0.4048 -0.1990
   32CHL1    C6 2303   5.965   6.284   7.353 -0.1518  0.1409 -0.0911
   32CHL1    H6 2304   5.985   6.185   7.309  0.6512  0.4690 -0.4700
   32CHL1    C7 2305   5.959   6.288   7.503 -0.0193 -0.4317  0.3508
   32CHL1   H7A 2306   5.898   6.201   7.534 -0.2652 -1.3894 -2.5793
   32CHL1   H7B 2307   6.058   6.262   7.547  0.3528  0.9820  0.3939
   32CHL1    C8 2308   5.916   6.431   7.551 -0.2730  0.2180  0.2535
   32CHL1    H8 2309   5.805   6.425   7.546 -0.2904  0.1616  0.6999
   32CHL1   C14 2310   5.950   6.441   7.693 -0.2502  0.0394 -0.1848
   32CHL1   H14 2311   6.061   6.454   7.694 -0.0248 -1.6771 -0.0263
   32CHL1   C15 2312   5.925   6.326   7.795 -0.3868 -0.1358  0.6159
   32CHL1  H15A 2313   5.816   6.312   7.776 -0.1044  1.5139 -3.0372
   32CHL1  H15B 2314   5.990   6.236   7.783 -0.1699  0.0940  0.0552
   32CHL1   C16 2315   5.947   6.398   7.931 -0.9597 -0.0024 -0.7788
   32CHL1  H16A 2316   5.872   6.384   8.011  1.1634  2.6887  1.8832
   32CHL1  H16B 2317   6.044   6.363   7.971 -1.6592 -0.4858  0.5439
   32CHL1   C17 2318   5.951   6.552   7.902  0.8227  0.0429  0.0818
   32CHL1   H17 2319   6.059   6.576   7.893  0.0043  3.2987 -3.3268
   32CHL1   C13 2320   5.899   6.570   7.755 -0.5505  0.1483 -0.6501
   32CHL1   C18 2321   5.743   6.577   7.760  0.1635  0.3416 -0.2660
   32CHL1  H18A 2322   5.704   6.664   7.817  0.4715  0.1968  0.1652
   32CHL1  H18B 2323   5.691   6.574   7.662 -0.8080 -0.5603  0.2571
   32CHL1  H18C 2324   5.697   6.494   7.818  0.1900  0.9050  0.5919
   32CHL1   C12 2325   5.961   6.698   7.685  0.2479  0.4699 -0.1267
   32CHL1  H12A 2326   5.922   6.797   7.718  0.5134 -0.3016  2.8121
   32CHL1  H12B 2327   6.069   6.694   7.711  0.2901 -2.2888 -0.4051
   32CHL1   C11 2328   5.934   6.693   7.532  0.8075  0.0055  0.4828
   32CHL1  H11A 2329   5.826   6.718   7.527  0.7448  0.0994  1.8936
   32CHL1  H11B 2330   5.993   6.772   7.483 -1.1314  1.5472  0.5220
   32CHL1    C9 2331   5.969   6.552   7.467 -0.3344  0.2482 -0.2713
   32CHL1    H9 2332   6.079   6.544   7.473 -0.3768  0.5009  1.3119
   32CHL1   C10 2333   5.924   6.539   7.318 -0.6763  0.7152  0.8006
   32CHL1   C19 2334   5.781   6.579   7.297 -0.1257 -0.6919  0.1025
   32CHL1  H19A 2335   5.710   6.547   7.376 -1.8545 -0.8585 -1.4465
   32CHL1  H19B 2336   5.772   6.689   7.314  0.4467 -0.7879  1.1619
   32CHL1  H19C 2337   5.743   6.551   7.197 -1.2172 -2.1285  0.8718
   32CHL1    C1 2338   6.018   6.637   7.237 -0.1286  0.0831  0.1929
   32CHL1   H1A 2339   5.985   6.741   7.258 -1.1034  0.0382 -0.9962
   32CHL1   H1B 2340   6.128   6.620   7.247 -0.0563 -0.8100 -1.6745
   32CHL1    C2 2341   6.011   6.618   7.086 -0.3188  0.0984 -0.3969
   32CHL1   H2A 2342   6.082   6.678   7.025 -0.5277 -0.4806 -1.2206
   32CHL1   H2B 2343   5.915   6.650   7.040 -0.1784  1.4313  0.1883
   32CHL1   C20 2344   5.886   6.640   8.008 -0.3669 -0.7755 -0.4718
   32CHL1   H20 2345   5.776   6.626   8.003 -0.5104  0.2163 -0.3595
   32CHL1   C21 2346   5.905   6.785   7.990  0.7151 -0.6377 -0.1816
   32CHL1  H21A 2347   5.846   6.825   7.905  0.1189  0.1849  0.5987
   32CHL1  H21B 2348   6.010   6.817   7.971  0.4684 -0.4177 -1.2844
   32CHL1  H21C 2349   5.869   6.841   8.079  0.5773 -1.3657  0.2214
   32CHL1   C22 2350   5.946   6.601   8.148 -0.2481 -0.0248  0.5392
   32CHL1  H22A 2351   5.959   6.491   8.147 -1.4895 -0.2280  2.1226
   32CHL1  H22B 2352   6.046   6.648   8.151 -0.1454 -0.2888  1.2692
   32CHL1   C23 2353   5.853   6.629   8.269 -0.4229  0.0331 -1.0748
   32CHL1  H23A 2354   5.842   6.739   8.280  0.3971  0.2769 -2.4840
   32CHL1  H23B 2355   5.748   6.594   8.252 -0.5224 -0.0978 -0.2721
   32CHL1   C24 2356   5.896   6.553   8.388  0.5038  0.3742 -0.3850
   32CHL1  H24A 2357   5.913   6.445   8.367  0.5462  0.4108 -0.5333
   32CHL1  H24B 2358   5.994   6.596   8.416  0.5127  0.2843 -0.2759
   32CHL1   C25 2359   5.804   6.556   8.510  0.1278  0.2071  0.3029
   32CHL1   H25 2360   5.710   6.505   8.482 -0.7669  0.8116  2.0243
   32CHL1   C26 2361   5.863   6.485   8.633 -0.1726 -0.2793  0.2449
   32CHL1  H26A 2362   5.929   6.557   8.686  0.0553 -0.7438  0.5958
   32CHL1  H26B 2363   5.776   6.463   8.698 -0.9484 -2.0962 -1.3166
   32CHL1  H26C 2364   5.920   6.392   8.615  1.5646  0.5931  1.0161
   32CHL1   C27 2365   5.755   6.696   8.551 -0.1842  0.1971  0.1892
   32CHL1  H27A 2366   5.683   6.672   8.632 -0.2843 -1.0841 -0.2555
   32CHL1  H27B 2367   5.820   6.763   8.611  0.6164  0.5651 -1.0633
   32CHL1  H27C 2368   5.716   6.748   8.461  0.8223 -0.6440 -0.7643
   33CHL1    C3 2369   6.463   0.706   7.159  0.4524 -0.5261 -0.5705
   33CHL1    H3 2370   6.545   0.657   7.216  1.4252  0.8728 -0.7044
   33CHL1    O3 2371   6.459   0.659   7.026  0.5150  0.8461  0.4379
   33CHL1   H3' 2372   6.508   0.717   6.968 -0.9197 -0.0974 -1.8396
   33CHL1    C4 2373   6.326   0.691   7.230  0.5627 -0.2009  0.5889
   33CHL1   H4A 2374   6.247   0.751   7.179 -1.5802 -0.5473  3.2445
   33CHL1   H4B 2375   6.286   0.588   7.228  0.3219 -0.0894 -0.6079
   33CHL1    C5 2376   6.328   0.739   7.370  0.4051  0.3367  0.0592
   33CHL1    C6 2377   6.302   0.651   7.471  0.0779 -0.0039  0.2188
   33CHL1    H6 2378   6.262   0.551   7.449 -1.0215 -0.0601  2.2657
   33CHL1    C7 2379   6.287   0.687   7.620  0.2859  0.4012 -1.0207
   33CHL1   H7A 2380   6.206   0.631   7.672  2.8054 -1.3319  1.3371
   33CHL1   H7B 2381   6.377   0.661   7.679 -1.0930 -1.6907  0.3052
   33CHL1    C8 2382   6.274   0.843   7.626 -0.0577  0.0103 -0.2267
   33CHL1    H8 2383   6.169   0.874   7.605 -0.1791 -0.6444 -0.6064
   33CHL1   C14 2384   6.315   0.884   7.769  0.2271 -0.2988  0.6958
   33CHL1   H14 2385   6.418   0.846   7.785 -0.3402 -2.0840  0.3433
   33CHL1   C15 2386   6.237   0.814   7.880 -0.2340  0.5610 -0.3231
   33CHL1  H15A 2387   6.129   0.818   7.855  0.2554  0.4337 -2.7488
   33CHL1  H15B 2388   6.278   0.714   7.904 -1.3117  0.4775  1.2818
   33CHL1   C16 2389   6.252   0.902   8.007 -0.3126 -1.0832  0.0431
   33CHL1  H16A 2390   6.149   0.925   8.038 -0.2580  0.5601 -0.8708
   33CHL1  H16B 2391   6.314   0.867   8.092 -1.8907 -0.6200  1.4320
   33CHL1   C17 2392   6.325   1.031   7.951 -0.1605 -0.3641 -0.2115
   33CHL1   H17 2393   6.434   1.008   7.959  0.0838  0.3287 -1.2436
   33CHL1   C13 2394   6.304   1.033   7.799  0.3262 -0.0464  0.3799
   33CHL1   C18 2395   6.173   1.093   7.761  0.4995 -0.5350 -0.5056
   33CHL1  H18A 2396   6.163   1.089   7.650 -1.7907 -1.0529 -0.3188
   33CHL1  H18B 2397   6.083   1.051   7.810  0.1926  1.6961  0.9458
   33CHL1  H18C 2398   6.177   1.201   7.783  1.4887 -0.3499 -1.5013
   33CHL1   C12 2399   6.417   1.097   7.723  0.2693 -0.8053  0.1420
   33CHL1  H12A 2400   6.420   1.206   7.745  2.6953 -0.7255 -0.3534
   33CHL1  H12B 2401   6.502   1.044   7.769  0.8271 -1.8676 -1.9850
   33CHL1   C11 2402   6.406   1.061   7.570  0.1664  0.5232 -0.6430
   33CHL1  H11A 2403   6.334   1.130   7.521 -0.8148 -0.8914 -1.2759
   33CHL1  H11B 2404   6.512   1.078   7.540  0.6370 -0.5576  0.3246
   33CHL1    C9 2405   6.377   0.913   7.537  0.7163 -0.3462  0.3970
   33CHL1    H9 2406   6.467   0.865   7.583 -0.2925  0.8798  3.9289
   33CHL1   C10 2407   6.370   0.889   7.390 -0.3645  0.3578 -0.3554
   33CHL1   C19 2408   6.252   0.966   7.328  0.1307 -0.6703  0.7694
   33CHL1  H19A 2409   6.267   1.076   7.319 -1.1938 -0.5576 -0.4118
   33CHL1  H19B 2410   6.229   0.945   7.222  2.3649  0.5592 -0.0157
   33CHL1  H19C 2411   6.166   0.965   7.400 -0.2853  1.2498  0.3551
   33CHL1    C1 2412   6.503   0.901   7.307 -0.4329  0.7005  0.9200
   33CHL1   H1A 2413   6.549   1.002   7.312 -1.0633  1.0328  0.2184
   33CHL1   H1B 2414   6.576   0.839   7.363 -0.6898  0.6704  1.2289
   33CHL1    C2 2415   6.501   0.854   7.161 -0.5034 -0.0498  0.4549
   33CHL1   H2A 2416   6.605   0.865   7.125 -0.4571  1.1130  0.8949
   33CHL1   H2B 2417   6.433   0.926   7.110 -0.9461  0.1592  1.3201
   33CHL1   C20 2418   6.298   1.158   8.033  0.0759  0.1507 -0.3108
   33CHL1   H20 2419   6.301   1.250   7.971 -1.4366  2.4309  2.7395
   33CHL1   C21 2420   6.418   1.165   8.135 -0.3274  0.0728 -0.7904
   33CHL1  H21A 2421   6.518   1.128   8.105  0.2539 -1.3786  2.4578
   33CHL1  H21B 2422   6.380   1.104   8.220 -0.6144 -0.3158 -1.1900
   33CHL1  H21C 2423   6.425   1.272   8.164 -2.9818  0.4250 -1.1169
   33CHL1   C22 2424   6.154   1.160   8.089  0.2030 -0.8739 -1.4766
   33CHL1  H22A 2425   6.079   1.137   8.011 -0.6950  0.4152 -1.0208
   33CHL1  H22B 2426   6.141   1.081   8.166  1.6578 -2.2112 -2.5306
   33CHL1   C23 2427   6.112   1.305   8.139  0.1989  0.6932  0.4339
   33CHL1  H23A 2428   6.188   1.326   8.219  1.6348 -0.1931 -0.6524
   33CHL1  H23B 2429   6.119   1.386   8.064  1.6514 -2.0369 -2.6031
   33CHL1   C24 2430   5.976   1.302   8.213  0.1864 -0.2627  0.3633
   33CHL1  H24A 2431   5.910   1.251   8.140  2.4740 -2.2621 -0.4413
   33CHL1  H24B 2432   5.991   1.230   8.297  3.5027 -2.3476 -1.7993
   33CHL1   C25 2433   5.906   1.425   8.267  0.0700  0.1806  0.0011
   33CHL1   H25 2434   5.878   1.490   8.181 -1.7490 -0.5195  0.0032
   33CHL1   C26 2435   5.772   1.371   8.331 -0.4326  0.1703  0.4388
   33CHL1  H26A 2436   5.706   1.461   8.337  0.8430  1.1621 -0.0138
   33CHL1  H26B 2437   5.723   1.287   8.278  2.1169 -1.3891  0.4220
   33CHL1  H26C 2438   5.786   1.321   8.429 -0.1434  2.5162  1.6601
   33CHL1   C27 2439   5.998   1.492   8.367 -0.1857 -0.4534 -1.0677
   33CHL1  H27A 2440   6.099   1.507   8.322 -0.6556  3.1524 -1.2410
   33CHL1  H27B 2441   5.952   1.590   8.392 -0.4435  0.1473 -3.6328
   33CHL1  H27C 2442   6.015   1.434   8.460  2.9317  0.6771 -0.8064
   34CHL1    C3 2443   0.140   5.303   6.853  0.3583 -0.5614 -0.7515
   34CHL1    H3 2444   0.064   5.354   6.916  0.2651 -0.5045 -0.9090
   34CHL1    O3 2445   0.122   5.335   6.714  0.3556  0.3722  0.1783
   34CHL1   H3' 2446   0.182   5.408   6.699 -0.2155  0.7192 -0.5103
   34CHL1    C4 2447   0.280   5.359   6.892 -0.0967  0.5642  0.2747
   34CHL1   H4A 2448   0.348   5.297   6.829 -2.9592 -3.1430  0.4425
   34CHL1   H4B 2449   0.281   5.469   6.877 -0.1478  0.3024 -1.9869
   34CHL1    C5 2450   0.315   5.323   7.037  0.2546 -0.4063  0.5412
   34CHL1    C6 2451   0.358   5.414   7.121 -0.5800  0.3253  0.2433
   34CHL1    H6 2452   0.379   5.516   7.085  0.7462  0.4822  1.3583
   34CHL1    C7 2453   0.402   5.377   7.259 -0.3389 -0.0980 -0.3780
   34CHL1   H7A 2454   0.505   5.414   7.278  0.0172  0.9268 -3.6425
   34CHL1   H7B 2455   0.329   5.414   7.334 -0.2440 -0.3746 -0.1508
   34CHL1    C8 2456   0.423   5.228   7.290  0.5343  0.3117 -0.3605
   34CHL1    H8 2457   0.521   5.206   7.243  1.0407 -1.1176  1.2617
   34CHL1   C14 2458   0.419   5.207   7.436 -0.2431  0.3216 -0.9295
   34CHL1   H14 2459   0.311   5.222   7.460 -0.7612 -2.1028 -1.3877
   34CHL1   C15 2460   0.508   5.301   7.524 -0.4668 -0.0122  0.7891
   34CHL1  H15A 2461   0.598   5.298   7.458  0.1753  1.7952  1.5109
   34CHL1  H15B 2462   0.476   5.407   7.536  1.7728  1.0863 -1.7359
   34CHL1   C16 2463   0.533   5.227   7.659 -0.0460 -0.6967 -0.6364
   34CHL1  H16A 2464   0.644   5.216   7.668  0.1159  0.9740 -0.2370
   34CHL1  H16B 2465   0.498   5.273   7.754 -0.5982 -1.6891 -0.3507
   34CHL1   C17 2466   0.457   5.092   7.639  0.4170 -0.6346 -0.0698
   34CHL1   H17 2467   0.353   5.107   7.674  0.4980  2.4311 -0.8903
   34CHL1   C13 2468   0.451   5.068   7.485  0.2139 -0.1850 -0.3370
   34CHL1   C18 2469   0.587   5.030   7.443 -0.5910 -0.3628  0.3042
   34CHL1  H18A 2470   0.617   4.930   7.483 -0.5009  0.1565  1.5845
   34CHL1  H18B 2471   0.603   5.028   7.334  1.0479  2.2351  0.4070
   34CHL1  H18C 2472   0.666   5.095   7.486  0.0693 -1.1684  0.3500
   34CHL1   C12 2473   0.344   4.974   7.421  0.6322 -0.0344 -0.0901
   34CHL1  H12A 2474   0.347   4.864   7.435  0.4281 -0.0491 -0.1611
   34CHL1  H12B 2475   0.250   5.018   7.461 -1.1320 -1.6889 -2.1020
   34CHL1   C11 2476   0.316   4.998   7.265  0.5921 -1.7536 -0.4355
   34CHL1  H11A 2477   0.409   4.966   7.212  2.7854  3.4467 -0.3016
   34CHL1  H11B 2478   0.229   4.939   7.231 -1.5530  0.8023  0.2966
   34CHL1    C9 2479   0.303   5.147   7.225  0.1822  0.0951  0.0654
   34CHL1    H9 2480   0.211   5.180   7.279  0.0590  0.8077 -0.5727
   34CHL1   C10 2481   0.293   5.179   7.073  0.1447  0.3724 -0.2585
   34CHL1   C19 2482   0.409   5.107   7.002 -0.0934  0.5026  0.6989
   34CHL1  H19A 2483   0.394   4.998   7.012 -1.2109  0.5659 -0.1041
   34CHL1  H19B 2484   0.410   5.116   6.891  2.7931  1.4702  0.7247
   34CHL1  H19C 2485   0.511   5.143   7.027  1.0535 -1.6912 -0.5019
   34CHL1    C1 2486   0.157   5.118   7.019  0.8138 -0.1853 -0.3107
   34CHL1   H1A 2487   0.149   5.008   7.033  1.0124 -0.1060  0.4445
   34CHL1   H1B 2488   0.075   5.158   7.082  0.7479 -1.5548  0.5192
   34CHL1    C2 2489   0.135   5.153   6.874  0.0401  0.5338 -0.1329
   34CHL1   H2A 2490   0.038   5.120   6.832  1.1600  1.2157 -3.6152
   34CHL1   H2B 2491   0.219   5.104   6.820  1.6403  0.2423  2.4457
   34CHL1   C20 2492   0.511   4.978   7.730 -0.0145 -0.4652  0.3309
   34CHL1   H20 2493   0.619   4.960   7.708 -0.1637 -0.1148 -0.7575
   34CHL1   C21 2494   0.442   4.839   7.707  0.0579 -0.0138  0.5487
   34CHL1  H21A 2495   0.481   4.768   7.783 -0.9253 -2.0410 -0.7580
   34CHL1  H21B 2496   0.478   4.791   7.613  1.3876 -1.7867  1.8945
   34CHL1  H21C 2497   0.332   4.841   7.690  0.3691  0.8857 -1.7788
   34CHL1   C22 2498   0.518   5.024   7.878 -0.3975 -0.4840 -0.1536
   34CHL1  H22A 2499   0.587   5.110   7.890  0.6312 -1.3268  0.1251
   34CHL1  H22B 2500   0.416   5.064   7.898  0.3483  0.2329  2.6327
   34CHL1   C23 2501   0.567   4.932   7.993 -0.0964  0.6317 -0.8098
   34CHL1  H23A 2502   0.517   4.834   7.981  0.0112  0.7370 -2.2785
   34CHL1  H23B 2503   0.677   4.919   7.988 -0.2506 -0.9594 -0.6374
   34CHL1   C24 2504   0.540   4.988   8.136 -0.4098  0.4611  0.5944
   34CHL1  H24A 2505   0.607   5.073   8.162  2.2818 -1.4792  0.3918
   34CHL1  H24B 2506   0.436   5.027   8.126  0.0057  1.2314 -1.1228
   34CHL1   C25 2507   0.559   4.890   8.253 -0.4190 -0.0911  0.0467
   34CHL1   H25 2508   0.516   4.791   8.226 -1.0105  0.6494 -1.8855
   34CHL1   C26 2509   0.709   4.877   8.280 -1.0451 -0.2595 -0.3860
   34CHL1  H26A 2510   0.760   4.824   8.196  0.7490  1.6818 -0.5959
   34CHL1  H26B 2511   0.749   4.981   8.277 -0.3241 -0.5500 -1.3517
   34CHL1  H26C 2512   0.734   4.824   8.375  1.8914  1.4261 -0.1044
   34CHL1   C27 2513   0.486   4.933   8.379 -0.8553 -0.4564 -0.4362
   34CHL1  H27A 2514   0.520   5.034   8.410 -0.3309 -0.5311 -0.7420
   34CHL1  H27B 2515   0.378   4.938   8.354 -0.8358 -1.4853 -0.7550
   34CHL1  H27C 2516   0.510   4.861   8.460 -2.1959  0.1902  0.5675
   35CHL1    C3 2517   2.808   5.583   7.081  0.5792 -0.1644 -0.4615
   35CHL1    H3 2518   2.806   5.472   7.073 -0.2664 -0.1561 -0.5236
   35CHL1    O3 2519   2.811   5.619   6.945 -0.5027  0.1475 -0.7191
   35CHL1   H3' 2520   2.883   5.682   6.936  1.0164 -1.2346  0.9734
   35CHL1    C4 2521   2.683   5.657   7.137 -0.5222  1.0711 -0.5254
   35CHL1   H4A 2522   2.699   5.765   7.119  1.1417  1.2218  1.4095
   35CHL1   H4B 2523   2.594   5.607   7.093  0.9032 -2.2102  0.0253
   35CHL1    C5 2524   2.676   5.648   7.283  0.0569  0.1104  0.0083
   35CHL1    C6 2525   2.561   5.602   7.337  0.2418  0.5421  0.4259
   35CHL1    H6 2526   2.489   5.556   7.267  2.1918 -1.8548 -0.1522
   35CHL1    C7 2527   2.526   5.592   7.481  0.1681  0.0553 -0.2959
   35CHL1   H7A 2528   2.435   5.650   7.507  0.9225  0.8857  0.5609
   35CHL1   H7B 2529   2.520   5.487   7.518  3.5876 -0.8646 -2.0079
   35CHL1    C8 2530   2.625   5.676   7.567  0.0336 -0.1054  0.3429
   35CHL1    H8 2531   2.600   5.784   7.558 -0.4058 -0.3742 -2.8167
   35CHL1   C14 2532   2.618   5.635   7.714 -0.3787 -0.7335  0.1476
   35CHL1   H14 2533   2.658   5.532   7.726  0.8125 -0.4505 -1.1414
   35CHL1   C15 2534   2.482   5.635   7.779  0.8365 -0.0749  0.5567
   35CHL1  H15A 2535   2.418   5.719   7.743  0.1506 -1.3885 -1.5235
   35CHL1  H15B 2536   2.426   5.547   7.740  1.6190 -0.1127 -0.5238
   35CHL1   C16 2537   2.505   5.651   7.928 -0.0214 -0.7311  0.7055
   35CHL1  H16A 2538   2.454   5.743   7.964  0.0071 -0.2366 -0.4810
   35CHL1  H16B 2539   2.461   5.567   7.986 -0.2914  0.2219  1.9250
   35CHL1   C17 2540   2.658   5.668   7.945 -0.2267  0.0200 -0.0288
   35CHL1   H17 2541   2.695   5.565   7.967 -1.3188 -0.6099 -0.9999
   35CHL1   C13 2542   2.706   5.723   7.809 -1.2761  0.3388 -1.1159
   35CHL1   C18 2543   2.676   5.867   7.803  0.2485 -0.3405  0.4493
   35CHL1  H18A 2544   2.679   5.917   7.704 -0.8664  0.1621  0.6531
   35CHL1  H18B 2545   2.571   5.891   7.832 -0.3045  1.2566 -2.4712
   35CHL1  H18C 2546   2.734   5.931   7.873 -0.5722 -1.0996  1.8743
   35CHL1   C12 2547   2.859   5.696   7.771  0.3160 -0.3462  0.1227
   35CHL1  H12A 2548   2.922   5.773   7.821 -0.0093  0.5044 -0.7326
   35CHL1  H12B 2549   2.896   5.597   7.805  1.4649  0.3565  0.9902
   35CHL1   C11 2550   2.876   5.722   7.616 -0.2076  0.3565 -0.1796
   35CHL1  H11A 2551   2.850   5.830   7.614  2.7479  1.2081  1.6832
   35CHL1  H11B 2552   2.980   5.708   7.580 -0.0653 -1.4113  0.8175
   35CHL1    C9 2553   2.778   5.658   7.512  0.5585  0.2564  0.5546
   35CHL1    H9 2554   2.800   5.549   7.513  1.6540  0.4667  0.3106
   35CHL1   C10 2555   2.798   5.696   7.364 -0.0483 -0.1498 -0.1830
   35CHL1   C19 2556   2.817   5.849   7.345  0.2337 -0.2303 -0.5433
   35CHL1  H19A 2557   2.911   5.876   7.397 -1.1767  1.9057  1.0609
   35CHL1  H19B 2558   2.829   5.878   7.238 -2.9524  3.0974 -0.2189
   35CHL1  H19C 2559   2.734   5.916   7.378  0.1745 -0.1084 -0.9318
   35CHL1    C1 2560   2.922   5.621   7.306 -0.5913  0.8485  0.1226
   35CHL1   H1A 2561   3.015   5.662   7.351  1.8660 -3.4304 -0.5067
   35CHL1   H1B 2562   2.908   5.514   7.332  0.5517  0.6760  0.0946
   35CHL1    C2 2563   2.936   5.620   7.150 -0.2372 -1.6353 -0.4176
   35CHL1   H2A 2564   3.020   5.550   7.130 -0.2385 -1.8248  0.1992
   35CHL1   H2B 2565   2.976   5.715   7.110  2.2000 -2.6300 -0.4923
   35CHL1   C20 2566   2.685   5.752   8.076  0.6949 -0.0332  0.2048
   35CHL1   H20 2567   2.640   5.853   8.069 -2.7651 -1.4092  0.3665
   35CHL1   C21 2568   2.834   5.761   8.097 -0.3961 -0.1813 -0.7579
   35CHL1  H21A 2569   2.893   5.668   8.085  1.6022  0.6496  1.6858
   35CHL1  H21B 2570   2.858   5.800   8.198  1.0822 -0.0400 -1.1433
   35CHL1  H21C 2571   2.880   5.834   8.028 -1.4753  0.3212 -0.9629
   35CHL1   C22 2572   2.630   5.680   8.206 -0.0296 -0.4004  0.0123
   35CHL1  H22A 2573   2.523   5.653   8.190  0.2990 -0.6543 -2.0063
   35CHL1  H22B 2574   2.690   5.589   8.228  0.6373  0.0630  0.1407
   35CHL1   C23 2575   2.623   5.767   8.333  0.3057  0.0088 -0.1622
   35CHL1  H23A 2576   2.722   5.770   8.383 -0.5906 -1.5440  1.8301
   35CHL1  H23B 2577   2.600   5.873   8.309  1.7722  0.9033  2.0790
   35CHL1   C24 2578   2.529   5.708   8.447 -0.7315 -0.2063  0.3144
   35CHL1  H24A 2579   2.421   5.717   8.421 -1.1234 -1.2874  1.4450
   35CHL1  H24B 2580   2.549   5.599   8.456 -0.6032 -0.3454 -1.3686
   35CHL1   C25 2581   2.548   5.770   8.583 -0.2026 -0.5556  0.3854
   35CHL1   H25 2582   2.655   5.765   8.614 -0.4858  0.7671  1.6819
   35CHL1   C26 2583   2.503   5.917   8.592  0.6564 -0.3640  0.4438
   35CHL1  H26A 2584   2.398   5.919   8.556  0.4040 -1.1324  1.1167
   35CHL1  H26B 2585   2.511   5.962   8.693 -0.6627  0.8277  0.0518
   35CHL1  H26C 2586   2.565   5.979   8.523 -1.7556 -0.0363 -1.5636
   35CHL1   C27 2587   2.468   5.692   8.690 -0.2930 -0.0604 -0.1569
   35CHL1  H27A 2588   2.357   5.697   8.678 -0.2965  0.2588  0.0011
   35CHL1  H27B 2589   2.483   5.745   8.786 -0.5742  0.9172 -0.6392
   35CHL1  H27C 2590   2.508   5.588   8.689 -2.9458 -1.1719  0.5542
   36CHL1    C3 2591   5.891   0.926   7.083  0.6660 -0.3821  0.9309
   36CHL1    H3 2592   5.967   1.003   7.110 -0.7930  1.0046  1.2079
   36CHL1    O3 2593   5.917   0.892   6.945  0.0706  0.0138 -0.0474
   36CHL1   H3' 2594   5.846   0.832   6.918  1.4274 -1.4127 -0.6003
   36CHL1    C4 2595   5.898   0.794   7.157  0.1858  0.0822 -0.8417
   36CHL1   H4A 2596   5.841   0.709   7.112 -1.3218 -0.0725  1.2361
   36CHL1   H4B 2597   6.005   0.763   7.156  0.1499 -0.3460  1.7766
   36CHL1    C5 2598   5.853   0.824   7.294 -0.1063  0.1194 -0.0558
   36CHL1    C6 2599   5.940   0.794   7.396  0.2012 -0.6693 -0.3303
   36CHL1    H6 2600   6.037   0.747   7.377  1.6053  2.0046 -0.3629
   36CHL1    C7 2601   5.909   0.815   7.538  0.2506 -0.5286 -0.2724
   36CHL1   H7A 2602   5.940   0.725   7.596  0.4916  0.8688  1.8710
   36CHL1   H7B 2603   5.968   0.903   7.571  1.5634 -1.0565 -1.0919
   36CHL1    C8 2604   5.762   0.842   7.576 -0.1449  0.0945  0.3946
   36CHL1    H8 2605   5.721   0.741   7.557  1.8122 -0.9245  1.2866
   36CHL1   C14 2606   5.741   0.896   7.716 -0.2928 -0.2215 -0.0926
   36CHL1   H14 2607   5.786   0.997   7.709  0.9364 -0.7501 -0.0870
   36CHL1   C15 2608   5.822   0.834   7.830 -0.3557  0.5550 -0.5160
   36CHL1  H15A 2609   5.804   0.726   7.845 -0.5297  0.7236  0.5600
   36CHL1  H15B 2610   5.928   0.864   7.817  0.1890 -0.6379  0.9859
   36CHL1   C16 2611   5.760   0.902   7.953  0.4550 -0.4511 -0.3667
   36CHL1  H16A 2612   5.736   0.830   8.035  1.0358  0.2566  0.4393
   36CHL1  H16B 2613   5.837   0.974   7.988 -0.7600  0.8655 -0.3614
   36CHL1   C17 2614   5.626   0.979   7.909 -0.1814 -0.4004  0.1104
   36CHL1   H17 2615   5.684   1.073   7.900  0.9215 -0.8769  1.7415
   36CHL1   C13 2616   5.600   0.927   7.764  0.1450  0.5479  0.9974
   36CHL1   C18 2617   5.507   0.802   7.779  0.5976  0.3124  0.4577
   36CHL1  H18A 2618   5.402   0.839   7.783  0.8503  1.3177 -1.0628
   36CHL1  H18B 2619   5.524   0.735   7.692 -1.9043  0.5686 -0.2860
   36CHL1  H18C 2620   5.545   0.743   7.865  2.9031  0.9015 -0.0638
   36CHL1   C12 2621   5.540   1.019   7.656  0.1612  0.6282  0.3570
   36CHL1  H12A 2622   5.433   1.030   7.686 -0.4813  1.5895 -2.0304
   36CHL1  H12B 2623   5.586   1.120   7.666  1.9819 -0.2452  1.2856
   36CHL1   C11 2624   5.553   0.969   7.511 -0.6925 -0.2014  0.0095
   36CHL1  H11A 2625   5.497   0.873   7.507  0.6966 -1.0954  0.8616
   36CHL1  H11B 2626   5.501   1.050   7.456 -1.2057  1.1880  2.3976
   36CHL1    C9 2627   5.704   0.941   7.471  0.3438  0.2686  0.0504
   36CHL1    H9 2628   5.755   1.039   7.479  1.7025 -0.1907 -2.0916
   36CHL1   C10 2629   5.721   0.886   7.326 -0.1385 -0.1675 -0.6063
   36CHL1   C19 2630   5.603   0.794   7.288 -0.2026  0.0383  0.2984
   36CHL1  H19A 2631   5.635   0.736   7.199  0.4424  1.9468 -0.7791
   36CHL1  H19B 2632   5.567   0.728   7.370 -1.0705 -0.0689 -0.1644
   36CHL1  H19C 2633   5.519   0.863   7.265  0.1260  0.8828  1.5213
   36CHL1    C1 2634   5.722   1.010   7.237  0.5077 -0.6788 -0.1922
   36CHL1   H1A 2635   5.624   1.061   7.248  2.1255  2.7933 -0.4506
   36CHL1   H1B 2636   5.793   1.085   7.278  2.1782 -1.3127 -1.7702
   36CHL1    C2 2637   5.751   0.994   7.088 -0.5152  0.4824  0.1825
   36CHL1   H2A 2638   5.751   1.085   7.025 -2.1871 -0.3059 -1.0295
   36CHL1   H2B 2639   5.676   0.929   7.039  0.6688  0.9992 -2.4975
   36CHL1   C20 2640   5.514   0.988   8.005 -0.8284 -0.1739  0.4880
   36CHL1   H20 2641   5.475   0.886   8.026 -0.9217  0.4059  3.6865
   36CHL1   C21 2642   5.403   1.084   7.950 -0.4422  0.2916  0.6666
   36CHL1  H21A 2643   5.447   1.171   7.897 -0.5317  1.4355  2.3923
   36CHL1  H21B 2644   5.344   1.125   8.035 -0.1485  1.6149  0.2582
   36CHL1  H21C 2645   5.343   1.034   7.871  0.9114  0.1594 -0.3128
   36CHL1   C22 2646   5.554   1.051   8.147 -0.0642 -0.7332  0.1726
   36CHL1  H22A 2647   5.655   1.025   8.186  0.4856  1.2139  0.1595
   36CHL1  H22B 2648   5.550   1.161   8.135 -1.5553 -0.6478  1.2086
   36CHL1   C23 2649   5.460   1.004   8.255 -0.2944 -0.0739  0.7210
   36CHL1  H23A 2650   5.360   1.050   8.236  0.2662  0.7785 -0.2892
   36CHL1  H23B 2651   5.459   0.893   8.259  2.3684 -0.1795  0.4864
   36CHL1   C24 2652   5.496   1.046   8.403 -0.0570  0.0627  0.0121
   36CHL1  H24A 2653   5.584   0.986   8.433 -0.8935 -1.1188  0.1437
   36CHL1  H24B 2654   5.524   1.154   8.412  0.8510  0.0906 -2.2570
   36CHL1   C25 2655   5.380   1.030   8.500 -0.0878 -0.4092  0.0291
   36CHL1   H25 2656   5.290   1.074   8.451  1.3182  0.9239 -1.5021
   36CHL1   C26 2657   5.363   0.885   8.544  0.0768 -0.3596 -0.3589
   36CHL1  H26A 2658   5.432   0.869   8.630  0.0208  1.3461  0.0392
   36CHL1  H26B 2659   5.263   0.855   8.582  0.6128  0.1503  1.5761
   36CHL1  H26C 2660   5.385   0.804   8.471 -0.4503 -1.4843  0.6943
   36CHL1   C27 2661   5.404   1.108   8.630 -0.3360  0.1625 -0.3073
   36CHL1  H27A 2662   5.312   1.093   8.691  0.2596 -0.3192  0.5070
   36CHL1  H27B 2663   5.491   1.060   8.679 -0.6915 -1.6372 -1.3619
   36CHL1  H27C 2664   5.424   1.215   8.608  0.7384  0.2817  1.0999
   37CHL1    C3 2665   1.445   0.312   7.041 -0.3384 -0.4131  0.1809
   37CHL1    H3 2666   1.346   0.361   7.029  1.3773  2.9201 -1.6192
   37CHL1    O3 2667   1.483   0.238   6.928 -0.1679 -0.5265 -0.4792
   37CHL1   H3' 2668   1.405   0.188   6.902 -0.3048 -0.0208 -1.0541
   37CHL1    C4 2669   1.549   0.431   7.063  0.8405 -0.0395 -0.2181
   37CHL1   H4A 2670   1.645   0.376   7.065 -0.0418 -1.6744 -0.5124
   37CHL1   H4B 2671   1.538   0.488   6.968  1.2796 -0.4213 -0.5009
   37CHL1    C5 2672   1.505   0.508   7.187 -0.3445  0.8431  0.7823
   37CHL1    C6 2673   1.488   0.641   7.183  0.0564  0.4890 -0.1316
   37CHL1    H6 2674   1.513   0.691   7.088 -0.3220  0.1945 -0.3874
   37CHL1    C7 2675   1.451   0.724   7.307 -0.3354 -0.6641  0.2643
   37CHL1   H7A 2676   1.528   0.803   7.315  0.5849 -1.5014 -0.0523
   37CHL1   H7B 2677   1.358   0.782   7.295  0.2069  0.4144  1.0776
   37CHL1    C8 2678   1.456   0.639   7.440  0.6443 -0.7659  0.2902
   37CHL1    H8 2679   1.563   0.623   7.463  0.8723 -0.7006 -0.6879
   37CHL1   C14 2680   1.377   0.707   7.545  0.4596 -0.3156  1.3442
   37CHL1   H14 2681   1.274   0.719   7.506  1.2850  3.8739 -0.0469
   37CHL1   C15 2682   1.411   0.857   7.569 -0.6674 -0.4718 -0.2752
   37CHL1  H15A 2683   1.519   0.867   7.546 -0.1317 -2.6625  0.9565
   37CHL1  H15B 2684   1.350   0.936   7.521 -1.3997  0.5583  2.1873
   37CHL1   C16 2685   1.387   0.881   7.717  0.6090  0.1906 -1.2459
   37CHL1  H16A 2686   1.486   0.899   7.764 -0.3921  3.2790 -0.1060
   37CHL1  H16B 2687   1.315   0.963   7.736 -1.5364 -1.9684  0.6544
   37CHL1   C17 2688   1.307   0.748   7.763  0.0333 -0.2211 -0.2734
   37CHL1   H17 2689   1.206   0.767   7.720  0.1546  3.2607  0.6699
   37CHL1   C13 2690   1.375   0.642   7.685 -0.0613 -0.2862 -0.1783
   37CHL1   C18 2691   1.516   0.615   7.733  0.3753 -0.1189  0.2575
   37CHL1  H18A 2692   1.583   0.562   7.663  0.0743  0.4385 -0.4644
   37CHL1  H18B 2693   1.577   0.700   7.769  3.5428 -0.9447 -2.6468
   37CHL1  H18C 2694   1.508   0.537   7.812  2.9405 -0.8578 -0.1240
   37CHL1   C12 2695   1.294   0.504   7.670 -0.3982  0.3875  0.0023
   37CHL1  H12A 2696   1.325   0.447   7.760  1.8186  1.6063  0.0787
   37CHL1  H12B 2697   1.185   0.526   7.662 -0.9117 -1.2848  1.5412
   37CHL1   C11 2698   1.353   0.424   7.550 -0.3033 -0.0094 -0.5804
   37CHL1  H11A 2699   1.444   0.373   7.589 -1.1868 -0.2575  1.2718
   37CHL1  H11B 2700   1.296   0.335   7.516 -2.2140  1.0942 -0.3886
   37CHL1    C9 2701   1.395   0.502   7.414 -0.2879  0.2543  0.0312
   37CHL1    H9 2702   1.295   0.508   7.365 -0.5755 -2.2158  0.1843
   37CHL1   C10 2703   1.478   0.414   7.317 -0.3052 -0.4575  0.4043
   37CHL1   C19 2704   1.616   0.387   7.370 -0.2847  0.6418  0.1781
   37CHL1  H19A 2705   1.662   0.299   7.320 -1.8529 -0.2455  0.2509
   37CHL1  H19B 2706   1.684   0.475   7.361  0.8304 -0.2468 -0.4529
   37CHL1  H19C 2707   1.617   0.368   7.480  2.1509 -1.8644 -0.1655
   37CHL1    C1 2708   1.413   0.276   7.289  0.0538  0.9777  0.4494
   37CHL1   H1A 2709   1.432   0.203   7.371  2.0324  0.8313 -0.0680
   37CHL1   H1B 2710   1.303   0.288   7.288 -0.0085  0.4671  0.7000
   37CHL1    C2 2711   1.456   0.217   7.160 -0.2039 -0.5215  0.1251
   37CHL1   H2A 2712   1.403   0.120   7.147 -0.0750 -0.9407  2.3591
   37CHL1   H2B 2713   1.565   0.196   7.163  0.0524  0.6542 -0.2675
   37CHL1   C20 2714   1.295   0.725   7.919  0.4075  0.3336  0.1936
   37CHL1   H20 2715   1.388   0.678   7.960 -0.2826 -1.3734 -0.1059
   37CHL1   C21 2716   1.186   0.627   7.959  0.2687 -0.1185 -0.5418
   37CHL1  H21A 2717   1.094   0.648   7.900 -2.4339  1.1421  3.7103
   37CHL1  H21B 2718   1.169   0.612   8.067 -0.0228  0.6209 -0.4833
   37CHL1  H21C 2719   1.213   0.525   7.923  0.2107 -0.0902 -0.6665
   37CHL1   C22 2720   1.273   0.851   8.003 -0.8634 -0.1630  0.8457
   37CHL1  H22A 2721   1.336   0.935   7.965  1.2157 -2.0545 -0.0935
   37CHL1  H22B 2722   1.166   0.880   7.994 -0.5540  0.6498 -0.5607
   37CHL1   C23 2723   1.323   0.834   8.149 -0.7415  0.0524 -0.2043
   37CHL1  H23A 2724   1.253   0.766   8.201 -0.7401 -1.2797 -1.8499
   37CHL1  H23B 2725   1.419   0.778   8.155 -1.1744 -0.7854 -0.8587
   37CHL1   C24 2726   1.318   0.968   8.232  0.3308 -0.3560 -0.2551
   37CHL1  H24A 2727   1.349   1.050   8.163 -0.6170  2.2415  2.2116
   37CHL1  H24B 2728   1.212   0.993   8.251  0.5900  0.9439 -0.3859
   37CHL1   C25 2729   1.401   0.964   8.360 -0.1603  0.0168  0.0019
   37CHL1   H25 2730   1.507   0.944   8.334 -0.0517 -1.4814  1.4724
   37CHL1   C26 2731   1.392   1.099   8.434 -0.2462  0.2796  0.5346
   37CHL1  H26A 2732   1.473   1.100   8.510 -0.8966 -1.7656  1.3343
   37CHL1  H26B 2733   1.410   1.181   8.362  0.8932 -1.2362 -0.9864
   37CHL1  H26C 2734   1.286   1.108   8.466 -0.0713  0.5608  1.0452
   37CHL1   C27 2735   1.358   0.838   8.443 -0.4634 -0.3032 -0.6487
   37CHL1  H27A 2736   1.398   0.862   8.543 -3.9514  3.0062  0.2266
   37CHL1  H27B 2737   1.248   0.839   8.461 -0.1832  0.9630  1.3078
   37CHL1  H27C 2738   1.391   0.739   8.406  1.4851  0.4203 -0.9434
   38CHL1    C3 2739   4.228   3.545   6.500  0.3942 -0.1717 -0.0587
   38CHL1    H3 2740   4.306   3.623   6.486  0.5944 -0.5913 -1.3964
   38CHL1    O3 2741   4.190   3.507   6.371  0.5412 -0.3007  0.0581
   38CHL1   H3' 2742   4.168   3.414   6.375  2.0293 -0.6542  0.7010
   38CHL1    C4 2743   4.296   3.427   6.576 -0.0658 -0.0931 -0.4866
   38CHL1   H4A 2744   4.224   3.343   6.575  0.0463 -0.1903 -0.4234
   38CHL1   H4B 2745   4.381   3.390   6.514 -1.5839 -0.1576 -2.6250
   38CHL1    C5 2746   4.325   3.448   6.724 -0.5186 -1.0688 -0.3984
   38CHL1    C6 2747   4.442   3.420   6.771  0.3053  0.2533 -0.0490
   38CHL1    H6 2748   4.515   3.378   6.699  0.5390 -0.9389  0.8507
   38CHL1    C7 2749   4.491   3.421   6.913  0.5066 -0.3432  0.2142
   38CHL1   H7A 2750   4.546   3.327   6.934  1.7277 -0.5294 -3.2412
   38CHL1   H7B 2751   4.544   3.518   6.926 -1.3595  0.8089 -0.3446
   38CHL1    C8 2752   4.372   3.440   7.004  0.4594  0.5279  0.0617
   38CHL1    H8 2753   4.322   3.341   7.005  0.0911  0.7113  0.8073
   38CHL1   C14 2754   4.423   3.476   7.143  0.6719  0.2969 -0.6067
   38CHL1   H14 2755   4.470   3.576   7.129  2.0917 -0.4406 -1.3825
   38CHL1   C15 2756   4.540   3.389   7.202 -0.0027  0.0859  0.5228
   38CHL1  H15A 2757   4.530   3.278   7.200  4.6394 -0.5131 -0.3808
   38CHL1  H15B 2758   4.638   3.413   7.156  0.2525  0.4889  1.2609
   38CHL1   C16 2759   4.533   3.433   7.350 -0.2159  0.0927  0.4390
   38CHL1  H16A 2760   4.522   3.342   7.413  0.2875  1.1320  2.1030
   38CHL1  H16B 2761   4.630   3.478   7.378 -0.0123  0.2099 -0.4235
   38CHL1   C17 2762   4.411   3.530   7.366 -0.0437 -0.4887  0.5620
   38CHL1   H17 2763   4.438   3.637   7.353  0.0376 -0.7053 -1.4482
   38CHL1   C13 2764   4.317   3.503   7.249  0.6314  0.5032  0.7435
   38CHL1   C18 2765   4.241   3.368   7.274 -0.0511 -0.1837 -0.3436
   38CHL1  H18A 2766   4.221   3.313   7.179  0.5355  3.0487 -2.4969
   38CHL1  H18B 2767   4.311   3.306   7.333 -0.8121  0.4474  1.3133
   38CHL1  H18C 2768   4.147   3.384   7.332 -0.0243 -0.2698 -0.2768
   38CHL1   C12 2769   4.225   3.617   7.200 -0.1694  0.4067 -0.6417
   38CHL1  H12A 2770   4.143   3.636   7.272  1.1324 -1.6694  1.5550
   38CHL1  H12B 2771   4.289   3.707   7.192 -0.5659  0.6446 -1.2234
   38CHL1   C11 2772   4.166   3.585   7.059 -0.1247 -0.6479 -0.0881
   38CHL1  H11A 2773   4.088   3.506   7.071  0.3383 -1.2220 -0.7382
   38CHL1  H11B 2774   4.122   3.678   7.017  0.7523 -0.8065 -1.4204
   38CHL1    C9 2775   4.267   3.542   6.950 -0.4906 -0.1489 -1.2907
   38CHL1    H9 2776   4.335   3.630   6.942 -1.7809  1.0011 -0.1222
   38CHL1   C10 2777   4.210   3.503   6.812  0.0200  1.0598  0.1357
   38CHL1   C19 2778   4.094   3.400   6.834 -0.4285  0.0005  0.3051
   38CHL1  H19A 2779   4.000   3.445   6.873 -0.9221 -0.5830 -0.1975
   38CHL1  H19B 2780   4.061   3.369   6.733 -0.7403  1.2054  0.0236
   38CHL1  H19C 2781   4.114   3.319   6.907  1.1786 -1.5568 -1.7560
   38CHL1    C1 2782   4.141   3.622   6.735 -0.5648  0.0616 -0.7963
   38CHL1   H1A 2783   4.050   3.643   6.795 -0.5603  1.0269 -1.1158
   38CHL1   H1B 2784   4.202   3.714   6.745  0.4759 -0.8078  1.3631
   38CHL1    C2 2785   4.104   3.595   6.582 -0.6405 -0.5400 -0.4522
   38CHL1   H2A 2786   4.066   3.691   6.539 -0.6557 -0.1551  0.3985
   38CHL1   H2B 2787   4.026   3.518   6.572 -3.7507  1.9723  2.1991
   38CHL1   C20 2788   4.355   3.519   7.511  0.4117  0.3389 -0.0283
   38CHL1   H20 2789   4.318   3.418   7.539 -1.6399  0.8427 -0.7864
   38CHL1   C21 2790   4.242   3.619   7.520  0.5871 -0.6294 -0.4919
   38CHL1  H21A 2791   4.198   3.630   7.622  2.1215  0.7008  0.0694
   38CHL1  H21B 2792   4.149   3.582   7.473  0.5405  0.6682 -1.4462
   38CHL1  H21C 2793   4.269   3.719   7.481 -1.1993  1.2421  2.6550
   38CHL1   C22 2794   4.469   3.553   7.605  0.1436  0.1161 -0.1981
   38CHL1  H22A 2795   4.566   3.501   7.591  1.0989  1.9498 -0.7334
   38CHL1  H22B 2796   4.486   3.662   7.592 -1.0056  0.3595  0.2701
   38CHL1   C23 2797   4.423   3.523   7.747 -0.3369  0.4442  0.1552
   38CHL1  H23A 2798   4.333   3.578   7.780 -0.2265  0.6981  0.0347
   38CHL1  H23B 2799   4.402   3.414   7.754 -0.2349  0.4517  0.5824
   38CHL1   C24 2800   4.534   3.570   7.849  0.4454  0.8169  0.4022
   38CHL1  H24A 2801   4.631   3.531   7.810 -0.1540 -1.1621  0.7758
   38CHL1  H24B 2802   4.549   3.680   7.836  0.8401  0.6626 -0.5606
   38CHL1   C25 2803   4.513   3.526   7.998  0.3217  0.7609  1.0105
   38CHL1   H25 2804   4.462   3.428   7.992  1.3833  0.2806 -2.5741
   38CHL1   C26 2805   4.645   3.524   8.070  0.0510 -0.2605  0.4513
   38CHL1  H26A 2806   4.712   3.461   8.008 -1.7859 -1.5032 -0.3593
   38CHL1  H26B 2807   4.684   3.628   8.073  0.4253 -0.4176  1.5398
   38CHL1  H26C 2808   4.632   3.496   8.177  2.7335 -2.4663  0.3327
   38CHL1   C27 2809   4.405   3.618   8.065 -0.2972  0.1449 -0.7911
   38CHL1  H27A 2810   4.371   3.571   8.159  0.5543  0.7504 -0.1597
   38CHL1  H27B 2811   4.450   3.717   8.088 -1.2484  0.4485 -0.1754
   38CHL1  H27C 2812   4.323   3.632   7.991 -0.0428  0.2926 -1.0472
   39CHL1    C3 2813   4.035   0.042   7.053  0.1164 -0.4171 -0.0315
   39CHL1    H3 2814   4.089  -0.054   7.068  0.7176 -0.0816 -0.0106
   39CHL1    O3 2815   3.992   0.065   6.919 -0.1495 -0.5924 -0.5108
   39CHL1   H3' 2816   3.935   0.142   6.912 -0.5874 -0.8953 -0.3029
   39CHL1    C4 2817   3.918   0.035   7.147  0.4238  0.6077  0.4348
   39CHL1   H4A 2818   3.856   0.124   7.120  0.0091  0.4569  0.8941
   39CHL1   H4B 2819   3.864  -0.058   7.121  2.8832 -0.4425 -1.2899
   39CHL1    C5 2820   3.954   0.038   7.291 -0.5720 -0.2876  0.0393
   39CHL1    C6 2821   3.904  -0.054   7.376 -0.1212 -0.1048  0.0061
   39CHL1    H6 2822   3.831  -0.125   7.332  0.1247  0.1905 -0.9054
   39CHL1    C7 2823   3.917  -0.054   7.526 -0.7180 -0.0585 -0.1022
   39CHL1   H7A 2824   3.818  -0.059   7.576  0.8853 -1.2421  3.2513
   39CHL1   H7B 2825   3.973  -0.145   7.559 -0.5450  0.8112  2.1694
   39CHL1    C8 2826   3.979   0.078   7.570 -0.1841  0.1614 -0.0981
   39CHL1    H8 2827   3.903   0.158   7.575 -0.2276  0.1691 -0.8084
   39CHL1   C14 2828   4.027   0.062   7.709 -0.4041 -0.2811 -0.7829
   39CHL1   H14 2829   4.105  -0.017   7.710 -0.6178 -0.4996 -1.1086
   39CHL1   C15 2830   3.927   0.009   7.813  0.4827 -0.0196  0.0253
   39CHL1  H15A 2831   3.821   0.042   7.804  0.8877  1.1709 -0.5655
   39CHL1  H15B 2832   3.926  -0.102   7.819 -2.9058 -0.0086  2.8960
   39CHL1   C16 2833   3.981   0.054   7.951  0.3733  0.3686  1.1678
   39CHL1  H16A 2834   3.911   0.115   8.012 -0.4604  0.0399  0.5588
   39CHL1  H16B 2835   4.021  -0.031   8.010  0.7164 -1.1040 -1.0852
   39CHL1   C17 2836   4.107   0.133   7.914 -0.2225  0.4100 -0.1739
   39CHL1   H17 2837   4.186   0.055   7.901 -0.9073 -0.0216 -2.1941
   39CHL1   C13 2838   4.092   0.179   7.773 -0.0572 -0.1004  1.0268
   39CHL1   C18 2839   3.993   0.299   7.781 -0.1821  0.4030  0.2281
   39CHL1  H18A 2840   3.898   0.264   7.828  0.1486 -0.7011  0.0786
   39CHL1  H18B 2841   4.041   0.376   7.845  2.6166 -0.5347 -0.6328
   39CHL1  H18C 2842   3.966   0.339   7.681 -3.5802 -1.4422  0.2399
   39CHL1   C12 2843   4.220   0.205   7.686 -0.5487 -1.2556 -0.4403
   39CHL1  H12A 2844   4.259   0.305   7.715 -2.2907 -0.1641 -1.6555
   39CHL1  H12B 2845   4.291   0.120   7.687 -0.7426 -1.4138  0.1012
   39CHL1   C11 2846   4.187   0.228   7.544  0.3821 -0.4035  0.4364
   39CHL1  H11A 2847   4.129   0.323   7.539 -1.2404 -1.4234 -2.9502
   39CHL1  H11B 2848   4.275   0.246   7.479 -1.7069  1.2340 -2.1296
   39CHL1    C9 2849   4.094   0.119   7.479  0.0870  0.0703 -0.0227
   39CHL1    H9 2850   4.162   0.033   7.463  1.2692  0.6758  1.5174
   39CHL1   C10 2851   4.047   0.156   7.331 -0.5002  0.6653  0.6449
   39CHL1   C19 2852   3.964   0.283   7.335 -0.0737 -0.2720 -0.3379
   39CHL1  H19A 2853   3.912   0.305   7.239 -0.6605  1.4287  0.3366
   39CHL1  H19B 2854   3.877   0.268   7.403 -0.8684  0.9809 -1.0367
   39CHL1  H19C 2855   4.026   0.373   7.354  0.7047 -1.1423  1.4706
   39CHL1    C1 2856   4.167   0.160   7.231 -0.0383  0.0622 -1.1068
   39CHL1   H1A 2857   4.232   0.248   7.253 -0.6857  0.7074 -1.7270
   39CHL1   H1B 2858   4.236   0.075   7.249 -2.5728 -1.6385  1.0701
   39CHL1    C2 2859   4.123   0.159   7.088  0.0145  0.1721  0.7570
   39CHL1   H2A 2860   4.207   0.160   7.015 -2.1851  0.3328 -1.9729
   39CHL1   H2B 2861   4.073   0.256   7.067 -2.2602 -1.1454 -0.3306
   39CHL1   C20 2862   4.161   0.218   8.032 -0.2239  0.0031 -0.4347
   39CHL1   H20 2863   4.101   0.311   8.041 -0.7339 -0.0007 -2.9291
   39CHL1   C21 2864   4.306   0.248   7.993  0.3754 -0.1275 -0.3563
   39CHL1  H21A 2865   4.361   0.297   8.076  0.5670  0.1371 -0.6364
   39CHL1  H21B 2866   4.324   0.320   7.911 -0.0702 -0.9802 -1.2188
   39CHL1  H21C 2867   4.359   0.153   7.970  0.2235  0.1135 -1.7591
   39CHL1   C22 2868   4.152   0.142   8.167  0.2688  0.2205 -0.3260
   39CHL1  H22A 2869   4.046   0.117   8.190  1.0727 -1.7270  1.5439
   39CHL1  H22B 2870   4.217   0.052   8.165  0.1532  0.1254  0.1392
   39CHL1   C23 2871   4.194   0.227   8.287  0.5838  0.0327 -0.0442
   39CHL1  H23A 2872   4.292   0.278   8.276 -0.1231  1.5282  0.3199
   39CHL1  H23B 2873   4.109   0.296   8.306 -0.1590 -0.6968 -0.6728
   39CHL1   C24 2874   4.204   0.127   8.408 -0.4713  0.1810  0.8875
   39CHL1  H24A 2875   4.107   0.072   8.408 -0.8483  0.7880  2.4941
   39CHL1  H24B 2876   4.276   0.049   8.375  1.0948  1.1043  2.0230
   39CHL1   C25 2877   4.233   0.190   8.546  0.0257 -0.0746  0.1852
   39CHL1   H25 2878   4.286   0.285   8.524  0.1970  0.1775  1.6507
   39CHL1   C26 2879   4.106   0.223   8.622 -0.3359 -0.3452 -0.1093
   39CHL1  H26A 2880   4.052   0.316   8.593  2.3388  2.0101  1.8731
   39CHL1  H26B 2881   4.035   0.137   8.620 -0.8505  0.0757 -0.3570
   39CHL1  H26C 2882   4.135   0.233   8.728 -0.5449 -1.4858  0.0665
   39CHL1   C27 2883   4.341   0.114   8.628  0.3099  0.1397  0.0740
   39CHL1  H27A 2884   4.397   0.053   8.553  1.6274  0.6727  0.5956
   39CHL1  H27B 2885   4.405   0.199   8.661  2.3565 -1.5096  0.5779
   39CHL1  H27C 2886   4.305   0.057   8.715 -1.3930  5.4414  3.3040
   40CHL1    C3 2887   6.408   0.230   7.020  0.8674  1.0209 -0.1446
   40CHL1    H3 2888   6.384   0.338   7.022 -0.9165  0.7100 -2.0078
   40CHL1    O3 2889   6.432   0.200   6.881  0.3263  0.3191 -0.8094
   40CHL1   H3' 2890   6.354   0.156   6.846  0.2659 -2.2818  2.1373
   40CHL1    C4 2891   6.546   0.212   7.083  0.2198  0.1484  0.6358
   40CHL1   H4A 2892   6.576   0.106   7.067  0.6866  0.2900  0.5396
   40CHL1   H4B 2893   6.633   0.262   7.034  1.5220  1.0732  3.6205
   40CHL1    C5 2894   6.548   0.238   7.234  0.2135 -0.4004  0.3577
   40CHL1    C6 2895   6.638   0.326   7.288  0.4455  0.6549  0.2979
   40CHL1    H6 2896   6.703   0.384   7.221 -1.5233  0.9521 -1.4517
   40CHL1    C7 2897   6.639   0.366   7.434 -0.4764 -0.4973 -0.3544
   40CHL1   H7A 2898   6.739   0.371   7.481 -1.5574  0.2098  2.0194
   40CHL1   H7B 2899   6.576   0.455   7.454  0.9126  0.0558  1.9764
   40CHL1    C8 2900   6.571   0.251   7.515 -0.4074  0.0793  0.0099
   40CHL1    H8 2901   6.628   0.156   7.505 -2.2579 -0.9684 -1.0919
   40CHL1   C14 2902   6.575   0.278   7.667  0.7170  0.0366  0.3417
   40CHL1   H14 2903   6.517   0.369   7.694  0.0282 -0.5785  1.0000
   40CHL1   C15 2904   6.708   0.286   7.737 -0.1805  0.4692  0.3999
   40CHL1  H15A 2905   6.772   0.206   7.693 -1.3114 -0.7023  0.8376
   40CHL1  H15B 2906   6.758   0.383   7.715  1.4152 -0.3261  0.3430
   40CHL1   C16 2907   6.664   0.281   7.890 -0.1443 -0.5216 -0.4421
   40CHL1  H16A 2908   6.722   0.198   7.934 -1.7269 -0.5194  1.8035
   40CHL1  H16B 2909   6.685   0.379   7.938 -3.8632  1.8813 -3.1400
   40CHL1   C17 2910   6.516   0.241   7.889  0.8126 -0.0960  0.0529
   40CHL1   H17 2911   6.456   0.335   7.883 -1.4412 -1.5505 -2.6039
   40CHL1   C13 2912   6.490   0.178   7.748  0.1138 -0.1733 -0.9131
   40CHL1   C18 2913   6.546   0.034   7.748 -0.1805 -0.3710  0.3657
   40CHL1  H18A 2914   6.530  -0.008   7.646  1.4231  0.9085 -0.4560
   40CHL1  H18B 2915   6.649   0.021   7.787 -0.7122 -2.6535  1.1547
   40CHL1  H18C 2916   6.481  -0.023   7.818 -2.2909  0.0754 -1.1224
   40CHL1   C12 2917   6.343   0.191   7.702  0.5193 -0.3998 -0.3177
   40CHL1  H12A 2918   6.271   0.123   7.752  0.3742 -0.1335 -0.1567
   40CHL1  H12B 2919   6.304   0.295   7.710 -2.3686 -1.4170  0.1301
   40CHL1   C11 2920   6.330   0.150   7.556 -0.0970  0.3765  0.2985
   40CHL1  H11A 2921   6.359   0.043   7.563  1.6162  0.5929 -2.2198
   40CHL1  H11B 2922   6.227   0.154   7.515 -0.5014  0.6171  1.3127
   40CHL1    C9 2923   6.435   0.226   7.456 -0.1870  0.7513 -0.5092
   40CHL1    H9 2924   6.399   0.330   7.447  0.1988  0.8928 -0.4547
   40CHL1   C10 2925   6.436   0.167   7.313 -0.2165  0.4928  0.1360
   40CHL1   C19 2926   6.471   0.015   7.320  0.0281 -0.3352 -0.5652
   40CHL1  H19A 2927   6.480  -0.034   7.221  0.1888 -1.5539  0.0253
   40CHL1  H19B 2928   6.573   0.009   7.363  1.5360 -0.1274 -3.8194
   40CHL1  H19C 2929   6.397  -0.040   7.382  1.4487 -0.0684  1.4555
   40CHL1    C1 2930   6.294   0.181   7.246 -0.5932  0.6161 -0.3347
   40CHL1   H1A 2931   6.215   0.121   7.297 -1.1131 -0.7120 -2.5927
   40CHL1   H1B 2932   6.268   0.288   7.262 -0.8046  0.1174  3.5884
   40CHL1    C2 2933   6.302   0.143   7.093 -0.1797  0.3701 -0.2994
   40CHL1   H2A 2934   6.201   0.162   7.052 -0.4355 -0.5547 -0.1148
   40CHL1   H2B 2935   6.335   0.039   7.071 -0.1072  0.3686 -0.1860
   40CHL1   C20 2936   6.474   0.154   8.014  0.0514 -0.4304  0.4139
   40CHL1   H20 2937   6.519   0.053   8.004  1.5557  0.3114 -0.7594
   40CHL1   C21 2938   6.323   0.130   8.031  0.5770 -0.6168  0.0138
   40CHL1  H21A 2939   6.263   0.220   8.005 -0.1069 -1.0073  0.2114
   40CHL1  H21B 2940   6.294   0.106   8.135 -1.0094  2.1545  0.3293
   40CHL1  H21C 2941   6.293   0.043   7.968  0.2441  1.6419 -3.2108
   40CHL1   C22 2942   6.521   0.213   8.146 -0.0585  0.4326 -0.1898
   40CHL1  H22A 2943   6.499   0.133   8.221  0.4837 -0.4391 -0.9332
   40CHL1  H22B 2944   6.631   0.226   8.151 -0.0550  1.1614 -1.6770
   40CHL1   C23 2945   6.458   0.343   8.196  0.1332 -0.3128  0.3027
   40CHL1  H23A 2946   6.494   0.423   8.127  0.2293 -1.4515 -1.0117
   40CHL1  H23B 2947   6.347   0.338   8.187  0.0643  1.2316 -0.1090
   40CHL1   C24 2948   6.488   0.363   8.344  0.4310 -0.1232 -0.3175
   40CHL1  H24A 2949   6.428   0.284   8.394  0.4666 -0.2613 -0.4930
   40CHL1  H24B 2950   6.599   0.361   8.358  0.2913 -0.9561  0.8401
   40CHL1   C25 2951   6.432   0.501   8.399  0.1187 -0.2219 -0.0236
   40CHL1   H25 2952   6.321   0.502   8.393 -0.0530 -3.9949  0.0090
   40CHL1   C26 2953   6.470   0.514   8.543 -0.4205  0.6952  0.2496
   40CHL1  H26A 2954   6.413   0.605   8.571 -1.0510  0.1755  0.6943
   40CHL1  H26B 2955   6.444   0.422   8.601 -3.5697  0.6925 -0.9744
   40CHL1  H26C 2956   6.578   0.537   8.548 -0.3544  0.1480  2.3218
   40CHL1   C27 2957   6.486   0.628   8.320 -0.3848 -0.4937 -0.1310
   40CHL1  H27A 2958   6.595   0.645   8.322 -0.6697  1.6974 -0.8668
   40CHL1  H27B 2959   6.442   0.633   8.218 -1.0492  1.3345  0.2056
   40CHL1  H27C 2960   6.449   0.725   8.360  1.2325 -0.3636  1.1542
   41CHL1    C3 2961   0.168   1.157   6.909 -0.1773 -0.3685 -0.2143
   41CHL1    H3 2962   0.094   1.230   6.869 -0.0857 -0.3554 -0.3623
   41CHL1    O3 2963   0.229   1.096   6.792 -0.1445 -0.5269 -0.5863
   41CHL1   H3' 2964   0.261   1.171   6.741 -3.7987  1.7207  0.0780
   41CHL1    C4 2965   0.272   1.234   6.995 -1.2195 -0.1214 -0.4716
   41CHL1   H4A 2966   0.346   1.156   7.021 -0.4817  1.6031  3.2301
   41CHL1   H4B 2967   0.325   1.309   6.932  1.8808 -0.7990  1.1413
   41CHL1    C5 2968   0.217   1.279   7.127  0.0321  0.5054  0.6249
   41CHL1    C6 2969   0.229   1.407   7.165 -1.0877 -0.0967  0.0674
   41CHL1    H6 2970   0.272   1.476   7.092  0.6186 -0.8981  0.2730
   41CHL1    C7 2971   0.179   1.463   7.291 -0.2692  0.2850 -0.1031
   41CHL1   H7A 2972   0.247   1.542   7.329  0.5398  0.1075 -1.1479
   41CHL1   H7B 2973   0.082   1.516   7.274 -0.4712  0.0657  0.3555
   41CHL1    C8 2974   0.168   1.348   7.396  0.1416 -0.4460 -0.4143
   41CHL1    H8 2975   0.268   1.314   7.429 -0.3218 -0.6387  0.8121
   41CHL1   C14 2976   0.109   1.402   7.521  0.0383 -0.3696  0.1123
   41CHL1   H14 2977   0.001   1.423   7.503 -0.9089 -4.6913 -0.2047
   41CHL1   C15 2978   0.161   1.541   7.579  0.2694  0.9694  1.3272
   41CHL1  H15A 2979   0.271   1.546   7.588  0.4884  1.0151 -0.7562
   41CHL1  H15B 2980   0.105   1.623   7.530  1.2843  1.1544  0.4440
   41CHL1   C16 2981   0.118   1.546   7.731 -0.5846 -0.2053 -0.1447
   41CHL1  H16A 2982   0.197   1.553   7.810 -2.2511 -0.1153  1.5983
   41CHL1  H16B 2983   0.053   1.635   7.745  1.3561  1.4917 -1.2673
   41CHL1   C17 2984   0.048   1.407   7.750  0.2980  0.8169 -0.3996
   41CHL1   H17 2985  -0.058   1.426   7.724  0.3050  0.5563 -0.6256
   41CHL1   C13 2986   0.096   1.308   7.638  0.5926  0.5793  0.9120
   41CHL1   C18 2987   0.231   1.241   7.677  0.8366 -0.4402 -0.3034
   41CHL1  H18A 2988   0.220   1.169   7.761 -0.0204 -0.3593 -0.3351
   41CHL1  H18B 2989   0.270   1.192   7.586 -0.4940  0.8536 -1.6463
   41CHL1  H18C 2990   0.298   1.316   7.724 -1.9258  0.7205  2.1801
   41CHL1   C12 2991  -0.005   1.198   7.588 -0.0237  0.2823  0.1957
   41CHL1  H12A 2992  -0.006   1.111   7.657 -1.3398 -0.1368 -0.3231
   41CHL1  H12B 2993  -0.106   1.240   7.572 -0.2377 -0.5909 -0.8725
   41CHL1   C11 2994   0.039   1.132   7.452 -0.3403  0.1583  0.7022
   41CHL1  H11A 2995   0.135   1.083   7.476  0.4725  0.5126 -1.5926
   41CHL1  H11B 2996  -0.040   1.061   7.419 -0.9142  1.7261 -1.5116
   41CHL1    C9 2997   0.085   1.230   7.342  0.8833 -0.5047  0.5399
   41CHL1    H9 2998  -0.012   1.265   7.303  1.9332  0.1784 -1.6205
   41CHL1   C10 2999   0.157   1.167   7.214  0.1339  0.3102  0.4447
   41CHL1   C19 3000   0.269   1.073   7.257  0.0692 -0.8574  0.6187
   41CHL1  H19A 3001   0.337   1.032   7.180 -1.3981  0.1579 -1.3080
   41CHL1  H19B 3002   0.339   1.117   7.331  0.9972 -0.4005 -0.4945
   41CHL1  H19C 3003   0.215   0.986   7.301  0.2133 -1.7124 -0.8210
   41CHL1    C1 3004   0.046   1.107   7.124 -0.1238  0.0423 -0.5121
   41CHL1   H1A 3005  -0.002   1.018   7.171  0.0844 -2.4125 -4.4310
   41CHL1   H1B 3006  -0.026   1.189   7.106  1.2205  1.9906  2.2515
   41CHL1    C2 3007   0.110   1.044   6.998 -0.3935  0.4878 -0.4503
   41CHL1   H2A 3008   0.037   0.977   6.946  0.7273 -1.3470  0.2460
   41CHL1   H2B 3009   0.193   0.978   7.031 -1.0307 -1.1212 -1.8844
   41CHL1   C20 3010   0.043   1.359   7.896  0.1248 -0.0038  0.3023
   41CHL1   H20 3011   0.149   1.353   7.928  0.0612  1.5594  0.9002
   41CHL1   C21 3012  -0.028   1.217   7.903  0.0710  0.2298 -0.3116
   41CHL1  H21A 3013  -0.133   1.209   7.868  0.0700 -0.0874 -0.2387
   41CHL1  H21B 3014  -0.029   1.185   8.009  3.5754  1.2153  0.1668
   41CHL1  H21C 3015   0.043   1.146   7.856  1.9951  1.6284  0.3400
   41CHL1   C22 3016  -0.028   1.454   7.994  0.1477  0.3419  0.2881
   41CHL1  H22A 3017   0.010   1.557   7.983 -2.9171  1.5394  0.1250
   41CHL1  H22B 3018  -0.137   1.449   7.978  0.1596  0.5351  0.1450
   41CHL1   C23 3019   0.015   1.426   8.144 -0.7119  0.5596  0.4416
   41CHL1  H23A 3020   0.024   1.318   8.167  2.4504  0.5811 -0.2316
   41CHL1  H23B 3021   0.116   1.470   8.154  0.5585 -1.1254 -3.1024
   41CHL1   C24 3022  -0.086   1.494   8.237  0.4895 -0.5470 -0.4338
   41CHL1  H24A 3023  -0.187   1.453   8.215 -0.0630  0.8139 -0.5333
   41CHL1  H24B 3024  -0.062   1.464   8.341 -0.8596 -0.8312 -0.1937
   41CHL1   C25 3025  -0.093   1.648   8.238 -0.3787  0.0790 -0.2798
   41CHL1   H25 3026  -0.110   1.681   8.133 -0.5269  0.1088 -0.2466
   41CHL1   C26 3027  -0.206   1.681   8.336 -0.0115 -0.2362  0.2821
   41CHL1  H26A 3028  -0.228   1.788   8.313  0.0628 -0.5385 -1.2240
   41CHL1  H26B 3029  -0.298   1.625   8.312 -0.9722  1.5634 -0.4697
   41CHL1  H26C 3030  -0.174   1.678   8.443  1.7608  0.8561 -0.1706
   41CHL1   C27 3031   0.049   1.697   8.294 -0.7414  0.3894 -0.2247
   41CHL1  H27A 3032   0.126   1.673   8.217  1.0261  2.7877  0.6537
   41CHL1  H27B 3033   0.042   1.807   8.310  0.2892  0.4393  0.0116
   41CHL1  H27C 3034   0.072   1.658   8.396 -1.0697  1.3414  0.2286
   42CHL1    C3 3035   1.548   5.423   7.218  0.6507  0.0934 -0.6559
   42CHL1    H3 3036   1.578   5.530   7.221  2.5691 -0.3901  2.8552
   42CHL1    O3 3037   1.569   5.362   7.092  0.2586 -0.1514 -0.1071
   42CHL1   H3' 3038   1.517   5.414   7.030 -0.1485 -1.6813 -1.0923
   42CHL1    C4 3039   1.648   5.357   7.314 -0.3482 -1.1468  0.0635
   42CHL1   H4A 3040   1.634   5.247   7.310 -0.1154 -1.1397 -1.1811
   42CHL1   H4B 3041   1.750   5.383   7.279 -1.6400  1.7100 -1.9166
   42CHL1    C5 3042   1.638   5.411   7.456 -0.0178  0.2429  0.1288
   42CHL1    C6 3043   1.750   5.466   7.516  0.6264 -0.7400  0.2677
   42CHL1    H6 3044   1.833   5.485   7.447 -1.5820  0.7392 -2.1607
   42CHL1    C7 3045   1.751   5.520   7.650  0.1359  0.2523 -0.2738
   42CHL1   H7A 3046   1.845   5.496   7.705  1.6945  0.9459 -2.5074
   42CHL1   H7B 3047   1.758   5.630   7.635 -1.3129  0.0762 -2.7279
   42CHL1    C8 3048   1.618   5.477   7.725 -0.1951 -0.0533 -0.4381
   42CHL1    H8 3049   1.623   5.368   7.743 -1.4414 -0.2606 -1.1995
   42CHL1   C14 3050   1.601   5.547   7.858  0.1628 -0.8736 -0.3933
   42CHL1   H14 3051   1.600   5.652   7.822  2.3718  0.0226  1.8128
   42CHL1   C15 3052   1.712   5.549   7.964  0.3724  0.1792  1.0436
   42CHL1  H15A 3053   1.741   5.442   7.976  0.9036 -0.4233 -3.7643
   42CHL1  H15B 3054   1.807   5.593   7.927  0.3072 -0.8037 -0.4045
   42CHL1   C16 3055   1.646   5.610   8.087 -0.2020  1.2365 -0.0631
   42CHL1  H16A 3056   1.664   5.554   8.181 -1.1966  3.6374  1.6799
   42CHL1  H16B 3057   1.704   5.705   8.092  0.3757  1.0082 -1.7414
   42CHL1   C17 3058   1.491   5.633   8.058 -0.8109  0.9481  0.0604
   42CHL1   H17 3059   1.483   5.740   8.028  0.1413  1.2715  0.9000
   42CHL1   C13 3060   1.466   5.540   7.940  0.6838  0.6315 -0.1868
   42CHL1   C18 3061   1.453   5.395   7.993  0.0108  0.7696  0.8700
   42CHL1  H18A 3062   1.354   5.368   8.035 -0.0267  0.0931  0.3619
   42CHL1  H18B 3063   1.461   5.325   7.907 -0.0866  0.0817  1.4090
   42CHL1  H18C 3064   1.535   5.363   8.061 -1.0390 -1.8373  1.0382
   42CHL1   C12 3065   1.351   5.581   7.843 -0.4655  0.2333  0.5598
   42CHL1  H12A 3066   1.245   5.580   7.876 -0.2309 -2.5317  1.4412
   42CHL1  H12B 3067   1.365   5.689   7.817 -1.8863 -0.3144 -3.0004
   42CHL1   C11 3068   1.357   5.490   7.712  0.2426 -0.4180  0.1889
   42CHL1  H11A 3069   1.331   5.386   7.741 -1.0549  0.1160  1.0254
   42CHL1  H11B 3070   1.275   5.527   7.647  0.9720  0.8548 -0.0433
   42CHL1    C9 3071   1.494   5.498   7.638  0.3840 -0.0352  0.1987
   42CHL1    H9 3072   1.507   5.601   7.598 -1.6469  0.9136  1.7791
   42CHL1   C10 3073   1.499   5.407   7.513  0.5154 -0.2081  0.2120
   42CHL1   C19 3074   1.467   5.267   7.555  0.2090  0.5476  0.0061
   42CHL1  H19A 3075   1.486   5.201   7.468 -0.6079  1.5035 -0.9237
   42CHL1  H19B 3076   1.531   5.220   7.632 -0.1530 -0.1012 -0.0817
   42CHL1  H19C 3077   1.362   5.255   7.589  0.1669 -4.3674 -1.2472
   42CHL1    C1 3078   1.394   5.466   7.416 -0.0147  0.0111  0.0581
   42CHL1   H1A 3079   1.292   5.440   7.453  0.2431 -0.5037  0.4140
   42CHL1   H1B 3080   1.406   5.576   7.417 -1.0423  0.1613  2.4249
   42CHL1    C2 3081   1.402   5.411   7.273 -0.2709 -0.0706  0.7909
   42CHL1   H2A 3082   1.339   5.476   7.209 -0.6563 -0.8090  0.4008
   42CHL1   H2B 3083   1.359   5.308   7.265 -2.4301  0.8645 -0.6574
   42CHL1   C20 3084   1.413   5.612   8.190 -0.0218 -0.4618  0.4014
   42CHL1   H20 3085   1.420   5.504   8.219  0.8554 -1.1354 -2.0477
   42CHL1   C21 3086   1.266   5.639   8.152 -0.6628  0.8602 -0.4950
   42CHL1  H21A 3087   1.245   5.725   8.086  0.2027 -0.2654 -2.3142
   42CHL1  H21B 3088   1.196   5.632   8.238  0.1493  0.8611  0.1803
   42CHL1  H21C 3089   1.235   5.547   8.098 -0.7619  0.7158 -0.1989
   42CHL1   C22 3090   1.465   5.703   8.299 -0.0304  0.1067  0.2967
   42CHL1  H22A 3091   1.576   5.706   8.307  0.0303  0.3544 -0.5511
   42CHL1  H22B 3092   1.448   5.807   8.262 -0.5029 -0.7034 -1.8873
   42CHL1   C23 3093   1.394   5.665   8.434  0.5548 -0.3869  0.0849
   42CHL1  H23A 3094   1.307   5.735   8.444  2.6307  2.0427  3.5690
   42CHL1  H23B 3095   1.355   5.562   8.423  0.2010 -0.1805 -0.6644
   42CHL1   C24 3096   1.481   5.675   8.557 -0.1958 -1.0776 -0.7016
   42CHL1  H24A 3097   1.577   5.624   8.536 -0.3575 -0.7325 -2.3641
   42CHL1  H24B 3098   1.507   5.779   8.588  0.0760 -1.3626  0.0446
   42CHL1   C25 3099   1.415   5.618   8.679  0.1314 -0.1756  0.0578
   42CHL1   H25 3100   1.334   5.683   8.718  2.0684  0.2494  3.8846
   42CHL1   C26 3101   1.375   5.464   8.660 -0.1736 -0.0167  0.5806
   42CHL1  H26A 3102   1.286   5.452   8.595 -0.0146  1.0219  0.1490
   42CHL1  H26B 3103   1.465   5.408   8.628 -0.8963 -2.4678  2.5192
   42CHL1  H26C 3104   1.364   5.434   8.767  0.8918  1.4540  1.1413
   42CHL1   C27 3105   1.521   5.611   8.795 -0.1626  0.3599 -0.6075
   42CHL1  H27A 3106   1.578   5.706   8.793  1.2455 -0.4575 -1.2301
   42CHL1  H27B 3107   1.589   5.523   8.793  0.0248  0.4399  0.8420
   42CHL1  H27C 3108   1.469   5.611   8.893 -0.4970  0.9905 -0.7799
   43CHL1    C3 3109   1.906   1.470   6.741 -0.0161  0.3475 -0.3413
   43CHL1    H3 3110   1.882   1.578   6.739  0.1752  0.3951 -0.0961
   43CHL1    O3 3111   1.892   1.427   6.605  0.1692  0.5374  0.1994
   43CHL1   H3' 3112   1.887   1.332   6.619  1.1992  0.4563  0.1272
   43CHL1    C4 3113   2.057   1.458   6.792  0.1348  0.1234 -1.1079
   43CHL1   H4A 3114   2.094   1.355   6.770 -1.3823 -0.7547  0.1610
   43CHL1   H4B 3115   2.110   1.525   6.722 -0.6290  1.5155 -0.3817
   43CHL1    C5 3116   2.088   1.477   6.945  0.8348 -0.1882  1.2120
   43CHL1    C6 3117   2.189   1.559   6.981  0.1498 -0.3217 -0.6180
   43CHL1    H6 3118   2.246   1.617   6.908  1.4242  0.0268  0.6037
   43CHL1    C7 3119   2.201   1.603   7.125 -0.2648 -0.1937 -0.0083
   43CHL1   H7A 3120   2.308   1.621   7.152 -0.3494  0.5600 -0.1584
   43CHL1   H7B 3121   2.155   1.703   7.137  1.7179  0.9589 -1.4355
   43CHL1    C8 3122   2.125   1.506   7.225  0.0288  0.2469 -0.0665
   43CHL1    H8 3123   2.188   1.414   7.220  0.4549  0.5170  0.2264
   43CHL1   C14 3124   2.112   1.580   7.357 -0.6973  0.1065 -0.0822
   43CHL1   H14 3125   2.042   1.664   7.339  0.9520  1.2788 -1.4135
   43CHL1   C15 3126   2.235   1.653   7.416 -0.4212 -0.2979 -0.1102
   43CHL1  H15A 3127   2.329   1.597   7.398  0.2683  1.4895 -2.4122
   43CHL1  H15B 3128   2.249   1.754   7.374 -0.3830 -0.1885  0.1605
   43CHL1   C16 3129   2.209   1.654   7.569 -0.1076 -0.7637 -0.3491
   43CHL1  H16A 3130   2.286   1.587   7.612  1.0101  0.4193 -0.4392
   43CHL1  H16B 3131   2.208   1.758   7.610  0.4892 -0.4930 -0.9964
   43CHL1   C17 3132   2.074   1.586   7.592 -0.1991  0.4768 -0.3023
   43CHL1   H17 3133   1.997   1.666   7.585  0.0404  0.6029 -1.8226
   43CHL1   C13 3134   2.054   1.496   7.466  0.3858  0.0079 -0.7783
   43CHL1   C18 3135   2.137   1.372   7.492 -0.6196 -0.3306 -0.5283
   43CHL1  H18A 3136   2.234   1.393   7.541 -0.6620 -0.8982 -0.1832
   43CHL1  H18B 3137   2.083   1.304   7.562 -1.5634 -0.1047 -1.0078
   43CHL1  H18C 3138   2.148   1.304   7.405  0.2501 -1.8526  0.7223
   43CHL1   C12 3139   1.912   1.469   7.429 -0.5783 -0.3701 -0.4671
   43CHL1  H12A 3140   1.872   1.396   7.503  0.8906  0.5549  1.3529
   43CHL1  H12B 3141   1.839   1.550   7.411 -1.1931 -0.9319 -0.5264
   43CHL1   C11 3142   1.904   1.396   7.294  0.4744 -0.2196 -0.5375
   43CHL1  H11A 3143   1.964   1.304   7.310  0.6118 -0.0283  0.0685
   43CHL1  H11B 3144   1.797   1.371   7.274  0.6685 -0.5653 -1.1946
   43CHL1    C9 3145   1.980   1.479   7.180  0.1088  0.4192  0.2775
   43CHL1    H9 3146   1.925   1.574   7.166 -2.1500 -0.9839 -1.0606
   43CHL1   C10 3147   1.976   1.419   7.036 -0.1106 -0.4978 -1.3122
   43CHL1   C19 3148   2.002   1.272   7.036 -0.5834  0.3881 -0.5904
   43CHL1  H19A 3149   2.002   1.237   6.931 -0.3408  2.2923 -1.2609
   43CHL1  H19B 3150   2.107   1.254   7.070 -0.3617  0.5883 -1.1705
   43CHL1  H19C 3151   1.926   1.212   7.090  0.9437 -0.2026  1.0158
   43CHL1    C1 3152   1.831   1.428   6.973  0.1777  0.1792  0.2608
   43CHL1   H1A 3153   1.762   1.364   7.033 -0.5674 -0.1033 -0.8578
   43CHL1   H1B 3154   1.795   1.532   6.985 -0.9102 -0.2325  0.7185
   43CHL1    C2 3155   1.815   1.388   6.828 -0.5773 -0.3009  0.5349
   43CHL1   H2A 3156   1.706   1.397   6.806 -0.1337  1.4028 -1.2429
   43CHL1   H2B 3157   1.837   1.280   6.813 -0.5928 -0.3038  0.5325
   43CHL1   C20 3158   2.058   1.527   7.728 -0.0054  0.5035 -1.4116
   43CHL1   H20 3159   2.138   1.452   7.744 -4.1736 -4.7303 -2.1224
   43CHL1   C21 3160   1.926   1.450   7.743  0.5172 -0.2298 -0.0726
   43CHL1  H21A 3161   1.836   1.512   7.722 -0.4369 -0.3471  3.1338
   43CHL1  H21B 3162   1.914   1.422   7.850 -1.2817  0.8298  0.0487
   43CHL1  H21C 3163   1.930   1.353   7.688  1.8697 -0.4904  0.4493
   43CHL1   C22 3164   2.075   1.632   7.842  0.4711 -0.4509  0.0652
   43CHL1  H22A 3165   2.149   1.711   7.818  0.3404 -0.1092  0.7549
   43CHL1  H22B 3166   1.974   1.677   7.852  0.3179 -0.7399 -0.1509
   43CHL1   C23 3167   2.105   1.574   7.978  0.0630 -0.1531 -0.4083
   43CHL1  H23A 3168   2.025   1.501   8.000  2.0314 -3.0708 -2.2387
   43CHL1  H23B 3169   2.199   1.514   7.972  0.3226  0.1662  0.2811
   43CHL1   C24 3170   2.123   1.676   8.093 -0.1745 -0.0134 -0.1018
   43CHL1  H24A 3171   2.202   1.748   8.066 -1.2766  2.0478  1.7675
   43CHL1  H24B 3172   2.026   1.728   8.112  0.5823  1.1944  0.5627
   43CHL1   C25 3173   2.188   1.622   8.227  0.2758 -0.2916 -0.0020
   43CHL1   H25 3174   2.291   1.585   8.208  0.9450 -0.1692  2.8994
   43CHL1   C26 3175   2.221   1.734   8.324  0.2697 -0.0634 -0.1959
   43CHL1  H26A 3176   2.130   1.767   8.378  0.5239 -0.4914  0.5088
   43CHL1  H26B 3177   2.300   1.699   8.393 -1.9721 -0.2788  2.4185
   43CHL1  H26C 3178   2.262   1.820   8.267 -2.1715  0.5415 -1.1781
   43CHL1   C27 3179   2.106   1.511   8.293  0.0631 -0.8410 -0.4779
   43CHL1  H27A 3180   2.103   1.424   8.225  0.2813 -1.4264  0.2522
   43CHL1  H27B 3181   2.159   1.492   8.389  0.3685 -0.5203 -0.5813
   43CHL1  H27C 3182   1.999   1.535   8.311  0.3915  2.0705 -1.8096
   44CHL1    C3 3183   2.188   0.447   6.889 -1.0488 -0.0515 -0.1887
   44CHL1    H3 3184   2.298   0.444   6.905 -0.6310 -1.5078 -2.7295
   44CHL1    O3 3185   2.164   0.438   6.748 -0.2432  0.4450  0.1824
   44CHL1   H3' 3186   2.069   0.437   6.736 -0.0966  1.0246 -1.2257
   44CHL1    C4 3187   2.134   0.320   6.943  0.0945 -0.1674 -0.0992
   44CHL1   H4A 3188   2.026   0.312   6.916 -0.0947  0.0701  0.5567
   44CHL1   H4B 3189   2.186   0.231   6.901  2.3947  1.0342  0.0449
   44CHL1    C5 3190   2.144   0.320   7.091  0.1360  0.1357 -0.1996
   44CHL1    C6 3191   2.219   0.220   7.148 -0.3338 -0.7423  0.5902
   44CHL1    H6 3192   2.256   0.142   7.080 -1.5702  0.6672 -1.8308
   44CHL1    C7 3193   2.235   0.203   7.297  0.6560  0.3786  0.2996
   44CHL1   H7A 3194   2.236   0.098   7.334  0.0431  0.5870  0.9103
   44CHL1   H7B 3195   2.336   0.238   7.327  1.2125  0.2918 -1.3336
   44CHL1    C8 3196   2.121   0.278   7.378 -0.5453  0.5345 -0.1155
   44CHL1    H8 3197   2.030   0.220   7.353 -0.5075  0.8915 -1.1464
   44CHL1   C14 3198   2.163   0.278   7.522  0.1171 -0.2878  0.3366
   44CHL1   H14 3199   2.242   0.355   7.525 -0.8036  0.6637  2.1684
   44CHL1   C15 3200   2.207   0.142   7.589 -0.2486 -0.5541  0.3881
   44CHL1  H15A 3201   2.135   0.062   7.563 -0.7465 -0.4597  1.4554
   44CHL1  H15B 3202   2.315   0.120   7.574  0.3357  2.0058  0.3410
   44CHL1   C16 3203   2.193   0.161   7.739 -0.4045 -0.6743  0.4514
   44CHL1  H16A 3204   2.120   0.091   7.787  1.2299 -1.0967  2.4708
   44CHL1  H16B 3205   2.297   0.159   7.777  0.6133  0.6519 -2.0489
   44CHL1   C17 3206   2.124   0.302   7.755 -0.2170 -0.8175  0.7659
   44CHL1   H17 3207   2.214   0.367   7.766 -0.5484 -0.2679  0.2837
   44CHL1   C13 3208   2.064   0.340   7.614  0.5793  0.4926 -1.0999
   44CHL1   C18 3209   1.927   0.273   7.606  0.7943  0.0553 -0.2217
   44CHL1  H18A 3210   1.928   0.164   7.584 -0.3492  0.2461 -1.3046
   44CHL1  H18B 3211   1.868   0.282   7.699  2.4072  0.4925  0.8056
   44CHL1  H18C 3212   1.863   0.316   7.526  2.1194  1.9590 -0.3097
   44CHL1   C12 3213   2.054   0.490   7.577  0.0099  0.1967 -0.1459
   44CHL1  H12A 3214   1.970   0.544   7.624 -0.1519  1.1297 -1.4412
   44CHL1  H12B 3215   2.149   0.541   7.602  0.2630  1.2295 -2.8273
   44CHL1   C11 3216   2.033   0.510   7.426  0.1503 -0.0326  0.0654
   44CHL1  H11A 3217   1.927   0.484   7.406  0.1571  0.0104 -0.0321
   44CHL1  H11B 3218   2.026   0.618   7.401  0.4433  0.0168  0.1990
   44CHL1    C9 3219   2.119   0.422   7.327  0.0621 -0.6677  0.8465
   44CHL1    H9 3220   2.225   0.456   7.327 -0.4133  0.9195  1.5136
   44CHL1   C10 3221   2.077   0.435   7.175 -0.3587  0.6725 -0.2493
   44CHL1   C19 3222   1.922   0.425   7.161 -0.1777  0.7791  0.3421
   44CHL1  H19A 3223   1.890   0.406   7.056  0.2164  0.4499  0.2800
   44CHL1  H19B 3224   1.873   0.351   7.229 -1.6661  2.2539  0.9254
   44CHL1  H19C 3225   1.887   0.527   7.186 -0.8921  0.9914 -1.3963
   44CHL1    C1 3226   2.128   0.564   7.110 -0.5971 -0.1454 -0.0038
   44CHL1   H1A 3227   2.067   0.645   7.155  1.7069  2.5909 -1.4626
   44CHL1   H1B 3228   2.232   0.581   7.145 -1.4155  1.6864  1.7337
   44CHL1    C2 3229   2.121   0.571   6.958  0.3421 -0.4917  0.0716
   44CHL1   H2A 3230   2.156   0.668   6.917 -1.1319 -0.0596 -0.2406
   44CHL1   H2B 3231   2.013   0.566   6.935 -0.1005  1.4486  1.4473
   44CHL1   C20 3232   2.043   0.317   7.879  0.1110  0.6184  0.0373
   44CHL1   H20 3233   1.960   0.243   7.883  1.1040 -0.5166  0.2981
   44CHL1   C21 3234   1.985   0.455   7.879 -0.0009 -0.9165 -0.3593
   44CHL1  H21A 3235   2.070   0.518   7.846 -1.9295  1.8074 -0.4748
   44CHL1  H21B 3236   1.950   0.490   7.978  1.5900  0.5377 -0.2663
   44CHL1  H21C 3237   1.900   0.476   7.810 -0.2567  0.2661  0.2828
   44CHL1   C22 3238   2.120   0.291   8.005 -0.0503 -0.2497 -0.3721
   44CHL1  H22A 3239   2.185   0.200   8.007 -0.4095 -0.5039  1.1536
   44CHL1  H22B 3240   2.190   0.375   8.025 -0.0623  0.1875 -2.0438
   44CHL1   C23 3241   2.026   0.254   8.121  0.0550  0.1555  0.8481
   44CHL1  H23A 3242   1.941   0.325   8.126 -1.2363 -1.3819  1.9876
   44CHL1  H23B 3243   1.979   0.158   8.088 -1.7466  1.2280  0.1604
   44CHL1   C24 3244   2.095   0.243   8.259  0.2200  0.1119 -0.5038
   44CHL1  H24A 3245   2.199   0.216   8.231 -0.7109 -3.4381 -1.1019
   44CHL1  H24B 3246   2.099   0.342   8.308 -0.5894 -0.6432  1.1738
   44CHL1   C25 3247   2.036   0.137   8.352  0.5221  0.3217 -0.3491
   44CHL1   H25 3248   2.054   0.038   8.305  0.6138 -0.3886  1.1225
   44CHL1   C26 3249   2.108   0.133   8.489 -0.4799 -0.2791 -0.2384
   44CHL1  H26A 3250   2.082   0.052   8.561 -0.4069 -0.6091 -0.5809
   44CHL1  H26B 3251   2.216   0.124   8.467 -0.1691  0.0587  1.0588
   44CHL1  H26C 3252   2.088   0.231   8.538  2.4736 -1.2334  3.2889
   44CHL1   C27 3253   1.885   0.153   8.395  0.5065 -0.0014 -0.8854
   44CHL1  H27A 3254   1.821   0.121   8.311 -1.9506  2.3140 -0.0538
   44CHL1  H27B 3255   1.854   0.098   8.486 -1.6067 -1.8529 -2.6166
   44CHL1  H27C 3256   1.865   0.262   8.408  1.6050  0.0504  0.6123
   45CHL1    C3 3257   3.109   4.613   6.847 -0.0710  1.1106  0.2277
   45CHL1    H3 3258   3.194   4.543   6.828  0.3163  1.6607 -0.1149
   45CHL1    O3 3259   3.067   4.678   6.722  0.0517  0.6300 -0.3553
   45CHL1   H3' 3260   3.109   4.764   6.725 -1.6317  1.4958 -0.2711
   45CHL1    C4 3261   2.993   4.526   6.904  0.8157  0.3347 -0.3330
   45CHL1   H4A 3262   2.899   4.584   6.895 -0.1730 -1.2216 -0.4057
   45CHL1   H4B 3263   2.984   4.437   6.838  2.1979  0.9436 -1.4043
   45CHL1    C5 3264   3.017   4.475   7.044 -0.1003  0.7233 -0.2412
   45CHL1    C6 3265   3.015   4.341   7.072 -0.3458  0.5681  0.4125
   45CHL1    H6 3266   3.004   4.268   6.990 -2.5204  2.2547 -0.8858
   45CHL1    C7 3267   3.012   4.295   7.216  0.2944 -0.4137  0.3042
   45CHL1   H7A 3268   2.921   4.234   7.234 -0.0189 -0.0219  0.0732
   45CHL1   H7B 3269   3.096   4.223   7.224  0.0849 -1.1945 -3.2517
   45CHL1    C8 3270   3.017   4.404   7.325 -0.3483  0.5629 -0.3829
   45CHL1    H8 3271   2.911   4.433   7.337 -0.8418 -1.4588  0.5083
   45CHL1   C14 3272   3.067   4.345   7.457  0.0725  0.7544 -0.0170
   45CHL1   H14 3273   3.168   4.308   7.432  0.3076  2.4767 -1.8638
   45CHL1   C15 3274   2.989   4.232   7.529 -0.0285  0.4777  0.0306
   45CHL1  H15A 3275   2.879   4.249   7.530  0.2311  2.5047 -0.8911
   45CHL1  H15B 3276   3.007   4.136   7.477  0.1932  0.6090 -0.1408
   45CHL1   C16 3277   3.034   4.237   7.676  0.5183 -0.0503  0.1230
   45CHL1  H16A 3278   2.950   4.268   7.742  0.2710 -1.2200  0.3796
   45CHL1  H16B 3279   3.079   4.140   7.706  2.8105  0.2491 -2.0296
   45CHL1   C17 3280   3.137   4.361   7.679  0.4508  0.6674 -0.1219
   45CHL1   H17 3281   3.235   4.326   7.642  0.0599 -1.6740  0.8561
   45CHL1   C13 3282   3.076   4.448   7.569  0.2022 -0.2477  0.3470
   45CHL1   C18 3283   2.941   4.518   7.610  0.6285  0.3745  0.2077
   45CHL1  H18A 3284   2.875   4.444   7.660  0.2151  0.1329 -0.6604
   45CHL1  H18B 3285   2.955   4.610   7.671  1.0832  1.6280 -1.6950
   45CHL1  H18C 3286   2.882   4.548   7.520 -0.4850 -0.9565  0.4537
   45CHL1   C12 3287   3.178   4.548   7.518 -0.0851 -0.3472 -0.4207
   45CHL1  H12A 3288   3.199   4.629   7.591 -0.7510 -0.3617 -0.2029
   45CHL1  H12B 3289   3.273   4.498   7.493  0.3092  0.3948 -0.4314
   45CHL1   C11 3290   3.134   4.620   7.388  0.3731 -0.0368  0.4740
   45CHL1  H11A 3291   3.045   4.683   7.409 -0.3002 -1.2731  1.4696
   45CHL1  H11B 3292   3.222   4.684   7.365  0.4521 -1.1535 -2.9527
   45CHL1    C9 3293   3.105   4.516   7.277 -0.2782 -0.3720  0.0045
   45CHL1    H9 3294   3.201   4.469   7.247  0.2127 -0.1374  1.1635
   45CHL1   C10 3295   3.050   4.584   7.150 -0.3069 -0.4493 -0.3272
   45CHL1   C19 3296   2.928   4.665   7.181 -0.5286 -0.4883 -0.2097
   45CHL1  H19A 3297   2.871   4.698   7.091  1.1647  0.4792 -0.9601
   45CHL1  H19B 3298   2.854   4.613   7.246 -2.8230 -0.4242 -2.6001
   45CHL1  H19C 3299   2.965   4.761   7.223  0.4729 -0.1384 -1.8401
   45CHL1    C1 3300   3.168   4.674   7.092  0.8033  0.1516  0.4138
   45CHL1   H1A 3301   3.177   4.759   7.164 -2.0853 -0.3261  1.4838
   45CHL1   H1B 3302   3.259   4.611   7.092  0.8960  0.2713 -0.4243
   45CHL1    C2 3303   3.148   4.724   6.943  0.3586  0.4521  0.0851
   45CHL1   H2A 3304   3.242   4.772   6.908  2.3621 -2.4574  1.0358
   45CHL1   H2B 3305   3.070   4.802   6.935 -2.0436 -1.9246 -0.8758
   45CHL1   C20 3306   3.161   4.430   7.814 -0.4483 -0.5972  0.4075
   45CHL1   H20 3307   3.088   4.511   7.832  0.0913  0.2237 -0.9692
   45CHL1   C21 3308   3.309   4.478   7.812 -0.4491 -0.9253  0.0918
   45CHL1  H21A 3309   3.378   4.397   7.779 -0.2688 -0.1316 -1.5664
   45CHL1  H21B 3310   3.349   4.518   7.908  2.4272  0.5035 -1.5799
   45CHL1  H21C 3311   3.312   4.568   7.748 -0.1067  0.1817  1.6103
   45CHL1   C22 3312   3.134   4.326   7.927 -0.4017  0.1110  0.1531
   45CHL1  H22A 3313   3.026   4.301   7.936 -0.8478  1.2779 -1.5501
   45CHL1  H22B 3314   3.186   4.233   7.897 -0.3643  0.2525 -0.2273
   45CHL1   C23 3315   3.192   4.354   8.071  0.4985 -1.0269 -0.7580
   45CHL1  H23A 3316   3.297   4.389   8.062  0.3940 -0.1928  0.8133
   45CHL1  H23B 3317   3.128   4.440   8.104 -2.3196 -1.3945 -4.5907
   45CHL1   C24 3318   3.162   4.243   8.173  0.7296  0.0157  0.5666
   45CHL1  H24A 3319   3.051   4.241   8.178  0.7835 -1.2936  1.6765
   45CHL1  H24B 3320   3.190   4.146   8.127 -0.3413  0.8041 -1.9543
   45CHL1   C25 3321   3.217   4.277   8.312 -0.5726 -0.2307 -0.5949
   45CHL1   H25 3322   3.322   4.311   8.313 -0.3651 -0.8589 -0.2973
   45CHL1   C26 3323   3.129   4.378   8.387  0.5061 -0.5339  0.3173
   45CHL1  H26A 3324   3.027   4.337   8.404 -0.3812  0.9385 -1.1493
   45CHL1  H26B 3325   3.169   4.408   8.486 -1.1408 -2.0687  1.5099
   45CHL1  H26C 3326   3.113   4.468   8.324 -1.4058 -1.3799 -0.5030
   45CHL1   C27 3327   3.209   4.156   8.406  0.1435  0.1574  0.2938
   45CHL1  H27A 3328   3.109   4.108   8.408  0.0918 -0.2452 -3.5186
   45CHL1  H27B 3329   3.271   4.073   8.367  2.2461  1.5505  0.5044
   45CHL1  H27C 3330   3.239   4.178   8.511 -1.1429  0.5447  0.5992
   46CHL1    C3 3331   3.365   0.241   7.290  0.0772 -0.3539 -0.4936
   46CHL1    H3 3332   3.380   0.339   7.340 -1.0714  0.3562 -1.5079
   46CHL1    O3 3333   3.400   0.259   7.155  0.1660  0.1101 -0.5478
   46CHL1   H3' 3334   3.461   0.187   7.135  0.8048 -0.1679  2.0394
   46CHL1    C4 3335   3.457   0.132   7.352  1.2560 -0.2236  0.2102
   46CHL1   H4A 3336   3.441   0.038   7.295 -1.6193 -0.9783  2.0264
   46CHL1   H4B 3337   3.565   0.153   7.342  1.8433 -1.8057  2.4021
   46CHL1    C5 3338   3.418   0.102   7.495  0.3180  0.0603 -0.4950
   46CHL1    C6 3339   3.509   0.110   7.590  0.5057 -0.2713  0.7053
   46CHL1    H6 3340   3.612   0.128   7.558 -0.5536  2.4203 -1.6855
   46CHL1    C7 3341   3.475   0.083   7.734 -0.3613 -0.5851  0.3994
   46CHL1   H7A 3342   3.549   0.021   7.788 -1.5252  0.7291  3.7051
   46CHL1   H7B 3343   3.479   0.182   7.784  2.4616 -0.9559  1.0993
   46CHL1    C8 3344   3.334   0.021   7.763  0.0465  1.0288 -0.0158
   46CHL1    H8 3345   3.343  -0.084   7.729  1.9589  1.2304 -0.2451
   46CHL1   C14 3346   3.301   0.022   7.913  0.2702 -0.2615 -0.0357
   46CHL1   H14 3347   3.286   0.129   7.938  1.3419  0.3365 -1.8072
   46CHL1   C15 3348   3.404  -0.030   8.026  0.2781  1.2642 -0.5367
   46CHL1  H15A 3349   3.463  -0.116   7.987 -1.2519 -0.9971  1.8506
   46CHL1  H15B 3350   3.469   0.052   8.061  1.8562 -0.5152  0.9518
   46CHL1   C16 3351   3.309  -0.062   8.141  0.3692  0.7578  0.4126
   46CHL1  H16A 3352   3.327  -0.169   8.165 -0.6886  0.0876 -1.5736
   46CHL1  H16B 3353   3.320  -0.000   8.233 -0.9982 -1.0463  1.8667
   46CHL1   C17 3354   3.161  -0.033   8.100 -0.4606 -0.5339  0.2761
   46CHL1   H17 3355   3.139   0.075   8.119 -1.9412 -0.6676 -0.5040
   46CHL1   C13 3356   3.161  -0.032   7.943  0.2565  0.2374 -0.2727
   46CHL1   C18 3357   3.166  -0.180   7.901  0.0311  0.1386 -0.5437
   46CHL1  H18A 3358   3.230  -0.240   7.969 -0.1270 -1.7535 -1.9551
   46CHL1  H18B 3359   3.062  -0.216   7.918 -0.4039  1.2960 -0.6836
   46CHL1  H18C 3360   3.180  -0.204   7.793  1.6408 -0.2751 -0.2697
   46CHL1   C12 3361   3.051   0.045   7.868  0.0126  0.3962 -0.3279
   46CHL1  H12A 3362   2.953  -0.001   7.893 -1.0799  1.3913 -2.5203
   46CHL1  H12B 3363   3.044   0.148   7.909  2.0746  0.5563 -0.2734
   46CHL1   C11 3364   3.084   0.059   7.722 -0.0246  0.1092  0.4648
   46CHL1  H11A 3365   3.053  -0.039   7.680  1.6056 -0.3194  0.1895
   46CHL1  H11B 3366   3.021   0.139   7.678  2.5841  0.2312 -3.6468
   46CHL1    C9 3367   3.230   0.099   7.683  0.7319 -0.3819 -0.2923
   46CHL1    H9 3368   3.251   0.206   7.703  2.0764 -0.3848 -1.5210
   46CHL1   C10 3369   3.263   0.086   7.530  1.1386  0.1745 -1.0681
   46CHL1   C19 3370   3.219  -0.054   7.487 -1.0032 -0.1084  0.0527
   46CHL1  H19A 3371   3.113  -0.065   7.455 -0.2016  0.5880 -3.1826
   46CHL1  H19B 3372   3.274  -0.088   7.397 -1.1844 -1.3986  0.3990
   46CHL1  H19C 3373   3.250  -0.136   7.555 -2.1232 -0.9330 -0.3899
   46CHL1    C1 3374   3.173   0.183   7.448  0.4654  0.1750  0.2884
   46CHL1   H1A 3375   3.072   0.137   7.454  1.8379 -3.4295 -1.5407
   46CHL1   H1B 3376   3.180   0.279   7.503  1.3564  0.4523 -0.2902
   46CHL1    C2 3377   3.220   0.204   7.304  0.3166  0.1166 -0.0547
   46CHL1   H2A 3378   3.157   0.281   7.253  1.8568  3.0053  2.0884
   46CHL1   H2B 3379   3.205   0.109   7.247  0.1324 -0.3189  0.7164
   46CHL1   C20 3380   3.060  -0.104   8.185  0.6375  0.1049  0.1234
   46CHL1   H20 3381   3.076  -0.212   8.168 -2.0066 -0.0869 -1.9185
   46CHL1   C21 3382   2.918  -0.069   8.148 -0.0732 -0.8158 -0.0149
   46CHL1  H21A 3383   2.905   0.042   8.140 -4.3986 -1.1489  0.1481
   46CHL1  H21B 3384   2.846  -0.115   8.219 -0.2145  0.5236  0.7503
   46CHL1  H21C 3385   2.890  -0.109   8.048 -0.3868  2.8275 -1.5872
   46CHL1   C22 3386   3.074  -0.097   8.339  0.4671 -0.6671 -0.0758
   46CHL1  H22A 3387   2.998  -0.168   8.379  1.6855 -1.6255  0.6416
   46CHL1  H22B 3388   3.174  -0.134   8.369  1.9457  2.2810 -1.0231
   46CHL1   C23 3389   3.054   0.037   8.402 -0.4798 -0.1970 -0.1686
   46CHL1  H23A 3390   3.113   0.114   8.349  0.2847 -1.1410 -0.7014
   46CHL1  H23B 3391   2.947   0.069   8.403 -0.4132  0.1217 -1.4915
   46CHL1   C24 3392   3.087   0.032   8.554 -0.4786 -0.2560 -0.1615
   46CHL1  H24A 3393   3.024  -0.037   8.614 -1.2985  0.3951 -0.2606
   46CHL1  H24B 3394   3.183  -0.024   8.557 -0.5621 -0.3960 -0.0565
   46CHL1   C25 3395   3.103   0.173   8.618  0.2235 -0.2552 -0.5309
   46CHL1   H25 3396   3.003   0.208   8.651 -0.4981 -3.1234  0.6583
   46CHL1   C26 3397   3.179   0.160   8.744  0.2370 -0.1515 -0.9184
   46CHL1  H26A 3398   3.282   0.124   8.722 -0.0904 -1.9953  0.3766
   46CHL1  H26B 3399   3.189   0.259   8.794  0.6748  1.2778 -3.5935
   46CHL1  H26C 3400   3.142   0.083   8.813  0.6420  1.4697  1.2040
   46CHL1   C27 3401   3.162   0.288   8.535 -0.6347 -0.4836  0.6510
   46CHL1  H27A 3402   3.266   0.266   8.506 -0.6688 -0.0003  0.1409
   46CHL1  H27B 3403   3.104   0.305   8.441 -1.8660  1.6201  1.7110
   46CHL1  H27C 3404   3.157   0.387   8.585 -1.8668 -0.9017  1.4115
   47CHL1    C3 3405   2.635   0.684   6.846 -0.1766 -0.0828  0.3923
   47CHL1    H3 3406   2.686   0.779   6.874  1.5524 -0.5979 -0.8589
   47CHL1    O3 3407   2.615   0.680   6.708 -0.1782  0.7652  0.6106
   47CHL1   H3' 3408   2.542   0.617   6.699 -1.1093  1.7835  0.8671
   47CHL1    C4 3409   2.730   0.566   6.882 -0.1905 -0.0597 -0.7285
   47CHL1   H4A 3410   2.689   0.471   6.841  0.6479  0.2174 -2.2967
   47CHL1   H4B 3411   2.828   0.571   6.830  0.0823 -0.9209 -0.3337
   47CHL1    C5 3412   2.740   0.559   7.033  0.5223 -0.0509 -0.0659
   47CHL1    C6 3413   2.856   0.548   7.091 -0.3171 -0.2098 -0.8950
   47CHL1    H6 3414   2.946   0.534   7.030  0.2866  4.2826 -1.3923
   47CHL1    C7 3415   2.871   0.527   7.245  0.0222 -0.7411  0.2877
   47CHL1   H7A 3416   2.949   0.448   7.256 -0.3678 -1.4808 -1.7273
   47CHL1   H7B 3417   2.910   0.618   7.295 -0.7716  0.2187 -0.7777
   47CHL1    C8 3418   2.744   0.476   7.308  0.1438  0.0824  0.0630
   47CHL1    H8 3419   2.732   0.368   7.283 -1.1579  0.2383 -0.0562
   47CHL1   C14 3420   2.755   0.495   7.461 -0.0555 -1.0857  0.4797
   47CHL1   H14 3421   2.776   0.604   7.472  0.2522 -0.7344 -2.6308
   47CHL1   C15 3422   2.869   0.443   7.539 -0.0320  0.2658  0.3798
   47CHL1  H15A 3423   2.884   0.335   7.519  2.7617  0.3690  1.4380
   47CHL1  H15B 3424   2.965   0.490   7.508 -0.5056 -0.2627 -2.1226
   47CHL1   C16 3425   2.828   0.455   7.683  1.0798 -0.0929 -0.6709
   47CHL1  H16A 3426   2.846   0.352   7.720  1.0477  0.0975 -0.1183
   47CHL1  H16B 3427   2.886   0.527   7.746 -0.4964  0.3996  0.2687
   47CHL1   C17 3428   2.680   0.497   7.692 -0.0180  0.2388  0.4036
   47CHL1   H17 3429   2.696   0.606   7.706  0.7340  0.3587 -1.1624
   47CHL1   C13 3430   2.627   0.467   7.547 -0.0829  0.2999  0.1925
   47CHL1   C18 3431   2.585   0.321   7.530  0.9661  0.2760  0.4960
   47CHL1  H18A 3432   2.497   0.292   7.591 -0.5183 -2.1922 -2.5403
   47CHL1  H18B 3433   2.571   0.297   7.422 -0.6449 -0.3762  0.8296
   47CHL1  H18C 3434   2.669   0.255   7.561  0.7907  0.5233  1.5244
   47CHL1   C12 3435   2.518   0.566   7.500 -0.0245 -0.4091 -0.6176
   47CHL1  H12A 3436   2.422   0.561   7.557 -0.1861 -1.9027 -0.9867
   47CHL1  H12B 3437   2.554   0.670   7.518 -1.2141  0.1014 -1.0362
   47CHL1   C11 3438   2.497   0.556   7.350  0.9829  0.0723 -0.8983
   47CHL1  H11A 3439   2.436   0.464   7.335  0.1619  0.2348  1.1720
   47CHL1  H11B 3440   2.433   0.644   7.334  0.0033 -0.9023 -2.6382
   47CHL1    C9 3441   2.625   0.565   7.269 -0.2986 -0.5440 -0.0098
   47CHL1    H9 3442   2.667   0.665   7.293 -0.7003 -0.2617 -0.4713
   47CHL1   C10 3443   2.609   0.556   7.117 -0.1518  0.1024  0.7971
   47CHL1   C19 3444   2.554   0.418   7.080 -0.6384  0.2268 -0.6475
   47CHL1  H19A 3445   2.518   0.415   6.975  1.0512 -0.5909 -1.2405
   47CHL1  H19B 3446   2.632   0.340   7.093 -1.0051  0.2201  2.1243
   47CHL1  H19C 3447   2.472   0.382   7.145  0.6976 -1.9411 -0.0858
   47CHL1    C1 3448   2.511   0.668   7.070  0.4483 -0.5012 -0.2364
   47CHL1   H1A 3449   2.413   0.639   7.114 -1.4671  1.8574 -2.6330
   47CHL1   H1B 3450   2.549   0.762   7.116  0.2106 -0.6277  0.2324
   47CHL1    C2 3451   2.491   0.683   6.913  0.4999 -0.2413  0.6910
   47CHL1   H2A 3452   2.430   0.774   6.896  0.0274 -0.7059 -0.1641
   47CHL1   H2B 3453   2.438   0.604   6.857  0.9335  0.0001 -0.0760
   47CHL1   C20 3454   2.612   0.433   7.819 -0.2699  0.0913 -0.6969
   47CHL1   H20 3455   2.597   0.325   7.799 -1.1443  0.5155 -2.5884
   47CHL1   C21 3456   2.468   0.489   7.839 -0.1505  0.2244  0.4910
   47CHL1  H21A 3457   2.408   0.475   7.746 -0.1042  1.5407  0.2386
   47CHL1  H21B 3458   2.475   0.598   7.856 -0.4941  0.5069 -1.0204
   47CHL1  H21C 3459   2.407   0.440   7.918 -0.3396  0.0876  0.2627
   47CHL1   C22 3460   2.684   0.452   7.948 -0.0356 -0.7866 -0.8126
   47CHL1  H22A 3461   2.790   0.420   7.936  0.4995  0.1474  0.9945
   47CHL1  H22B 3462   2.679   0.562   7.962  0.8252 -0.6502 -1.4671
   47CHL1   C23 3463   2.631   0.387   8.083  0.0999 -0.6602 -0.1712
   47CHL1  H23A 3464   2.522   0.371   8.075  0.3739 -1.7123 -2.9719
   47CHL1  H23B 3465   2.678   0.289   8.107  1.5859  0.1633  0.4440
   47CHL1   C24 3466   2.665   0.479   8.205 -0.3156 -0.1432 -0.5112
   47CHL1  H24A 3467   2.774   0.500   8.205  0.0624 -1.9613 -1.6965
   47CHL1  H24B 3468   2.607   0.574   8.195 -1.4725 -0.9114 -1.4241
   47CHL1   C25 3469   2.617   0.426   8.343 -0.8117  0.4467 -0.7256
   47CHL1   H25 3470   2.696   0.360   8.383 -2.6239 -1.3545  0.0335
   47CHL1   C26 3471   2.603   0.538   8.454  0.4241  0.4993  0.0548
   47CHL1  H26A 3472   2.517   0.605   8.429 -0.0159  0.2178  0.7945
   47CHL1  H26B 3473   2.570   0.491   8.549 -0.1601 -0.1668 -0.4634
   47CHL1  H26C 3474   2.694   0.600   8.471 -1.1590  2.0221  4.2179
   47CHL1   C27 3475   2.483   0.352   8.325 -0.0332  0.2549 -0.3614
   47CHL1  H27A 3476   2.491   0.243   8.308  1.0782 -0.2225  2.5957
   47CHL1  H27B 3477   2.418   0.371   8.414 -2.0117  1.0859 -1.9116
   47CHL1  H27C 3478   2.422   0.395   8.243  1.4327  0.3595 -1.4311
   48CHL1    C3 3479   4.560   3.761   6.580 -0.6245 -0.1996  0.0362
   48CHL1    H3 3480   4.511   3.670   6.620  2.5231 -1.2341  1.9191
   48CHL1    O3 3481   4.548   3.765   6.437  0.7780  0.3028 -0.3142
   48CHL1   H3' 3482   4.544   3.849   6.390 -1.5688 -0.6968 -2.0755
   48CHL1    C4 3483   4.491   3.886   6.640 -0.1985  0.0555  0.0386
   48CHL1   H4A 3484   4.531   3.976   6.590  0.7638 -0.0824  0.5459
   48CHL1   H4B 3485   4.383   3.872   6.616 -0.1253 -0.2256 -0.1371
   48CHL1    C5 3486   4.508   3.898   6.792  0.6120  0.3491 -0.5063
   48CHL1    C6 3487   4.394   3.930   6.859  0.2641  0.8270  0.0295
   48CHL1    H6 3488   4.296   3.929   6.808 -0.3443 -4.2165  0.7279
   48CHL1    C7 3489   4.406   3.958   7.005  0.0830 -0.5522 -0.2863
   48CHL1   H7A 3490   4.366   4.058   7.030  2.7184  0.3052  0.9238
   48CHL1   H7B 3491   4.347   3.873   7.045  0.3351 -0.7073 -0.2388
   48CHL1    C8 3492   4.549   3.962   7.064 -0.2312  0.6107 -0.0180
   48CHL1    H8 3493   4.589   4.066   7.057 -1.2813  0.9584 -1.2383
   48CHL1   C14 3494   4.533   3.932   7.212 -0.0999 -0.3392 -0.4192
   48CHL1   H14 3495   4.487   3.831   7.216  0.2389 -0.4687  0.1386
   48CHL1   C15 3496   4.445   4.026   7.295  0.2594  0.2752 -0.2972
   48CHL1  H15A 3497   4.452   4.132   7.264  0.5854  0.1605 -0.6331
   48CHL1  H15B 3498   4.338   4.002   7.278  0.0849  0.7077  0.1793
   48CHL1   C16 3499   4.489   4.004   7.437  0.1249  0.0510 -0.0233
   48CHL1  H16A 3500   4.525   4.098   7.483 -0.4389 -0.0861  0.7133
   48CHL1  H16B 3501   4.416   3.965   7.510  0.7544  1.5206  1.4555
   48CHL1   C17 3502   4.605   3.908   7.432 -0.2188 -0.0940 -0.2090
   48CHL1   H17 3503   4.563   3.806   7.446  2.4094 -1.1189  0.9606
   48CHL1   C13 3504   4.661   3.924   7.292  0.5132 -1.0160  0.7827
   48CHL1   C18 3505   4.734   4.052   7.294  0.6387 -0.2205 -0.0063
   48CHL1  H18A 3506   4.841   4.022   7.301  0.1537 -1.9270  0.8045
   48CHL1  H18B 3507   4.728   4.101   7.195  0.6052 -0.3750 -0.0811
   48CHL1  H18C 3508   4.701   4.126   7.370  1.4709  1.5019 -1.2421
   48CHL1   C12 3509   4.747   3.807   7.230 -0.0668  0.0858  0.3226
   48CHL1  H12A 3510   4.844   3.802   7.284  0.3742  0.9096 -0.3618
   48CHL1  H12B 3511   4.703   3.706   7.243 -1.3835  0.6205  0.1913
   48CHL1   C11 3512   4.775   3.832   7.073  0.8539  0.1651  0.3358
   48CHL1  H11A 3513   4.826   3.931   7.070  2.8737 -0.8262  0.5824
   48CHL1  H11B 3514   4.842   3.760   7.023  0.6217  0.7340 -0.8173
   48CHL1    C9 3515   4.641   3.854   6.999 -0.1171 -0.4899 -0.2171
   48CHL1    H9 3516   4.586   3.757   7.007  0.2474 -0.7832 -1.0979
   48CHL1   C10 3517   4.648   3.879   6.846 -0.5163 -0.0570 -0.2018
   48CHL1   C19 3518   4.733   4.002   6.816 -0.1743 -0.3810  0.1017
   48CHL1  H19A 3519   4.704   4.094   6.872  1.2089 -0.2033  0.5513
   48CHL1  H19B 3520   4.839   3.977   6.839 -0.5339 -1.4571  0.6718
   48CHL1  H19C 3521   4.727   4.010   6.706  1.3387 -1.6264 -0.1064
   48CHL1    C1 3522   4.721   3.761   6.781  0.2765  0.2384 -0.1420
   48CHL1   H1A 3523   4.830   3.758   6.803  0.1545 -1.1954  0.3570
   48CHL1   H1B 3524   4.686   3.665   6.823  2.2428 -1.0624 -1.3294
   48CHL1    C2 3525   4.710   3.750   6.630 -0.1233 -0.6466  0.8283
   48CHL1   H2A 3526   4.757   3.655   6.599  1.0087 -0.1103  0.8525
   48CHL1   H2B 3527   4.770   3.832   6.585 -0.3282 -1.6934 -1.4691
   48CHL1   C20 3528   4.706   3.921   7.556  0.5034  0.0915  0.0155
   48CHL1   H20 3529   4.789   3.992   7.536  2.4545 -1.8781  0.6400
   48CHL1   C21 3530   4.777   3.784   7.583  0.0239  0.1948 -0.0951
   48CHL1  H21A 3531   4.826   3.752   7.489  0.5928 -0.9626  0.5766
   48CHL1  H21B 3532   4.711   3.707   7.628 -0.6286 -0.0736 -1.4653
   48CHL1  H21C 3533   4.854   3.803   7.660 -3.4868  0.8723  3.6117
   48CHL1   C22 3534   4.638   3.963   7.694 -0.3146  0.3305 -0.2999
   48CHL1  H22A 3535   4.601   4.068   7.689  0.5565  0.6104 -1.3461
   48CHL1  H22B 3536   4.546   3.901   7.696 -1.5992  2.0528 -1.6014
   48CHL1   C23 3537   4.723   3.950   7.828  0.0301 -0.4037  0.5707
   48CHL1  H23A 3538   4.748   3.843   7.849 -0.3542 -0.4087  1.0175
   48CHL1  H23B 3539   4.819   4.002   7.808 -0.6522  0.5914 -0.2262
   48CHL1   C24 3540   4.653   4.009   7.952  0.7941 -0.0317 -0.4723
   48CHL1  H24A 3541   4.587   4.096   7.927 -0.0307  0.3738  2.7216
   48CHL1  H24B 3542   4.576   3.946   8.000  0.1579  1.5951  0.7569
   48CHL1   C25 3543   4.748   4.039   8.068 -0.0057 -0.3375 -0.0695
   48CHL1   H25 3544   4.828   4.113   8.045  0.5611 -0.2510  1.9944
   48CHL1   C26 3545   4.664   4.081   8.190  0.4508 -0.4163  0.0107
   48CHL1  H26A 3546   4.575   4.139   8.159  1.1168  0.3089 -0.6089
   48CHL1  H26B 3547   4.630   3.991   8.244 -1.0741  1.3413  2.1488
   48CHL1  H26C 3548   4.721   4.142   8.263 -1.1957  0.2011  0.8318
   48CHL1   C27 3549   4.819   3.915   8.109 -0.1023  0.4116  0.8151
   48CHL1  H27A 3550   4.893   3.878   8.034 -2.9791 -1.3869 -1.3464
   48CHL1  H27B 3551   4.881   3.944   8.196  2.6998  0.6732 -1.1265
   48CHL1  H27C 3552   4.763   3.822   8.130  0.9633 -0.8601 -1.5437
   49CHL1    C3 3553   3.952   4.868   6.997 -0.1381 -0.1176 -0.5829
   49CHL1    H3 3554   4.020   4.956   6.992  2.2812 -1.8686 -0.2943
   49CHL1    O3 3555   3.900   4.835   6.868 -0.6034 -0.1423  0.5662
   49CHL1   H3' 3556   3.971   4.802   6.812  0.2661  1.8601  0.3910
   49CHL1    C4 3557   4.042   4.751   7.049 -0.0586 -0.9177 -0.1667
   49CHL1   H4A 3558   3.982   4.658   7.043 -0.0897 -0.8287 -1.5872
   49CHL1   H4B 3559   4.128   4.745   6.978  1.4989  0.3692  1.5146
   49CHL1    C5 3560   4.092   4.765   7.192 -0.1640  0.6543  0.1051
   49CHL1    C6 3561   4.222   4.738   7.223 -0.3935  0.4191  1.0559
   49CHL1    H6 3562   4.296   4.704   7.149  0.3437  0.1525  1.8869
   49CHL1    C7 3563   4.273   4.730   7.361  0.0269 -0.3850 -0.1724
   49CHL1   H7A 3564   4.319   4.629   7.370  0.9539 -0.4486 -3.8408
   49CHL1   H7B 3565   4.346   4.812   7.378 -1.5550  0.6366  2.1939
   49CHL1    C8 3566   4.162   4.733   7.470  0.2847  0.3973 -0.3834
   49CHL1    H8 3567   4.116   4.635   7.492 -0.1050  1.0220  1.8001
   49CHL1   C14 3568   4.222   4.782   7.607  0.0711 -0.4419  0.2809
   49CHL1   H14 3569   4.265   4.883   7.589  0.4315 -0.6184  0.1199
   49CHL1   C15 3570   4.335   4.707   7.668 -0.1210  0.4887 -0.1334
   49CHL1  H15A 3571   4.333   4.596   7.662 -0.5572  0.5545 -1.5728
   49CHL1  H15B 3572   4.436   4.727   7.626  0.6371 -0.6323  1.0773
   49CHL1   C16 3573   4.332   4.762   7.807 -0.4448 -0.9739 -0.6255
   49CHL1  H16A 3574   4.349   4.679   7.879  0.8825 -2.7711 -2.9013
   49CHL1  H16B 3575   4.408   4.841   7.825 -2.3233  0.2753  3.0871
   49CHL1   C17 3576   4.192   4.825   7.838  0.5420  0.3160 -0.6301
   49CHL1   H17 3577   4.207   4.935   7.844  2.2914  0.1177 -0.6150
   49CHL1   C13 3578   4.111   4.796   7.716 -0.4319  0.2423 -0.4734
   49CHL1   C18 3579   4.039   4.663   7.737  0.2717  0.6021 -0.3487
   49CHL1  H18A 3580   4.116   4.589   7.767  1.7521  2.0840 -0.3579
   49CHL1  H18B 3581   3.965   4.665   7.820 -0.1604  0.1867 -0.7150
   49CHL1  H18C 3582   3.988   4.625   7.646 -0.3878  0.3326  0.1252
   49CHL1   C12 3583   4.018   4.911   7.669 -0.0984  0.1646 -0.2219
   49CHL1  H12A 3584   3.932   4.925   7.738 -0.1522 -1.0800 -0.0229
   49CHL1  H12B 3585   4.080   5.003   7.661 -1.5603  1.2291  0.1932
   49CHL1   C11 3586   3.954   4.876   7.535  0.8294  0.0867 -0.6305
   49CHL1  H11A 3587   3.893   4.789   7.567  3.5858 -1.2750  1.3141
   49CHL1  H11B 3588   3.882   4.954   7.501  1.0520  0.2489 -0.7340
   49CHL1    C9 3589   4.050   4.835   7.429  0.2461  0.2408  0.3054
   49CHL1    H9 3590   4.107   4.927   7.406 -0.0831  0.7880  1.6098
   49CHL1   C10 3591   3.985   4.803   7.294  0.3235 -0.5569 -0.1809
   49CHL1   C19 3592   3.896   4.676   7.326  0.1724 -0.7092  0.5128
   49CHL1  H19A 3593   3.822   4.692   7.408 -0.1854 -0.6119  0.1711
   49CHL1  H19B 3594   3.833   4.650   7.238 -2.3862 -0.2368  2.0755
   49CHL1  H19C 3595   3.955   4.584   7.345 -0.5018 -0.8566  2.0381
   49CHL1    C1 3596   3.905   4.917   7.237 -0.1054 -0.1611  0.3871
   49CHL1   H1A 3597   3.813   4.924   7.299 -0.0654  0.4119  0.3893
   49CHL1   H1B 3598   3.950   5.019   7.243  2.0590 -1.1255  1.7414
   49CHL1    C2 3599   3.844   4.896   7.097 -0.0971 -0.2847  0.3437
   49CHL1   H2A 3600   3.774   4.976   7.065 -1.4773 -0.7850  1.9696
   49CHL1   H2B 3601   3.783   4.803   7.098 -0.0802 -0.3238 -0.8324
   49CHL1   C20 3602   4.147   4.784   7.985 -0.0029 -0.3324  0.5032
   49CHL1   H20 3603   4.106   4.681   7.987  0.1888 -0.4665 -1.1896
   49CHL1   C21 3604   4.032   4.875   8.024  0.4084  0.0256 -0.5413
   49CHL1  H21A 3605   3.945   4.869   7.955  0.4171 -2.4167 -0.4338
   49CHL1  H21B 3606   4.069   4.979   8.037  0.9565 -0.3176  0.8219
   49CHL1  H21C 3607   3.998   4.846   8.125 -2.0440 -1.3192 -1.6615
   49CHL1   C22 3608   4.261   4.799   8.094 -0.0418  0.5512  0.0183
   49CHL1  H22A 3609   4.325   4.710   8.076 -0.5435  0.1051  0.4059
   49CHL1  H22B 3610   4.312   4.895   8.075 -1.2650  0.7472 -2.7893
   49CHL1   C23 3611   4.211   4.785   8.243 -0.2115  1.0702  0.2300
   49CHL1  H23A 3612   4.303   4.757   8.298 -0.7799 -0.8789  0.2776
   49CHL1  H23B 3613   4.162   4.876   8.282  0.6496  0.6199  2.5019
   49CHL1   C24 3614   4.131   4.653   8.262  1.4374  0.1206  0.5602
   49CHL1  H24A 3615   4.036   4.658   8.205  1.7328  0.6402  0.1109
   49CHL1  H24B 3616   4.190   4.575   8.210  0.0795 -0.3958 -0.2353
   49CHL1   C25 3617   4.100   4.620   8.406 -0.3908 -0.2234  0.6079
   49CHL1   H25 3618   4.188   4.640   8.471  0.9906  0.3571 -1.3356
   49CHL1   C26 3619   3.979   4.704   8.459 -0.4341 -0.2611  0.3267
   49CHL1  H26A 3620   3.975   4.720   8.569  2.5915  2.5409  0.1889
   49CHL1  H26B 3621   3.974   4.797   8.398  1.9512  0.9023  1.7647
   49CHL1  H26C 3622   3.886   4.653   8.424  0.2207 -2.4304  1.5583
   49CHL1   C27 3623   4.060   4.475   8.408 -0.2879  0.6191 -0.1458
   49CHL1  H27A 3624   4.154   4.418   8.388 -1.5616 -1.1629 -1.3328
   49CHL1  H27B 3625   4.025   4.449   8.510  1.5489 -1.8181 -0.0328
   49CHL1  H27C 3626   3.988   4.442   8.330 -1.8057 -2.3869  2.3159
   50CHL1    C3 3627   4.741   5.271   6.879 -0.1257 -0.0201  0.8710
   50CHL1    H3 3628   4.635   5.237   6.886 -0.7240  1.9455  2.0854
   50CHL1    O3 3629   4.780   5.266   6.741  0.1520 -0.6019  0.4030
   50CHL1   H3' 3630   4.854   5.325   6.726 -1.9349  1.6941 -1.6249
   50CHL1    C4 3631   4.736   5.420   6.915 -0.3564  0.6533 -0.5706
   50CHL1   H4A 3632   4.834   5.468   6.893 -0.9544  1.4281 -1.6057
   50CHL1   H4B 3633   4.656   5.472   6.859 -1.6655 -1.1370 -0.4648
   50CHL1    C5 3634   4.707   5.430   7.062  1.0114 -0.7652  0.8392
   50CHL1    C6 3635   4.602   5.499   7.109 -0.1142  0.1732  0.5493
   50CHL1    H6 3636   4.538   5.546   7.033 -0.4107  0.0915  0.7440
   50CHL1    C7 3637   4.564   5.512   7.254 -0.0883  0.0800  0.2374
   50CHL1   H7A 3638   4.502   5.603   7.267 -0.7795 -0.4340  0.5857
   50CHL1   H7B 3639   4.496   5.429   7.282 -0.0978 -0.0481 -0.1513
   50CHL1    C8 3640   4.683   5.485   7.343 -0.2540 -0.1245 -0.5055
   50CHL1    H8 3641   4.752   5.571   7.333 -0.7427  0.5819  1.7061
   50CHL1   C14 3642   4.641   5.468   7.497  0.1504  0.8448 -1.8370
   50CHL1   H14 3643   4.580   5.375   7.503 -0.5611  1.4058  1.0891
   50CHL1   C15 3644   4.565   5.589   7.551 -0.0472  0.5558  0.2863
   50CHL1  H15A 3645   4.624   5.673   7.508  2.2263 -0.9520  0.2805
   50CHL1  H15B 3646   4.458   5.608   7.531 -0.0832  0.5236  0.4443
   50CHL1   C16 3647   4.574   5.570   7.708 -0.0491  0.7688  0.4572
   50CHL1  H16A 3648   4.595   5.668   7.756 -2.9326  0.3080  2.9921
   50CHL1  H16B 3649   4.474   5.542   7.746 -0.1947 -1.1844 -1.1762
   50CHL1   C17 3650   4.681   5.464   7.722 -0.0596  0.0420 -0.6890
   50CHL1   H17 3651   4.627   5.367   7.733  1.3757 -0.8084 -0.8753
   50CHL1   C13 3652   4.757   5.445   7.593  0.0144  0.2884 -0.0734
   50CHL1   C18 3653   4.862   5.555   7.582  0.0263 -0.6533  0.3729
   50CHL1  H18A 3654   4.954   5.529   7.640 -0.1355 -1.3395  0.3273
   50CHL1  H18B 3655   4.902   5.577   7.481 -1.1854 -0.6127 -0.1083
   50CHL1  H18C 3656   4.824   5.650   7.625  0.9628 -0.2009  0.2199
   50CHL1   C12 3657   4.818   5.307   7.553 -0.2512 -0.3185 -0.4678
   50CHL1  H12A 3658   4.889   5.269   7.631  1.6361  1.9184 -0.9791
   50CHL1  H12B 3659   4.738   5.230   7.555  0.8947 -1.5467  0.5234
   50CHL1   C11 3660   4.872   5.311   7.406 -0.4950  0.7373  0.5243
   50CHL1  H11A 3661   4.954   5.386   7.401  0.0872  0.0570 -1.9038
   50CHL1  H11B 3662   4.911   5.209   7.386 -0.3051  0.7584  0.7974
   50CHL1    C9 3663   4.755   5.353   7.305 -0.0721  0.5208  0.1716
   50CHL1    H9 3664   4.677   5.277   7.323  0.2658  0.6656  2.4633
   50CHL1   C10 3665   4.798   5.343   7.154  0.1879 -0.6623 -0.3017
   50CHL1   C19 3666   4.942   5.390   7.144  0.0935 -0.3188  0.1864
   50CHL1  H19A 3667   4.990   5.402   7.044  1.4975  1.0358  0.9904
   50CHL1  H19B 3668   4.959   5.474   7.215 -2.1925 -0.7827  1.3963
   50CHL1  H19C 3669   5.001   5.307   7.186 -0.4284 -1.3350 -1.0131
   50CHL1    C1 3670   4.783   5.198   7.114 -0.0353 -0.2782 -0.2099
   50CHL1   H1A 3671   4.848   5.139   7.182 -1.2271 -0.7921  0.5141
   50CHL1   H1B 3672   4.678   5.161   7.123 -0.0970 -0.2172 -0.6271
   50CHL1    C2 3673   4.826   5.179   6.969 -0.4394 -0.1379 -0.1761
   50CHL1   H2A 3674   4.816   5.072   6.938 -1.7027 -0.2169  0.4341
   50CHL1   H2B 3675   4.934   5.206   6.963 -0.4854  0.9606  2.5349
   50CHL1   C20 3676   4.749   5.478   7.861 -0.4145  0.0119  0.4554
   50CHL1   H20 3677   4.786   5.582   7.879 -0.0244 -0.0138 -0.1552
   50CHL1   C21 3678   4.853   5.362   7.886 -0.6206  0.1667 -0.5652
   50CHL1  H21A 3679   4.891   5.355   7.990 -2.9879 -0.1227  0.3494
   50CHL1  H21B 3680   4.945   5.381   7.828 -0.5205  0.2937 -0.3677
   50CHL1  H21C 3681   4.819   5.265   7.844  2.2357 -0.1548 -2.3555
   50CHL1   C22 3682   4.660   5.454   7.988 -0.3866  0.2163  0.1698
   50CHL1  H22A 3683   4.605   5.361   7.963 -1.6136  1.2615 -1.1677
   50CHL1  H22B 3684   4.723   5.433   8.077 -0.9940  1.7775  1.0243
   50CHL1   C23 3685   4.566   5.570   8.028 -0.2022 -0.0585 -0.0140
   50CHL1  H23A 3686   4.628   5.660   8.006  2.9146 -2.1769 -0.4695
   50CHL1  H23B 3687   4.471   5.566   7.972 -0.8527 -0.7432  1.0988
   50CHL1   C24 3688   4.531   5.575   8.178 -0.0212  0.0715  0.0931
   50CHL1  H24A 3689   4.498   5.472   8.206 -0.8788  0.6852  1.4503
   50CHL1  H24B 3690   4.626   5.599   8.229  0.1500 -0.8916  0.2523
   50CHL1   C25 3691   4.412   5.668   8.219  0.3743 -0.5046  0.1110
   50CHL1   H25 3692   4.437   5.775   8.204  0.6386 -0.6370 -0.4095
   50CHL1   C26 3693   4.289   5.631   8.141 -0.0796  1.3407 -0.0926
   50CHL1  H26A 3694   4.276   5.522   8.158 -0.1978  0.7948 -3.0792
   50CHL1  H26B 3695   4.202   5.683   8.187 -1.7842 -0.1511 -1.4610
   50CHL1  H26C 3696   4.303   5.658   8.034 -0.6947  0.6808 -0.3547
   50CHL1   C27 3697   4.376   5.666   8.372  0.4826  0.1512 -0.0439
   50CHL1  H27A 3698   4.461   5.704   8.433 -0.1515 -2.6794  2.8477
   50CHL1  H27B 3699   4.293   5.734   8.401 -1.4729 -1.6275 -1.1948
   50CHL1  H27C 3700   4.353   5.564   8.408 -0.1689  0.3809  0.2065
   51CHL1    C3 3701   3.818   3.826   6.978 -0.4557  0.1072  0.4900
   51CHL1    H3 3702   3.881   3.734   6.977 -0.8226 -0.1778  1.9150
   51CHL1    O3 3703   3.776   3.847   6.843 -0.0975  0.3250 -0.4973
   51CHL1   H3' 3704   3.713   3.919   6.833 -0.3868  1.1038  4.2094
   51CHL1    C4 3705   3.696   3.803   7.069  0.3770  0.2799  0.0225
   51CHL1   H4A 3706   3.633   3.893   7.056  0.0871  0.2320  0.9927
   51CHL1   H4B 3707   3.638   3.713   7.036  0.1239  0.3662  0.2328
   51CHL1    C5 3708   3.725   3.785   7.218  0.1569 -0.3257 -0.0981
   51CHL1    C6 3709   3.683   3.677   7.287  0.0476  0.6021  0.2076
   51CHL1    H6 3710   3.627   3.610   7.220 -0.7515  0.6706  0.7967
   51CHL1    C7 3711   3.726   3.646   7.426 -0.4253 -0.0306  0.2862
   51CHL1   H7A 3712   3.647   3.594   7.484  1.2823 -0.4008  2.4360
   51CHL1   H7B 3713   3.799   3.562   7.419 -0.6131 -0.1757  0.0862
   51CHL1    C8 3714   3.788   3.759   7.504  0.3920  0.2834 -0.7394
   51CHL1    H8 3715   3.709   3.829   7.537  1.9960  1.5164  0.6351
   51CHL1   C14 3716   3.861   3.702   7.627  0.4149  0.0956 -0.1648
   51CHL1   H14 3717   3.950   3.650   7.586 -0.4996 -1.6379 -0.0123
   51CHL1   C15 3718   3.799   3.590   7.710  0.5186 -0.2531 -0.8707
   51CHL1  H15A 3719   3.694   3.621   7.728  1.0152  0.0364  2.1861
   51CHL1  H15B 3720   3.803   3.492   7.659  0.9657 -0.7499  0.0929
   51CHL1   C16 3721   3.862   3.596   7.850  1.0945 -0.0605 -0.5835
   51CHL1  H16A 3722   3.783   3.619   7.924 -0.4411 -1.2785 -1.7843
   51CHL1  H16B 3723   3.901   3.495   7.879 -1.0468 -1.8813 -3.5091
   51CHL1   C17 3724   3.970   3.701   7.835  0.0051  0.3517 -0.4774
   51CHL1   H17 3725   4.057   3.651   7.789  0.5924  0.2852  0.6809
   51CHL1   C13 3726   3.917   3.800   7.722  0.7347 -0.0853  0.4792
   51CHL1   C18 3727   3.809   3.886   7.786  0.3230  0.1672 -0.5660
   51CHL1  H18A 3728   3.854   3.964   7.851  0.2975  1.0814 -1.6128
   51CHL1  H18B 3729   3.750   3.931   7.704  0.4106  1.3820  0.0136
   51CHL1  H18C 3730   3.742   3.824   7.848  0.3141  1.8349  1.1501
   51CHL1   C12 3731   4.022   3.882   7.638 -0.2198 -0.0376 -0.5930
   51CHL1  H12A 3732   4.053   3.975   7.690 -2.2764  1.4555 -1.8956
   51CHL1  H12B 3733   4.103   3.809   7.617 -0.7258 -0.9259  0.4135
   51CHL1   C11 3734   3.966   3.937   7.502 -0.5580 -0.1132 -0.0534
   51CHL1  H11A 3735   3.910   4.028   7.531  0.4234  0.2233  0.8559
   51CHL1  H11B 3736   4.052   3.985   7.450 -0.7116  0.7107  0.4518
   51CHL1    C9 3737   3.889   3.828   7.415  0.1152  0.8718  0.0910
   51CHL1    H9 3738   3.961   3.750   7.381 -0.4300 -0.2174  1.3656
   51CHL1   C10 3739   3.822   3.884   7.283 -0.2843 -0.1226 -0.7282
   51CHL1   C19 3740   3.756   4.015   7.323 -0.1098  0.2103 -0.4683
   51CHL1  H19A 3741   3.700   4.014   7.419  2.5769  2.3399  1.2462
   51CHL1  H19B 3742   3.821   4.104   7.317 -1.0452  0.9376 -0.1350
   51CHL1  H19C 3743   3.676   4.033   7.248  1.3987 -0.4688 -2.3239
   51CHL1    C1 3744   3.942   3.908   7.184  0.1924 -0.5227 -0.2286
   51CHL1   H1A 3745   3.993   3.998   7.226  0.1850 -0.4878 -0.2925
   51CHL1   H1B 3746   4.013   3.823   7.180 -1.3307 -1.8860  0.7641
   51CHL1    C2 3747   3.897   3.938   7.039  0.1569 -0.8831  0.5028
   51CHL1   H2A 3748   3.982   3.968   6.974  0.6414 -0.3307  1.3719
   51CHL1   H2B 3749   3.830   4.027   7.041  1.4020  0.0762  1.7033
   51CHL1   C20 3750   4.018   3.771   7.961  0.7049 -0.2339 -0.2006
   51CHL1   H20 3751   3.932   3.828   8.001  0.4775 -1.0315  0.4818
   51CHL1   C21 3752   4.131   3.866   7.932 -0.3085  0.2920  0.5236
   51CHL1  H21A 3753   4.174   3.910   8.025 -0.4510  1.4724  0.0508
   51CHL1  H21B 3754   4.088   3.957   7.885  0.6225 -0.2829 -1.5308
   51CHL1  H21C 3755   4.205   3.817   7.866 -0.2055 -1.0480  1.5774
   51CHL1   C22 3756   4.052   3.664   8.069 -0.3951  0.1603 -0.4324
   51CHL1  H22A 3757   3.964   3.609   8.109  0.7194 -0.3751  1.3671
   51CHL1  H22B 3758   4.123   3.590   8.027  1.3697  1.5303 -0.0079
   51CHL1   C23 3759   4.110   3.716   8.199 -0.0395  0.3329 -0.2540
   51CHL1  H23A 3760   4.205   3.771   8.181 -0.4394  1.1561  0.0923
   51CHL1  H23B 3761   4.044   3.792   8.247  0.9989  0.6102  0.8060
   51CHL1   C24 3762   4.131   3.603   8.296  0.6963  0.0440  0.4293
   51CHL1  H24A 3763   4.037   3.550   8.323  0.3483  1.8023  3.0026
   51CHL1  H24B 3764   4.186   3.518   8.248  0.2852 -0.1470  0.2897
   51CHL1   C25 3765   4.216   3.641   8.417 -0.5180  0.7345 -0.2464
   51CHL1   H25 3766   4.301   3.705   8.385  1.5579 -0.8490  1.7486
   51CHL1   C26 3767   4.142   3.721   8.522  0.4557 -0.2620 -0.0726
   51CHL1  H26A 3768   4.205   3.716   8.613  0.7885 -2.1691 -0.3724
   51CHL1  H26B 3769   4.129   3.828   8.495 -0.4793 -0.0965  0.9786
   51CHL1  H26C 3770   4.041   3.679   8.544 -0.3983  2.0096  0.5740
   51CHL1   C27 3771   4.283   3.520   8.475  0.1833  0.2248  0.2697
   51CHL1  H27A 3772   4.207   3.443   8.498  0.5131  0.5664  2.7139
   51CHL1  H27B 3773   4.355   3.488   8.397 -0.5163 -0.3407 -0.1561
   51CHL1  H27C 3774   4.340   3.536   8.569  1.2471  0.7991 -0.4495
   52CHL1    C3 3775   1.756   4.565   6.990 -0.1173  0.0782  0.4983
   52CHL1    H3 3776   1.852   4.523   7.027 -1.0963 -1.5673  1.3116
   52CHL1    O3 3777   1.764   4.614   6.859  0.2825 -0.1267  0.6774
   52CHL1   H3' 3778   1.675   4.623   6.823  1.6575  0.9154 -2.8783
   52CHL1    C4 3779   1.648   4.453   6.996 -0.4334 -0.2570  0.4116
   52CHL1   H4A 3780   1.562   4.509   6.954  1.7256  1.2332 -2.3661
   52CHL1   H4B 3781   1.681   4.380   6.919  0.9851 -0.1071  0.8522
   52CHL1    C5 3782   1.613   4.404   7.127 -0.1410  0.3528 -0.1465
   52CHL1    C6 3783   1.588   4.274   7.152 -0.3141 -0.0650 -0.8886
   52CHL1    H6 3784   1.601   4.193   7.078 -2.1228 -2.0851  0.8440
   52CHL1    C7 3785   1.545   4.217   7.291 -0.0619 -0.5765  0.1988
   52CHL1   H7A 3786   1.452   4.156   7.284 -1.0796  1.0064 -0.5998
   52CHL1   H7B 3787   1.630   4.153   7.322  0.7448  0.9930  1.3112
   52CHL1    C8 3788   1.512   4.332   7.388  0.3423 -0.5632 -0.1606
   52CHL1    H8 3789   1.408   4.364   7.369  0.9693  0.6626 -1.7730
   52CHL1   C14 3790   1.514   4.283   7.536 -0.7199  0.4087  0.3830
   52CHL1   H14 3791   1.621   4.256   7.548 -0.7471  0.2344  0.2464
   52CHL1   C15 3792   1.444   4.153   7.574  0.0224  0.6059  0.1855
   52CHL1  H15A 3793   1.342   4.158   7.530 -0.2523  0.7793  0.8276
   52CHL1  H15B 3794   1.510   4.067   7.549  0.6729  0.7369  1.3365
   52CHL1   C16 3795   1.426   4.166   7.731  0.4923 -0.3909 -0.4315
   52CHL1  H16A 3796   1.318   4.159   7.751  0.7740 -0.9284  0.9716
   52CHL1  H16B 3797   1.491   4.093   7.783  1.0956  0.7545  0.4876
   52CHL1   C17 3798   1.474   4.307   7.774 -0.2159 -0.8010  0.5671
   52CHL1   H17 3799   1.582   4.293   7.800  0.5262 -0.6471 -2.1689
   52CHL1   C13 3800   1.483   4.392   7.645 -0.2763 -0.3089  0.7395
   52CHL1   C18 3801   1.334   4.437   7.614 -0.2985 -0.4313  0.0433
   52CHL1  H18A 3802   1.315   4.470   7.510  1.4743  1.1628  0.1574
   52CHL1  H18B 3803   1.271   4.347   7.631  0.2881 -1.5425 -3.0115
   52CHL1  H18C 3804   1.303   4.516   7.686  0.0507 -1.5805  1.5105
   52CHL1   C12 3805   1.570   4.517   7.641 -0.2478  0.0089 -0.0966
   52CHL1  H12A 3806   1.531   4.585   7.719  1.5005 -1.1006  1.8253
   52CHL1  H12B 3807   1.678   4.508   7.665  0.2339  1.5010 -1.5340
   52CHL1   C11 3808   1.571   4.568   7.493 -0.2059 -0.4347  0.3418
   52CHL1  H11A 3809   1.471   4.612   7.475  0.1180 -0.4101 -1.6025
   52CHL1  H11B 3810   1.629   4.663   7.488 -1.8414  0.5111 -2.0516
   52CHL1    C9 3811   1.601   4.467   7.380  0.7536  0.0464  0.4313
   52CHL1    H9 3812   1.703   4.425   7.388  1.2405  0.8110 -1.2544
   52CHL1   C10 3813   1.591   4.522   7.230  0.1578  0.0014 -0.4455
   52CHL1   C19 3814   1.452   4.590   7.198 -0.0811  0.2942  0.5476
   52CHL1  H19A 3815   1.431   4.677   7.263 -0.2095  1.5220 -1.0719
   52CHL1  H19B 3816   1.440   4.621   7.092 -0.7919  0.0173  0.5460
   52CHL1  H19C 3817   1.380   4.506   7.212 -0.7951  0.8267  0.1054
   52CHL1    C1 3818   1.702   4.628   7.222  0.1458 -0.5105 -1.0680
   52CHL1   H1A 3819   1.696   4.712   7.294  0.0273 -1.9199  0.6470
   52CHL1   H1B 3820   1.798   4.574   7.236  0.1393 -0.5969 -1.3386
   52CHL1    C2 3821   1.713   4.683   7.082 -0.5411  0.8717  1.0241
   52CHL1   H2A 3822   1.797   4.752   7.059 -0.0177  0.3909  1.4495
   52CHL1   H2B 3823   1.623   4.741   7.053 -0.7121  0.2734  0.3247
   52CHL1   C20 3824   1.407   4.372   7.903 -0.4688  0.0734  0.4288
   52CHL1   H20 3825   1.323   4.437   7.869 -1.3180 -2.1672 -2.1203
   52CHL1   C21 3826   1.524   4.445   7.979  0.0667  0.2809 -0.3147
   52CHL1  H21A 3827   1.602   4.369   8.004 -0.5530 -0.0356  0.7171
   52CHL1  H21B 3828   1.491   4.472   8.081  1.7602 -1.0024  0.6292
   52CHL1  H21C 3829   1.555   4.529   7.913 -0.1118 -0.1015 -0.8890
   52CHL1   C22 3830   1.357   4.258   8.002  0.0500 -0.0451  0.8249
   52CHL1  H22A 3831   1.337   4.167   7.941 -1.1332  1.1410 -0.6347
   52CHL1  H22B 3832   1.442   4.244   8.072  2.3866  0.4807 -1.7374
   52CHL1   C23 3833   1.225   4.302   8.073  0.4517  0.4430 -0.3748
   52CHL1  H23A 3834   1.243   4.410   8.095 -1.7227  0.6411  0.6599
   52CHL1  H23B 3835   1.153   4.284   7.991  0.6839 -0.7409 -0.3377
   52CHL1   C24 3836   1.211   4.225   8.208 -0.6411  0.3985  0.4337
   52CHL1  H24A 3837   1.211   4.116   8.187 -0.7990  0.1220  1.7755
   52CHL1  H24B 3838   1.299   4.245   8.272 -1.1226  0.3894  1.1121
   52CHL1   C25 3839   1.094   4.272   8.289 -0.1742 -0.5588  0.6378
   52CHL1   H25 3840   1.091   4.380   8.318 -1.7996 -0.4142  0.0330
   52CHL1   C26 3841   0.961   4.248   8.217 -1.0851  1.0157  0.5303
   52CHL1  H26A 3842   0.950   4.308   8.124 -0.3540  2.2683  1.2249
   52CHL1  H26B 3843   0.968   4.142   8.186 -0.0956  1.2535 -0.0770
   52CHL1  H26C 3844   0.872   4.266   8.282 -0.8361 -1.1168  1.5617
   52CHL1   C27 3845   1.100   4.196   8.424 -0.2285  0.6060  0.2152
   52CHL1  H27A 3846   1.024   4.229   8.499 -0.7539  1.0675 -0.5158
   52CHL1  H27B 3847   1.088   4.087   8.408 -2.6404  0.9207 -0.6056
   52CHL1  H27C 3848   1.198   4.217   8.472 -0.9042  1.5028  1.2572
   53CHL1    C3 3849   3.000   1.405   7.082 -0.4761 -0.0731  0.6712
   53CHL1    H3 3850   2.895   1.381   7.108 -0.7724 -0.1632 -0.5384
   53CHL1    O3 3851   2.998   1.450   6.944 -0.1034 -0.5430 -0.3330
   53CHL1   H3' 3852   3.090   1.460   6.919 -0.2825  0.7593 -0.5488
   53CHL1    C4 3853   3.036   1.529   7.168  0.0702  0.6392  0.4675
   53CHL1   H4A 3854   3.129   1.570   7.125  1.0985 -2.0470 -0.0611
   53CHL1   H4B 3855   2.960   1.610   7.156  0.5738  1.2598  1.3571
   53CHL1    C5 3856   3.054   1.505   7.318  0.0712  0.1590 -0.4111
   53CHL1    C6 3857   2.974   1.572   7.407 -0.2767 -0.0407  0.4900
   53CHL1    H6 3858   2.900   1.643   7.369 -0.5926 -0.0498  1.0688
   53CHL1    C7 3859   2.987   1.544   7.553  0.8270 -0.0826 -0.1703
   53CHL1   H7A 3860   3.008   1.636   7.612  1.4650 -0.8760  0.8804
   53CHL1   H7B 3861   2.896   1.504   7.603 -0.5206  1.2341 -1.4703
   53CHL1    C8 3862   3.104   1.439   7.590  0.2537 -0.0300 -0.3893
   53CHL1    H8 3863   3.198   1.497   7.601  0.4042 -0.2760 -0.3787
   53CHL1   C14 3864   3.072   1.381   7.726  0.7843 -0.1627  0.4453
   53CHL1   H14 3865   2.984   1.313   7.722  0.1087  0.4433  3.1184
   53CHL1   C15 3866   3.034   1.476   7.835 -0.2164 -0.1475 -0.4554
   53CHL1  H15A 3867   3.102   1.563   7.830  1.2348 -1.0657  1.7837
   53CHL1  H15B 3868   2.931   1.519   7.841  0.5776  1.5823  1.5514
   53CHL1   C16 3869   3.059   1.394   7.965 -0.3803 -0.3278  0.4868
   53CHL1  H16A 3870   3.116   1.440   8.048 -3.0820 -0.3655  2.4975
   53CHL1  H16B 3871   2.958   1.376   8.008 -0.3812  0.6908  0.9416
   53CHL1   C17 3872   3.116   1.260   7.920 -0.1125  0.6110  0.4229
   53CHL1   H17 3873   3.025   1.204   7.892 -2.0834  3.2327  1.2063
   53CHL1   C13 3874   3.181   1.296   7.789 -0.2522  0.0048 -0.6397
   53CHL1   C18 3875   3.314   1.368   7.811  0.7094 -0.0629  0.3291
   53CHL1  H18A 3876   3.364   1.381   7.712 -1.0126  1.6000 -0.3771
   53CHL1  H18B 3877   3.295   1.468   7.856 -2.0089  0.0094 -0.7950
   53CHL1  H18C 3878   3.379   1.307   7.878 -0.7967 -1.5471  0.4958
   53CHL1   C12 3879   3.208   1.185   7.687  0.2087  0.3589  0.2512
   53CHL1  H12A 3880   3.296   1.120   7.704 -0.1807 -0.2607 -0.0536
   53CHL1  H12B 3881   3.124   1.112   7.683  1.7567 -1.4805 -0.4922
   53CHL1   C11 3882   3.231   1.235   7.543 -0.9340  0.4545  0.7276
   53CHL1  H11A 3883   3.330   1.282   7.530  0.3435 -2.2781 -0.1026
   53CHL1  H11B 3884   3.248   1.147   7.477  0.8834  1.5978 -0.4227
   53CHL1    C9 3885   3.123   1.326   7.485 -0.6512  0.5651 -0.0632
   53CHL1    H9 3886   3.031   1.264   7.488 -0.6460  0.5768  2.6318
   53CHL1   C10 3887   3.149   1.382   7.342  0.4011  0.0829 -0.1071
   53CHL1   C19 3888   3.292   1.431   7.322  0.3141  0.5756  0.1897
   53CHL1  H19A 3889   3.305   1.481   7.224  0.3812  0.9112  0.3693
   53CHL1  H19B 3890   3.313   1.510   7.396  1.1356  1.1729 -0.6528
   53CHL1  H19C 3891   3.370   1.354   7.341 -0.5087  0.2493  2.4757
   53CHL1    C1 3892   3.120   1.257   7.245 -0.3497 -0.0402  0.1612
   53CHL1   H1A 3893   3.201   1.183   7.262  0.2114  0.4931 -0.1904
   53CHL1   H1B 3894   3.033   1.197   7.281  1.1228 -1.3538  1.6538
   53CHL1    C2 3895   3.099   1.293   7.096  0.3389 -0.6441  0.0567
   53CHL1   H2A 3896   3.070   1.204   7.035  1.4451 -0.5434 -0.6356
   53CHL1   H2B 3897   3.198   1.328   7.062  0.2550 -0.0692  0.3892
   53CHL1   C20 3898   3.189   1.180   8.036  0.3964  0.0771 -0.6139
   53CHL1   H20 3899   3.277   1.242   8.066  0.4135 -0.7108  1.0424
   53CHL1   C21 3900   3.236   1.042   7.997 -0.4018  0.0140 -0.1718
   53CHL1  H21A 3901   3.311   1.002   8.069 -1.6132  0.1449  1.1913
   53CHL1  H21B 3902   3.292   1.043   7.901 -0.3037  0.4523 -0.1109
   53CHL1  H21C 3903   3.155   0.966   7.998 -0.2768 -0.1532  2.2169
   53CHL1   C22 3904   3.100   1.171   8.166 -0.1709 -0.1468 -0.1929
   53CHL1  H22A 3905   3.053   1.271   8.178  0.0583 -0.2393  1.8482
   53CHL1  H22B 3906   3.019   1.096   8.157 -1.5531  1.1117  1.1601
   53CHL1   C23 3907   3.185   1.154   8.288 -0.3943  0.0714  0.2916
   53CHL1  H23A 3908   3.253   1.067   8.279  0.4647  0.7170  0.4830
   53CHL1  H23B 3909   3.254   1.240   8.278  0.3883 -0.6682 -0.8961
   53CHL1   C24 3910   3.105   1.154   8.419  0.2601  0.0897  0.3760
   53CHL1  H24A 3911   3.073   1.260   8.422 -1.0522 -0.1537 -2.1575
   53CHL1  H24B 3912   3.015   1.089   8.420  0.4030 -0.2612  4.2202
   53CHL1   C25 3913   3.185   1.117   8.541 -0.1859 -0.3513 -0.4651
   53CHL1   H25 3914   3.232   1.018   8.527  0.9089  0.0955 -0.1072
   53CHL1   C26 3915   3.301   1.222   8.574 -0.3907  0.5575 -0.1650
   53CHL1  H26A 3916   3.356   1.181   8.661  3.4073 -1.3840 -3.1609
   53CHL1  H26B 3917   3.368   1.234   8.486  1.7027  0.2611  1.3097
   53CHL1  H26C 3918   3.243   1.316   8.585  0.1112  0.9680 -0.9202
   53CHL1   C27 3919   3.092   1.117   8.668 -0.0250 -0.0050 -0.2751
   53CHL1  H27A 3920   3.028   1.208   8.664  0.0058  0.0428  0.2481
   53CHL1  H27B 3921   3.026   1.028   8.668 -1.2720  0.8919 -1.0581
   53CHL1  H27C 3922   3.142   1.121   8.768 -0.8180  2.9231  0.1221
   54CHL1    C3 3923   1.625   2.466   7.008 -0.1601 -0.4068 -0.2421
   54CHL1    H3 3924   1.679   2.560   7.031 -0.7370 -0.7654  3.1070
   54CHL1    O3 3925   1.650   2.440   6.871 -0.1922 -0.2465 -0.6203
   54CHL1   H3' 3926   1.605   2.510   6.823  0.7516  1.2290  0.5400
   54CHL1    C4 3927   1.688   2.357   7.098 -0.1360 -0.0596  0.5304
   54CHL1   H4A 3928   1.649   2.256   7.076  0.4141 -0.0860 -0.3675
   54CHL1   H4B 3929   1.797   2.348   7.081  0.2300  3.2797  0.4038
   54CHL1    C5 3930   1.667   2.378   7.245  0.6267  0.8521  0.0668
   54CHL1    C6 3931   1.771   2.382   7.333 -0.1302 -0.6145  0.0874
   54CHL1    H6 3932   1.876   2.373   7.304  0.5710 -0.4652  2.4462
   54CHL1    C7 3933   1.754   2.396   7.476 -0.0978  0.2021 -0.7309
   54CHL1   H7A 3934   1.823   2.331   7.536  0.4903  0.4266 -1.1510
   54CHL1   H7B 3935   1.796   2.494   7.507  0.3201  0.1010 -0.9612
   54CHL1    C8 3936   1.612   2.384   7.530  0.2411 -0.1165 -0.1675
   54CHL1    H8 3937   1.584   2.277   7.530 -0.0204 -0.0667  1.0616
   54CHL1   C14 3938   1.596   2.435   7.672 -0.1093 -0.5359 -0.5898
   54CHL1   H14 3939   1.615   2.544   7.661 -0.0120 -0.6389 -1.5736
   54CHL1   C15 3940   1.689   2.378   7.786 -0.3936  0.9503 -0.2294
   54CHL1  H15A 3941   1.692   2.267   7.776 -1.2499  0.8412  0.5128
   54CHL1  H15B 3942   1.790   2.424   7.788 -0.6195  1.4609  1.0991
   54CHL1   C16 3943   1.609   2.410   7.916  0.5304 -0.3953 -0.5398
   54CHL1  H16A 3944   1.586   2.309   7.956  0.6798 -0.6720 -1.1412
   54CHL1  H16B 3945   1.651   2.478   7.993 -1.6721  3.0007 -2.0571
   54CHL1   C17 3946   1.473   2.472   7.870  0.2547 -0.0214 -0.0099
   54CHL1   H17 3947   1.498   2.579   7.857 -0.3810  0.1904  0.4628
   54CHL1   C13 3948   1.451   2.423   7.720 -0.2960  0.3285 -0.9173
   54CHL1   C18 3949   1.406   2.278   7.728  0.0447 -0.6399 -0.4598
   54CHL1  H18A 3950   1.401   2.221   7.633  0.3380  1.0478 -1.5245
   54CHL1  H18B 3951   1.477   2.212   7.783  0.2534 -1.4920 -1.7090
   54CHL1  H18C 3952   1.312   2.268   7.787  0.6304 -1.3700  0.3713
   54CHL1   C12 3953   1.348   2.495   7.630 -0.2203 -0.4876 -0.3583
   54CHL1  H12A 3954   1.243   2.500   7.666  0.3494 -0.7532  1.4373
   54CHL1  H12B 3955   1.375   2.602   7.641 -0.7194 -0.5964  2.6840
   54CHL1   C11 3956   1.365   2.453   7.490 -0.2785  0.5032  0.2935
   54CHL1  H11A 3957   1.322   2.351   7.484 -1.7935  1.1847 -2.5173
   54CHL1  H11B 3958   1.308   2.522   7.423  0.3922 -0.3528 -1.2035
   54CHL1    C9 3959   1.512   2.458   7.440  1.2433 -0.1179  0.1727
   54CHL1    H9 3960   1.531   2.567   7.438  0.2465  0.0599 -0.8728
   54CHL1   C10 3961   1.521   2.401   7.290 -0.0085  0.2015  0.6264
   54CHL1   C19 3962   1.441   2.270   7.285 -0.4450  0.4165  0.4928
   54CHL1  H19A 3963   1.333   2.288   7.305 -0.9214 -0.8928 -0.7314
   54CHL1  H19B 3964   1.453   2.236   7.179  2.1795  0.9148  0.5711
   54CHL1  H19C 3965   1.480   2.186   7.346 -2.2325 -3.4440 -3.1306
   54CHL1    C1 3966   1.454   2.505   7.191 -0.6090 -0.5457 -0.3496
   54CHL1   H1A 3967   1.345   2.525   7.198 -0.8830 -1.9490 -0.2541
   54CHL1   H1B 3968   1.488   2.605   7.225  0.1329 -1.3793  1.4910
   54CHL1    C2 3969   1.475   2.484   7.042  0.4636  0.5219 -0.2917
   54CHL1   H2A 3970   1.435   2.563   6.976 -0.8332 -0.3576 -0.6040
   54CHL1   H2B 3971   1.424   2.392   7.005  0.0822  1.1982 -1.4863
   54CHL1   C20 3972   1.359   2.463   7.981 -0.6129  0.0696  0.2301
   54CHL1   H20 3973   1.322   2.358   7.976  1.7330 -0.7930 -0.4417
   54CHL1   C21 3974   1.248   2.564   7.939  0.0569  0.3100 -0.2808
   54CHL1  H21A 3975   1.293   2.660   7.908  2.8774 -0.7127  0.3188
   54CHL1  H21B 3976   1.183   2.591   8.025 -0.6946  1.3144 -1.1499
   54CHL1  H21C 3977   1.183   2.513   7.865  1.0103 -1.0793 -0.2123
   54CHL1   C22 3978   1.393   2.486   8.129 -0.5531 -0.3116  0.3581
   54CHL1  H22A 3979   1.307   2.467   8.196  0.1428 -0.2027  1.2988
   54CHL1  H22B 3980   1.469   2.415   8.167  2.5062  2.4727 -0.0618
   54CHL1   C23 3981   1.449   2.623   8.173  1.0496  0.3868  0.0486
   54CHL1  H23A 3982   1.547   2.642   8.124  1.5541 -1.4497  0.2833
   54CHL1  H23B 3983   1.371   2.699   8.151 -0.9327 -1.4809  0.3881
   54CHL1   C24 3984   1.480   2.616   8.323 -0.3858  0.1314 -0.4187
   54CHL1  H24A 3985   1.402   2.566   8.385  1.2735  0.5761  2.1863
   54CHL1  H24B 3986   1.575   2.562   8.342 -0.3983  0.9615  2.5074
   54CHL1   C25 3987   1.489   2.745   8.401  0.3900 -0.9182 -0.3281
   54CHL1   H25 3988   1.546   2.812   8.333  0.0724  3.5740  3.2733
   54CHL1   C26 3989   1.357   2.811   8.422  0.2441 -0.0756 -0.9769
   54CHL1  H26A 3990   1.389   2.909   8.463  0.4312 -0.4152 -0.2944
   54CHL1  H26B 3991   1.312   2.833   8.323  0.9000  1.5017 -0.9539
   54CHL1  H26C 3992   1.290   2.757   8.493 -1.2566  1.6713 -0.9714
   54CHL1   C27 3993   1.584   2.731   8.524 -0.1511  0.0540  0.1147
   54CHL1  H27A 3994   1.525   2.690   8.610 -1.0512  1.3307  0.1337
   54CHL1  H27B 3995   1.666   2.657   8.509  1.2972  0.9980  2.6622
   54CHL1  H27C 3996   1.626   2.829   8.557  0.0580  0.7217 -2.0205
   55CHL1    C3 3997   2.559   5.226   6.910 -0.0528  0.1509  0.3833
   55CHL1    H3 3998   2.667   5.223   6.934 -0.5286 -1.5743  2.7765
   55CHL1    O3 3999   2.545   5.271   6.774 -0.1499 -0.0395  0.0176
   55CHL1   H3' 4000   2.580   5.360   6.774 -1.9273  0.7047  0.5731
   55CHL1    C4 4001   2.512   5.080   6.917  0.5532 -0.5910 -0.0343
   55CHL1   H4A 4002   2.407   5.096   6.886  0.0455  1.5941  2.4549
   55CHL1   H4B 4003   2.575   5.018   6.850 -1.4515 -0.7282 -1.9117
   55CHL1    C5 4004   2.531   5.032   7.063  0.1199 -0.0340  0.3739
   55CHL1    C6 4005   2.598   4.918   7.094 -0.0371 -0.2861 -0.0139
   55CHL1    H6 4006   2.650   4.862   7.014  0.2337 -0.6695  0.4267
   55CHL1    C7 4007   2.605   4.866   7.234 -0.2273 -0.2977 -0.4508
   55CHL1   H7A 4008   2.572   4.760   7.231 -3.3675  0.5360  0.6492
   55CHL1   H7B 4009   2.708   4.859   7.276 -0.4486 -1.6937 -0.0793
   55CHL1    C8 4010   2.520   4.939   7.340 -0.9939 -0.1283  0.1944
   55CHL1    H8 4011   2.414   4.914   7.321 -0.5986 -0.8816 -1.2175
   55CHL1   C14 4012   2.559   4.900   7.475 -0.7060  0.2837  0.2156
   55CHL1   H14 4013   2.663   4.936   7.491 -0.5186  0.0813 -0.5430
   55CHL1   C15 4014   2.572   4.751   7.502 -0.2414 -0.1781 -0.9357
   55CHL1  H15A 4015   2.480   4.710   7.456 -1.5438  0.4331  0.9592
   55CHL1  H15B 4016   2.664   4.704   7.461 -1.0620 -2.5347 -0.2347
   55CHL1   C16 4017   2.555   4.743   7.656  0.1661  0.2899 -0.4724
   55CHL1  H16A 4018   2.462   4.687   7.680 -0.1989 -0.2645 -2.9252
   55CHL1  H16B 4019   2.646   4.692   7.695 -0.7354  0.0686  1.4495
   55CHL1   C17 4020   2.538   4.888   7.704 -0.1716  0.7484  0.7887
   55CHL1   H17 4021   2.642   4.924   7.723  0.3432  0.7218 -1.6779
   55CHL1   C13 4022   2.483   4.969   7.592 -0.1846  0.0392 -0.0816
   55CHL1   C18 4023   2.338   4.936   7.568 -0.2169 -0.0763 -0.1805
   55CHL1  H18A 4024   2.268   4.963   7.650 -0.8962 -1.3796 -0.3052
   55CHL1  H18B 4025   2.289   4.998   7.489  0.1791  0.5968  0.0983
   55CHL1  H18C 4026   2.327   4.831   7.535 -1.2657 -0.5516  1.5640
   55CHL1   C12 4027   2.515   5.121   7.581 -0.8584 -0.3219  0.5090
   55CHL1  H12A 4028   2.461   5.198   7.640  0.1103 -0.0400  1.0490
   55CHL1  H12B 4029   2.623   5.141   7.599 -0.4588  0.2484 -2.1145
   55CHL1   C11 4030   2.473   5.172   7.439 -0.4392 -0.4325 -0.0228
   55CHL1  H11A 4031   2.363   5.164   7.440 -0.4362 -0.6001 -0.9207
   55CHL1  H11B 4032   2.491   5.281   7.429 -3.4882  0.5352  3.0568
   55CHL1    C9 4033   2.537   5.091   7.314  0.3350 -0.2112 -0.5743
   55CHL1    H9 4034   2.646   5.109   7.300  0.4214 -0.7387 -0.5943
   55CHL1   C10 4035   2.479   5.126   7.177  0.3578 -0.3599  1.0453
   55CHL1   C19 4036   2.326   5.122   7.178  0.8111  0.7296  0.4194
   55CHL1  H19A 4037   2.277   5.196   7.245 -2.2680 -0.9807  0.2706
   55CHL1  H19B 4038   2.287   5.153   7.078 -0.1459  0.0525  0.5696
   55CHL1  H19C 4039   2.274   5.025   7.196 -3.2656  2.7007  0.3547
   55CHL1    C1 4040   2.519   5.279   7.152  0.4658 -0.8686  0.3391
   55CHL1   H1A 4041   2.479   5.357   7.221  1.4975 -0.1912  0.1918
   55CHL1   H1B 4042   2.626   5.295   7.175  0.2096  1.8293 -0.0217
   55CHL1    C2 4043   2.491   5.326   7.005 -0.4127  0.2281  0.1470
   55CHL1   H2A 4044   2.534   5.424   6.978 -0.9915  0.2468 -0.7437
   55CHL1   H2B 4045   2.383   5.334   6.980 -1.1860  1.9187  3.4267
   55CHL1   C20 4046   2.460   4.893   7.843 -0.1282 -1.3382  0.2586
   55CHL1   H20 4047   2.355   4.880   7.809 -0.2875  0.7205 -0.1639
   55CHL1   C21 4048   2.476   5.040   7.893 -0.3579 -0.0889  0.1149
   55CHL1  H21A 4049   2.578   5.086   7.899  0.6439 -2.2043  0.0836
   55CHL1  H21B 4050   2.433   5.058   7.994  0.5952  0.9546  0.3569
   55CHL1  H21C 4051   2.411   5.100   7.826  0.7743  1.9662  0.7723
   55CHL1   C22 4052   2.491   4.784   7.950 -0.1638 -0.2820  0.2730
   55CHL1  H22A 4053   2.452   4.687   7.913  0.8249 -1.1837  1.5054
   55CHL1  H22B 4054   2.601   4.779   7.965 -0.2258  0.1655  0.9229
   55CHL1   C23 4055   2.415   4.805   8.078  0.1545  0.1508  0.0988
   55CHL1  H23A 4056   2.442   4.905   8.119  2.1273  0.0036 -0.7330
   55CHL1  H23B 4057   2.305   4.804   8.062 -0.3144  1.7685  2.6218
   55CHL1   C24 4058   2.451   4.698   8.190  0.1483 -0.6418 -0.0929
   55CHL1  H24A 4059   2.427   4.597   8.149 -1.4461 -0.1891 -0.3407
   55CHL1  H24B 4060   2.559   4.711   8.213 -0.1026 -0.1474  0.8582
   55CHL1   C25 4061   2.371   4.716   8.320  0.0046  0.9007  0.4917
   55CHL1   H25 4062   2.409   4.632   8.382 -0.2967 -0.4614 -1.0922
   55CHL1   C26 4063   2.414   4.850   8.393  0.1234 -0.4388  0.2975
   55CHL1  H26A 4064   2.524   4.847   8.407  0.4155  0.3183 -1.5453
   55CHL1  H26B 4065   2.391   4.936   8.326  0.3839  0.5911  1.4951
   55CHL1  H26C 4066   2.360   4.851   8.490 -0.6558 -0.5299 -0.1189
   55CHL1   C27 4067   2.222   4.707   8.295  0.5557 -0.2152 -0.1079
   55CHL1  H27A 4068   2.179   4.788   8.232  0.0658  0.5592  1.1857
   55CHL1  H27B 4069   2.198   4.616   8.235 -4.2179  0.1604  0.8414
   55CHL1  H27C 4070   2.168   4.700   8.392 -1.4369 -0.7790 -1.1900
   56CHL1    C3 4071   1.031   2.103   6.929  0.0355 -0.2402  1.0716
   56CHL1    H3 4072   0.935   2.141   6.888  0.0950  0.9936  2.0018
   56CHL1    O3 4073   1.107   2.051   6.823 -0.0573  0.2344 -0.4090
   56CHL1   H3' 4074   1.179   2.001   6.863  0.9960  1.0652 -1.2203
   56CHL1    C4 4075   1.102   2.216   6.998 -0.9480  0.2507 -0.3122
   56CHL1   H4A 4076   1.198   2.171   7.032 -1.0053  1.7751  2.0900
   56CHL1   H4B 4077   1.120   2.300   6.928 -0.2117  0.0657 -0.3579
   56CHL1    C5 4078   1.044   2.263   7.126  0.0565 -0.2531  0.0792
   56CHL1    C6 4079   1.017   2.392   7.149  0.3590  0.0314 -0.3522
   56CHL1    H6 4080   1.042   2.473   7.079  1.4024  0.0237  0.0054
   56CHL1    C7 4081   0.963   2.439   7.282 -0.1933  0.0813  0.2385
   56CHL1   H7A 4082   0.999   2.541   7.308  0.4423 -0.1391  0.2261
   56CHL1   H7B 4083   0.852   2.452   7.279 -0.3572 -0.8504  1.4017
   56CHL1    C8 4084   0.977   2.342   7.400 -1.0099 -0.1593  0.1212
   56CHL1    H8 4085   1.082   2.337   7.436 -1.5556 -0.9543  1.6755
   56CHL1   C14 4086   0.890   2.385   7.516  0.5794 -0.8274 -0.4542
   56CHL1   H14 4087   0.783   2.372   7.490  0.1426 -1.8484  1.6097
   56CHL1   C15 4088   0.912   2.531   7.568  0.3907  0.1855  0.0497
   56CHL1  H15A 4089   1.019   2.557   7.553 -0.0317  1.9187 -0.1900
   56CHL1  H15B 4090   0.856   2.606   7.508 -1.8205 -2.0609 -0.8502
   56CHL1   C16 4091   0.858   2.526   7.713 -0.3732  0.8260  0.0824
   56CHL1  H16A 4092   0.937   2.566   7.780 -1.1183  0.5564  1.1444
   56CHL1  H16B 4093   0.763   2.582   7.720 -1.8139 -1.5534  0.6979
   56CHL1   C17 4094   0.822   2.378   7.747 -0.1445 -0.5263  0.4732
   56CHL1   H17 4095   0.717   2.354   7.722  0.1966 -0.4929 -1.1132
   56CHL1   C13 4096   0.897   2.296   7.644 -0.4380  0.0447 -0.4186
   56CHL1   C18 4097   1.042   2.283   7.693 -0.3657 -0.0066  1.0294
   56CHL1  H18A 4098   1.105   2.240   7.612 -0.3863  3.5011 -1.0450
   56CHL1  H18B 4099   1.089   2.380   7.718  0.2444  0.0750 -0.3138
   56CHL1  H18C 4100   1.049   2.218   7.783  2.0032  0.7561  1.4554
   56CHL1   C12 4101   0.837   2.167   7.593  0.4736 -0.2418 -0.1044
   56CHL1  H12A 4102   0.834   2.084   7.667 -2.1037  2.1620  2.7264
   56CHL1  H12B 4103   0.730   2.187   7.573  0.5980 -0.8252 -1.4338
   56CHL1   C11 4104   0.907   2.103   7.468 -0.3933  0.3592  0.1020
   56CHL1  H11A 4105   1.010   2.080   7.505 -0.5088  0.0672  0.2476
   56CHL1  H11B 4106   0.865   2.003   7.444  0.8804 -1.2666  3.8615
   56CHL1    C9 4107   0.937   2.204   7.348  0.4933 -0.2217  0.1344
   56CHL1    H9 4108   0.832   2.223   7.316 -0.0093 -1.5707  0.9067
   56CHL1   C10 4109   1.010   2.150   7.227 -1.2496  0.8245  0.2323
   56CHL1   C19 4110   1.137   2.074   7.281 -0.2705 -1.2035 -0.7134
   56CHL1  H19A 4111   1.194   2.129   7.359  1.6785 -3.9217 -0.0814
   56CHL1  H19B 4112   1.115   1.979   7.334 -0.7888 -0.7859 -0.1649
   56CHL1  H19C 4113   1.206   2.040   7.201  1.8981  0.2603  0.4569
   56CHL1    C1 4114   0.922   2.045   7.155  0.4486 -0.0532 -0.3925
   56CHL1   H1A 4115   0.900   1.967   7.230  0.7225  0.0587 -0.1978
   56CHL1   H1B 4116   0.817   2.076   7.133 -0.4272 -2.1610  0.5605
   56CHL1    C2 4117   0.989   1.992   7.022  0.3136 -0.0328 -0.4504
   56CHL1   H2A 4118   0.917   1.924   6.971 -2.1987  2.2799 -0.2280
   56CHL1   H2B 4119   1.072   1.931   7.063  0.3295  1.2949  1.6462
   56CHL1   C20 4120   0.839   2.335   7.896  0.1466  0.2625  0.7485
   56CHL1   H20 4121   0.948   2.350   7.912  0.2847 -1.4255  1.5484
   56CHL1   C21 4122   0.789   2.192   7.908 -0.7947  0.0972 -0.4721
   56CHL1  H21A 4123   0.876   2.130   7.878 -0.9857 -1.6236  2.1253
   56CHL1  H21B 4124   0.692   2.183   7.855 -2.5602  0.3103  2.4744
   56CHL1  H21C 4125   0.767   2.145   8.007 -1.6349 -0.5570 -0.9515
   56CHL1   C22 4126   0.774   2.422   7.993  0.5651 -0.3992  0.0217
   56CHL1  H22A 4127   0.711   2.498   7.941  1.3666 -0.5646 -1.2244
   56CHL1  H22B 4128   0.710   2.360   8.061 -0.4367 -0.8839 -1.3051
   56CHL1   C23 4129   0.866   2.500   8.086 -0.5350  0.3465  0.6602
   56CHL1  H23A 4130   0.935   2.428   8.135  0.7031  1.8826  1.2569
   56CHL1  H23B 4131   0.929   2.570   8.027  2.1772 -1.1886  1.5568
   56CHL1   C24 4132   0.784   2.572   8.202 -0.5315  1.2065 -0.0606
   56CHL1  H24A 4133   0.723   2.648   8.148 -0.6307  0.9592 -0.3015
   56CHL1  H24B 4134   0.722   2.494   8.250  1.9552  0.3110  1.9057
   56CHL1   C25 4135   0.872   2.644   8.302  0.1690 -0.0098  0.0957
   56CHL1   H25 4136   0.963   2.681   8.250 -0.2228  0.6885 -0.1030
   56CHL1   C26 4137   0.811   2.770   8.352 -0.8121  0.5854 -0.0086
   56CHL1  H26A 4138   0.776   2.833   8.267 -0.0566  2.4107  0.9511
   56CHL1  H26B 4139   0.895   2.820   8.405  0.4303 -1.1972 -0.2010
   56CHL1  H26C 4140   0.723   2.740   8.412  0.6513  0.0150  1.9583
   56CHL1   C27 4141   0.924   2.551   8.419  0.1360 -0.4215 -0.5864
   56CHL1  H27A 4142   0.977   2.617   8.491 -0.0186 -1.0362  0.1122
   56CHL1  H27B 4143   0.847   2.493   8.474  0.7994 -1.2472 -0.5037
   56CHL1  H27C 4144   1.004   2.482   8.383 -0.9602 -1.9887 -0.1068
   57SAPC     N 4145   2.668   6.509  10.898 -0.7605 -0.7673  0.0499
   57SAPC   C12 4146   2.525   6.468  10.848 -0.1151  0.4847  0.2113
   57SAPC  H12A 4147   2.480   6.554  10.800  0.2763  0.9231  0.6203
   57SAPC  H12B 4148   2.470   6.454  10.940  0.8443 -0.9079  0.6099
   57SAPC   C13 4149   2.714   6.407  10.993 -0.2561  0.4958  0.1522
   57SAPC  H13A 4150   2.730   6.314  10.939  1.6796  1.0426 -0.3131
   57SAPC  H13B 4151   2.804   6.439  11.044 -0.5270  0.0737  0.9016
   57SAPC  H13C 4152   2.646   6.393  11.076 -0.0543  0.7147  0.3559
   57SAPC   C14 4153   2.770   6.531  10.780 -1.0473  0.4045  0.1981
   57SAPC  H14A 4154   2.775   6.445  10.714 -0.1177 -0.9683  1.9636
   57SAPC  H14B 4155   2.736   6.616  10.724 -0.1177 -0.2582 -1.4549
   57SAPC  H14C 4156   2.871   6.546  10.815 -0.2839  0.5899 -1.9600
   57SAPC   C15 4157   2.654   6.640  10.964 -0.2712 -0.6529 -0.4099
   57SAPC  H15A 4158   2.594   6.654  11.052  0.8913  0.1814  0.2752
   57SAPC  H15B 4159   2.756   6.668  10.988 -0.4307 -0.5423  0.1388
   57SAPC  H15C 4160   2.625   6.716  10.893  0.6426  0.5359  0.4474
   57SAPC   C11 4161   2.513   6.339  10.763 -0.5427  0.1561  0.8674
   57SAPC  H11A 4162   2.575   6.344  10.671 -1.1926 -0.1818  0.4026
   57SAPC  H11B 4163   2.410   6.334  10.721 -0.9064  1.2282  1.5962
   57SAPC     P 4164   2.414   6.190  10.952  0.6945 -0.1874  0.1552
   57SAPC   O13 4165   2.428   6.065  11.023  0.0194  0.3245  0.5330
   57SAPC   O14 4166   2.385   6.309  11.034  0.1932  0.1043  0.2777
   57SAPC   O12 4167   2.532   6.222  10.846  0.0530  0.1369  0.4334
   57SAPC   O11 4168   2.289   6.182  10.849 -0.1816 -0.3711 -0.1705
   57SAPC    C1 4169   2.292   6.057  10.762 -0.0169 -0.5040 -0.8134
   57SAPC    HA 4170   2.395   6.019  10.744 -0.1115 -0.9896 -0.3807
   57SAPC    HB 4171   2.235   5.978  10.815 -1.0936 -0.6863 -2.2029
   57SAPC    C2 4172   2.213   6.065  10.626 -0.0369  0.0556 -0.6286
   57SAPC    HS 4173   2.199   5.966  10.576 -1.6322  0.6876 -1.5361
   57SAPC   O21 4174   2.283   6.156  10.536 -0.6002 -0.4372  0.2328
   57SAPC   C21 4175   2.395   6.095  10.477 -0.0425 -1.3903  0.2180
   57SAPC   O22 4176   2.430   5.981  10.502  0.1467  0.0859  0.3220
   57SAPC   C22 4177   2.462   6.195  10.381 -0.0689  0.5355  0.0151
   57SAPC   H2R 4178   2.404   6.289  10.373 -1.3200 -0.1938  0.2368
   57SAPC   H2S 4179   2.565   6.208  10.422 -0.0602 -0.1414  0.2204
   57SAPC    C3 4180   2.063   6.117  10.655  0.1672 -0.3348  0.8020
   57SAPC    HX 4181   2.077   6.214  10.706 -0.4395 -0.7236  1.7500
   57SAPC    HY 4182   2.009   6.047  10.724  0.7165  0.7108  2.3347
   57SAPC   O31 4183   1.999   6.134  10.525  0.5537 -0.2962 -0.5272
   57SAPC   C31 4184   1.866   6.168  10.541 -0.6235  0.3269  0.7162
   57SAPC   O32 4185   1.810   6.192  10.647 -0.1081 -0.2590 -0.1896
   57SAPC   C32 4186   1.811   6.195  10.397 -0.1738 -0.3353  0.9044
   57SAPC   H2X 4187   1.829   6.104  10.336  0.1572  0.1498  0.2595
   57SAPC   H2Y 4188   1.881   6.270  10.353  1.0012 -1.5102  0.7063
   57SAPC   C23 4189   2.472   6.114  10.237 -0.0598 -0.8057 -0.2166
   57SAPC   H3R 4190   2.370   6.112  10.193  0.2934  1.5066 -1.2800
   57SAPC   H3S 4191   2.522   6.018  10.259  1.7717 -0.1029 -1.1300
   57SAPC   C24 4192   2.566   6.206  10.143  0.4537 -0.6335  0.4688
   57SAPC   H4R 4193   2.651   6.248  10.201 -0.0325  0.7297  0.2387
   57SAPC   H4S 4194   2.507   6.299  10.130 -2.5349 -2.3682  0.4939
   57SAPC   C25 4195   2.607   6.151  10.012 -0.6583  0.2652  0.4944
   57SAPC   H5R 4196   2.538   6.171   9.929  0.1878  2.8800  0.3271
   57SAPC   C26 4197   2.724   6.089   9.987 -0.2318  0.1587 -0.3063
   57SAPC   H6R 4198   2.738   6.031   9.895 -0.7548 -0.0445 -0.2605
   57SAPC   C27 4199   2.835   6.071  10.082  0.9962  0.0192  0.1959
   57SAPC   H7R 4200   2.853   6.165  10.138  0.3917  0.1344  0.1995
   57SAPC   H7S 4201   2.928   6.064  10.022  0.2435  0.2020 -1.0283
   57SAPC   C28 4202   2.821   5.945  10.166 -0.8842  0.5024  0.1882
   57SAPC   H8R 4203   2.826   5.852  10.107  0.7590 -0.0012  1.0741
   57SAPC   C29 4204   2.820   5.940  10.298  0.3942  0.3442  0.1115
   57SAPC   H9R 4205   2.799   5.842  10.344  0.0902 -0.7978 -2.2929
   57SAPC  C210 4206   2.827   6.056  10.398  0.9601  0.1744 -0.4378
   57SAPC  H10R 4207   2.759   6.041  10.484 -0.2707  0.1433 -1.3902
   57SAPC  H10S 4208   2.777   6.146  10.356  2.7693  0.7244 -1.5512
   57SAPC  C211 4209   2.967   6.097  10.439  0.3032 -0.1457  0.3315
   57SAPC  H11R 4210   3.023   6.021  10.495  0.3540  0.4372  1.0968
   57SAPC  C212 4211   3.029   6.219  10.432  0.8916  0.3029 -0.1046
   57SAPC  H12R 4212   3.138   6.227  10.445  0.9580 -1.4012  0.7063
   57SAPC  C213 4213   2.973   6.350  10.375 -0.6478  0.0472 -0.7996
   57SAPC  H13R 4214   2.955   6.345  10.265  1.3342  0.8625 -1.2036
   57SAPC  H13S 4215   3.051   6.428  10.390 -0.8669  0.3790 -1.3396
   57SAPC  C214 4216   2.845   6.394  10.437 -0.1373  0.0515 -0.0701
   57SAPC  H14R 4217   2.804   6.348  10.529 -1.7862  0.2602 -0.6589
   57SAPC  C215 4218   2.768   6.497  10.393  0.5420  0.7151 -0.6869
   57SAPC  H15R 4219   2.677   6.529  10.446 -0.0875 -2.0933  0.1456
   57SAPC  C216 4220   2.793   6.589  10.273 -0.7725 -0.1799  0.6135
   57SAPC  H16R 4221   2.901   6.600  10.246 -0.8844 -0.0170  0.2202
   57SAPC  H16S 4222   2.763   6.690  10.308  3.7742  1.8771 -0.6878
   57SAPC  C217 4223   2.723   6.558  10.138  0.2416  0.4773 -0.2225
   57SAPC  H17R 4224   2.618   6.529  10.158  0.8243 -1.0439  0.7533
   57SAPC  H17S 4225   2.780   6.472  10.098  1.8818  2.4331 -2.3637
   57SAPC  C218 4226   2.723   6.675  10.033 -0.0585 -0.1147  0.3103
   57SAPC  H18R 4227   2.828   6.711  10.038 -0.1440  0.1687  0.0892
   57SAPC  H18S 4228   2.662   6.760  10.069  0.2612 -0.4065  1.5821
   57SAPC  C219 4229   2.676   6.640   9.897 -0.0162  0.1552  0.3905
   57SAPC  H19R 4230   2.571   6.604   9.904 -0.0733  0.1889 -0.1949
   57SAPC  H19S 4231   2.736   6.556   9.856  0.1387  0.4158  0.0692
   57SAPC  C220 4232   2.667   6.761   9.794 -0.1509  0.5183 -0.2429
   57SAPC  H20R 4233   2.770   6.788   9.764 -0.1728  1.1078  0.2019
   57SAPC  H20S 4234   2.604   6.840   9.839  0.1217  1.1643 -0.9570
   57SAPC  H20T 4235   2.617   6.723   9.702 -0.1568  0.1354 -0.0802
   57SAPC   C33 4236   1.653   6.231  10.387 -0.1317  0.5288 -0.4329
   57SAPC   H3X 4237   1.631   6.311  10.461  0.5450  1.4704 -1.2192
   57SAPC   H3Y 4238   1.592   6.144  10.418 -2.2218  1.4235 -1.8360
   57SAPC   C34 4239   1.612   6.279  10.247 -0.3362 -0.0152  0.3078
   57SAPC   H4X 4240   1.501   6.294  10.243 -0.2504  0.2579 -1.8571
   57SAPC   H4Y 4241   1.649   6.204  10.175 -1.0823 -0.5637  0.4801
   57SAPC   C35 4242   1.659   6.419  10.206 -0.4444 -0.5585  0.1117
   57SAPC   H5X 4243   1.762   6.410  10.164 -0.8600 -0.0306 -1.0893
   57SAPC   H5Y 4244   1.669   6.501  10.280  2.8343 -0.0010 -0.8048
   57SAPC   C36 4245   1.573   6.479  10.085  0.3756  0.1651 -0.0373
   57SAPC   H6X 4246   1.599   6.587  10.075 -0.4696  0.3360 -0.5132
   57SAPC   H6Y 4247   1.464   6.479  10.106 -0.0700 -0.4576 -2.1710
   57SAPC   C37 4248   1.612   6.400   9.960  0.0366 -0.8580  0.3821
   57SAPC   H7X 4249   1.597   6.291   9.975  0.5578 -1.2788 -1.7532
   57SAPC   H7Y 4250   1.718   6.418   9.935  0.3819 -0.4303  2.0430
   57SAPC   C38 4251   1.524   6.468   9.844 -0.1330  0.5131 -0.0099
   57SAPC   H8X 4252   1.557   6.574   9.847  0.8666  0.1836  1.7861
   57SAPC   H8Y 4253   1.417   6.459   9.874  0.2368 -2.5091  0.7000
   57SAPC   C39 4254   1.547   6.435   9.703 -0.3382  0.1880 -0.8078
   57SAPC   H9X 4255   1.485   6.348   9.673 -0.8690  1.1054 -2.5108
   57SAPC   H9Y 4256   1.656   6.418   9.692  0.2415  0.8049  2.7366
   57SAPC  C310 4257   1.491   6.551   9.616 -0.7387  0.0331  0.4076
   57SAPC  H10X 4258   1.574   6.622   9.594  0.5568 -2.0879 -2.1228
   57SAPC  H10Y 4259   1.399   6.599   9.655  0.2049  2.2346  0.0716
   57SAPC  C311 4260   1.447   6.496   9.483  0.3317  0.2949  0.3360
   57SAPC  H11X 4261   1.359   6.430   9.495 -0.5467  1.4975  0.6906
   57SAPC  H11Y 4262   1.531   6.436   9.440 -0.0078  0.4927 -0.6349
   57SAPC  C312 4263   1.420   6.602   9.375  0.2068  0.4030  0.6256
   57SAPC  H12X 4264   1.508   6.669   9.362  0.0031  0.0476 -4.6300
   57SAPC  H12Y 4265   1.328   6.656   9.406 -0.2072  0.3327 -0.4546
   57SAPC  C313 4266   1.414   6.522   9.240 -0.1598  0.1599 -0.7148
   57SAPC  H13X 4267   1.352   6.430   9.241  0.6048 -0.3649 -0.3969
   57SAPC  H13Y 4268   1.521   6.496   9.223 -0.1416  0.3445 -0.8849
   57SAPC  C314 4269   1.372   6.606   9.125 -0.1238 -0.0312 -0.1360
   57SAPC  H14X 4270   1.452   6.669   9.079 -0.9514  1.0864 -0.0813
   57SAPC  H14Y 4271   1.292   6.676   9.158  0.7885  0.5423  0.9280
   57SAPC  C315 4272   1.328   6.529   8.999 -0.6168  0.4561 -0.0737
   57SAPC  H15X 4273   1.260   6.587   8.933 -0.2202  1.6682  0.5523
   57SAPC  H15Y 4274   1.272   6.445   9.046 -0.4168  0.0878 -0.4906
   57SAPC  C316 4275   1.445   6.474   8.914  0.0088 -0.5182 -0.5986
   57SAPC  H16X 4276   1.495   6.395   8.974 -1.6093 -0.9443  0.2519
   57SAPC  H16Y 4277   1.516   6.553   8.879  2.1338 -3.2395 -2.8877
   57SAPC  C317 4278   1.391   6.413   8.794  0.1409  0.3070  0.5545
   57SAPC  H17X 4279   1.347   6.499   8.738  3.0243  1.1385 -0.5892
   57SAPC  H17Y 4280   1.312   6.343   8.830  0.7283 -1.0616 -0.6742
   57SAPC  C318 4281   1.489   6.339   8.698  0.0616 -0.3759  0.1835
   57SAPC  H18X 4282   1.446   6.255   8.638  0.8101 -0.5080 -0.1734
   57SAPC  H18Y 4283   1.561   6.283   8.761 -0.6409  0.2600  1.5935
   57SAPC  H18Z 4284   1.547   6.408   8.634 -2.4697 -2.1418 -4.5834
   58SAPC     N 4285   4.436   4.103  11.007  0.0741 -0.1955 -0.1961
   58SAPC   C12 4286   4.490   4.176  10.885  0.3940 -0.3443  0.0705
   58SAPC  H12A 4287   4.428   4.149  10.800  0.9486  0.5506 -0.6367
   58SAPC  H12B 4288   4.591   4.148  10.861  1.2126  1.8063  0.7779
   58SAPC   C13 4289   4.448   3.961  10.972 -0.1314  0.5982 -0.1931
   58SAPC  H13A 4290   4.379   3.936  10.894  0.3693 -1.5184 -0.0240
   58SAPC  H13B 4291   4.541   3.940  10.920 -2.1762 -3.2645 -2.7433
   58SAPC  H13C 4292   4.430   3.892  11.053 -2.0664 -1.0725 -1.9378
   58SAPC   C14 4293   4.528   4.134  11.127  0.1732  0.6283 -0.2491
   58SAPC  H14A 4294   4.632   4.109  11.117  0.0081 -1.5343  2.2779
   58SAPC  H14B 4295   4.522   4.238  11.155  3.6317  1.6040 -2.4971
   58SAPC  H14C 4296   4.498   4.069  11.208  1.1532 -0.1113 -0.4650
   58SAPC   C15 4297   4.287   4.124  11.044  0.1888 -0.0105  0.0435
   58SAPC  H15A 4298   4.253   4.221  11.078 -2.4180 -0.2963 -1.4907
   58SAPC  H15B 4299   4.230   4.094  10.957 -2.1425 -3.3908  2.4930
   58SAPC  H15C 4300   4.262   4.052  11.120 -0.2546 -1.0657 -1.0701
   58SAPC   C11 4301   4.488   4.326  10.886  0.2582  0.6742 -0.6525
   58SAPC  H11A 4302   4.393   4.351  10.940  0.1642 -0.7909 -0.0950
   58SAPC  H11B 4303   4.476   4.384  10.792 -0.9443  3.7372  1.2095
   58SAPC     P 4304   4.729   4.416  10.894  0.3379  0.0769  0.2958
   58SAPC   O13 4305   4.703   4.551  10.825  0.1895 -0.1630  0.1416
   58SAPC   O14 4306   4.840   4.408  10.984 -0.3309  0.4508 -0.6125
   58SAPC   O12 4307   4.599   4.373  10.970 -0.6888  0.4942 -0.2462
   58SAPC   O11 4308   4.747   4.313  10.780 -0.6875  0.1567  0.4135
   58SAPC    C1 4309   4.862   4.229  10.775 -0.5263  0.4108  1.7983
   58SAPC    HA 4310   4.928   4.228  10.865  2.2899 -0.5940 -0.1363
   58SAPC    HB 4311   4.826   4.125  10.761 -2.0935  1.3814 -3.0460
   58SAPC    C2 4312   4.951   4.266  10.647 -0.5996  0.3179  0.5050
   58SAPC    HS 4313   4.985   4.371  10.664 -0.0146 -0.0149  1.5336
   58SAPC   O21 4314   4.868   4.250  10.533 -0.8804  0.2324  0.0197
   58SAPC   C21 4315   4.888   4.332  10.429  0.0665  0.4251  0.2007
   58SAPC   O22 4316   4.966   4.424  10.437 -0.0565 -0.5139  0.0786
   58SAPC   C22 4317   4.789   4.285  10.310  0.1274  0.0468  0.0865
   58SAPC   H2R 4318   4.712   4.218  10.354 -1.5546  0.2471 -2.3705
   58SAPC   H2S 4319   4.754   4.381  10.267  1.9587  1.0981  0.8092
   58SAPC    C3 4320   5.084   4.174  10.644 -0.4191  0.0320 -0.7136
   58SAPC    HX 4321   5.048   4.076  10.607 -0.2321  0.0435 -0.9312
   58SAPC    HY 4322   5.110   4.167  10.752 -1.8454 -2.7373 -0.4638
   58SAPC   O31 4323   5.198   4.232  10.565  0.0855 -0.6408 -0.2311
   58SAPC   C31 4324   5.204   4.177  10.443 -1.2562  0.0236 -0.0765
   58SAPC   O32 4325   5.126   4.097  10.395  0.4165 -0.2272 -0.8251
   58SAPC   C32 4326   5.317   4.240  10.357  0.2635  0.9546  0.2700
   58SAPC   H2X 4327   5.415   4.229  10.409  0.6002  0.4734 -0.4380
   58SAPC   H2Y 4328   5.296   4.346  10.332 -1.1119  1.0563  1.7171
   58SAPC   C23 4329   4.852   4.194  10.197 -0.5985  0.1524 -0.6095
   58SAPC   H3R 4330   4.767   4.162  10.133 -3.6908  0.2997  3.0693
   58SAPC   H3S 4331   4.903   4.114  10.255  3.5579  3.5843  1.0156
   58SAPC   C24 4332   4.956   4.271  10.108 -0.1476  0.4287 -0.7302
   58SAPC   H4R 4333   5.011   4.203  10.040  1.2040 -1.8619  2.3795
   58SAPC   H4S 4334   5.032   4.305  10.181 -0.7000 -1.6007  0.8928
   58SAPC   C25 4335   4.899   4.395  10.040  0.2701  0.3562  0.1526
   58SAPC   H5R 4336   4.886   4.478  10.111 -0.5123  2.3162 -2.1425
   58SAPC   C26 4337   4.862   4.404   9.912  0.1635  0.2309  0.5893
   58SAPC   H6R 4338   4.838   4.504   9.871  0.0804 -0.1061 -0.1879
   58SAPC   C27 4339   4.864   4.304   9.805  0.1722 -0.2340 -0.1120
   58SAPC   H7R 4340   4.767   4.288   9.753  0.4287 -2.8675  0.0538
   58SAPC   H7S 4341   4.878   4.204   9.853  0.7118 -0.2752 -0.3564
   58SAPC   C28 4342   4.978   4.333   9.710  0.6336  0.3962  0.1388
   58SAPC   H8R 4343   5.081   4.331   9.748  1.7251  0.2250 -2.6254
   58SAPC   C29 4344   4.967   4.352   9.578 -0.6695  0.8191 -0.0476
   58SAPC   H9R 4345   5.061   4.360   9.521 -1.2974 -0.8829 -1.4373
   58SAPC  C210 4346   4.850   4.367   9.485  0.1620  0.8999  0.1026
   58SAPC  H10R 4347   4.845   4.474   9.454  1.7190  2.0022  3.1617
   58SAPC  H10S 4348   4.758   4.337   9.539 -0.1911 -0.5859 -1.2657
   58SAPC  C211 4349   4.872   4.283   9.362 -0.2556 -0.2945 -1.0180
   58SAPC  H11R 4350   4.807   4.194   9.363  0.8780 -1.2198 -3.4737
   58SAPC  C212 4351   4.924   4.314   9.240  0.7275 -0.2204 -0.3313
   58SAPC  H12R 4352   4.928   4.240   9.159  2.4375  1.6005 -2.0311
   58SAPC  C213 4353   4.996   4.443   9.201 -0.1595 -0.5736 -0.3625
   58SAPC  H13R 4354   5.000   4.513   9.287 -1.6095 -2.4041  1.2856
   58SAPC  H13S 4355   4.945   4.512   9.130 -0.3729  0.3739  0.6886
   58SAPC  C214 4356   5.135   4.405   9.157  0.3262  0.6156  0.0201
   58SAPC  H14R 4357   5.211   4.414   9.236  0.5447  2.6525 -0.3530
   58SAPC  C215 4358   5.163   4.366   9.028 -0.0515  0.3433  0.3010
   58SAPC  H15R 4359   5.268   4.351   9.001 -0.2872 -0.3026 -0.2880
   58SAPC  C216 4360   5.063   4.343   8.916  0.5847 -0.2596  0.0673
   58SAPC  H16R 4361   4.970   4.399   8.943 -0.0173 -0.3604 -1.6585
   58SAPC  H16S 4362   5.040   4.235   8.905 -2.2573  0.1670  0.9908
   58SAPC  C217 4363   5.113   4.403   8.789 -0.2381  0.3174  0.2191
   58SAPC  H17R 4364   5.108   4.514   8.798 -2.7180  0.9893 -5.4827
   58SAPC  H17S 4365   5.035   4.374   8.716 -0.7795  1.3469  0.3666
   58SAPC  C218 4366   5.245   4.361   8.731 -0.3056  0.4903  0.0031
   58SAPC  H18R 4367   5.332   4.378   8.797 -1.6615  0.4527  1.8825
   58SAPC  H18S 4368   5.253   4.413   8.632  0.3965 -0.8611 -0.6731
   58SAPC  C219 4369   5.250   4.216   8.705 -0.2571 -0.3215  0.1649
   58SAPC  H19R 4370   5.166   4.175   8.645  3.2955 -0.8933 -5.1267
   58SAPC  H19S 4371   5.251   4.165   8.804  0.3044 -0.0549  0.3004
   58SAPC  C220 4372   5.375   4.174   8.622 -0.1556  0.0996  0.5412
   58SAPC  H20R 4373   5.398   4.070   8.654 -0.6414  0.7565  3.2516
   58SAPC  H20S 4374   5.474   4.219   8.644  1.1190 -1.8320 -0.8993
   58SAPC  H20T 4375   5.361   4.190   8.513  2.9545 -4.9799 -0.9360
   58SAPC   C33 4376   5.333   4.168  10.227  0.7541 -0.2956  0.7166
   58SAPC   H3X 4377   5.235   4.177  10.174  0.9931  2.3483  0.6063
   58SAPC   H3Y 4378   5.366   4.063  10.241  1.0992 -0.2686  0.1185
   58SAPC   C34 4379   5.435   4.240  10.134  0.3807  0.2890 -0.6169
   58SAPC   H4X 4380   5.534   4.212  10.178 -0.6398 -0.7221  1.1566
   58SAPC   H4Y 4381   5.414   4.349  10.132  1.3272  0.4937 -0.0862
   58SAPC   C35 4382   5.423   4.206   9.984 -0.3369  0.7884  0.0549
   58SAPC   H5X 4383   5.322   4.229   9.944 -0.9885 -1.7880  0.0079
   58SAPC   H5Y 4384   5.437   4.096   9.977 -0.8732  0.7768 -1.0117
   58SAPC   C36 4385   5.529   4.276   9.905  0.2455  0.1458  0.0903
   58SAPC   H6X 4386   5.629   4.246   9.941 -0.1017 -0.7331  0.3402
   58SAPC   H6Y 4387   5.526   4.387   9.909 -0.5629  0.1264  0.3621
   58SAPC   C37 4388   5.533   4.233   9.754 -0.4307  0.3245 -0.7606
   58SAPC   H7X 4389   5.441   4.258   9.697  1.2962 -2.0387 -5.0304
   58SAPC   H7Y 4390   5.537   4.122   9.764  0.6754  0.4021 -0.2053
   58SAPC   C38 4391   5.656   4.290   9.674  0.0858  0.4588  0.2487
   58SAPC   H8X 4392   5.758   4.261   9.705 -0.2232  0.5096  1.3730
   58SAPC   H8Y 4393   5.657   4.399   9.694  1.3040  0.4832  0.1202
   58SAPC   C39 4394   5.647   4.247   9.526  0.0525 -0.1457  0.1929
   58SAPC   H9X 4395   5.648   4.137   9.510  0.5855 -0.2055  0.6283
   58SAPC   H9Y 4396   5.743   4.284   9.483  0.7825  0.2322  2.0870
   58SAPC  C310 4397   5.526   4.306   9.455 -0.3738  0.0046  0.1926
   58SAPC  H10X 4398   5.507   4.402   9.507 -0.0089 -0.6742  1.6391
   58SAPC  H10Y 4399   5.441   4.234   9.454 -0.6819  0.2860 -2.7543
   58SAPC  C311 4400   5.564   4.353   9.313  0.2633  0.9681 -0.2374
   58SAPC  H11X 4401   5.646   4.428   9.321  1.8333 -0.5968 -1.0135
   58SAPC  H11Y 4402   5.472   4.404   9.276 -0.0037  0.2559 -0.5634
   58SAPC  C312 4403   5.612   4.241   9.217  0.3142  0.4918  0.5020
   58SAPC  H12X 4404   5.544   4.153   9.215  2.4035 -1.1911  0.3950
   58SAPC  H12Y 4405   5.708   4.205   9.258 -0.4168 -1.2721  0.7709
   58SAPC  C313 4406   5.632   4.303   9.080  0.0960 -0.4349  0.6515
   58SAPC  H13X 4407   5.681   4.402   9.078  1.4204 -1.0462  1.3536
   58SAPC  H13Y 4408   5.533   4.324   9.036  0.3755 -0.5513 -0.0508
   58SAPC  C314 4409   5.711   4.212   8.984 -0.4989 -0.2861 -0.2405
   58SAPC  H14X 4410   5.670   4.109   8.994  1.9720 -1.3758 -0.4288
   58SAPC  H14Y 4411   5.816   4.207   9.021 -0.4596 -1.0157 -0.4378
   58SAPC  C315 4412   5.711   4.261   8.843  0.7623  0.1455  0.1438
   58SAPC  H15X 4413   5.605   4.280   8.817  1.0911  1.4107 -0.3565
   58SAPC  H15Y 4414   5.744   4.189   8.764 -3.9009 -0.2557 -1.7790
   58SAPC  C316 4415   5.795   4.392   8.813  0.0922  0.5410  0.3506
   58SAPC  H16X 4416   5.760   4.482   8.869  3.0208  0.7599  2.0691
   58SAPC  H16Y 4417   5.783   4.411   8.704  2.4257 -1.6011 -0.3738
   58SAPC  C317 4418   5.945   4.372   8.840  0.8344 -0.2147  0.0709
   58SAPC  H17X 4419   5.979   4.275   8.797  1.2288 -0.7353  1.4853
   58SAPC  H17Y 4420   5.959   4.365   8.950 -0.2215  1.4373  0.3413
   58SAPC  C318 4421   6.028   4.486   8.789 -0.3730 -0.3204 -0.2179
   58SAPC  H18X 4422   6.041   4.562   8.869  0.5475 -1.2755  0.5584
   58SAPC  H18Y 4423   5.980   4.535   8.701  0.6804  1.3538  0.0873
   58SAPC  H18Z 4424   6.127   4.444   8.762 -0.5140 -0.2516 -0.8657
   59SAPC     N 4425   4.691   5.135  11.346  0.0487 -0.1015  0.5803
   59SAPC   C12 4426   4.703   5.109  11.195 -0.8138 -0.2212  0.2007
   59SAPC  H12A 4427   4.607   5.095  11.147 -0.9890 -1.8201  0.9475
   59SAPC  H12B 4428   4.752   5.013  11.190 -0.9470 -0.2563 -0.5232
   59SAPC   C13 4429   4.590   5.037  11.408 -1.3750 -0.7326  0.3520
   59SAPC  H13A 4430   4.600   4.939  11.365  0.9684  0.1636 -1.3925
   59SAPC  H13B 4431   4.603   5.034  11.515  1.7492 -1.8423  0.0419
   59SAPC  H13C 4432   4.487   5.064  11.386 -1.4370  0.3840  1.8902
   59SAPC   C14 4433   4.819   5.121  11.407  0.3873 -0.1898 -0.2492
   59SAPC  H14A 4434   4.854   5.020  11.386 -1.0630 -0.8415  0.3301
   59SAPC  H14B 4435   4.883   5.197  11.366  0.0311 -0.4962 -1.3859
   59SAPC  H14C 4436   4.821   5.125  11.515  0.5189 -1.8861 -0.1561
   59SAPC   C15 4437   4.632   5.270  11.369  0.1266  0.4477  0.0448
   59SAPC  H15A 4438   4.698   5.345  11.330  1.4628 -1.4363 -1.4701
   59SAPC  H15B 4439   4.539   5.282  11.315  0.0726  2.1167  0.4466
   59SAPC  H15C 4440   4.620   5.298  11.473  2.0669 -0.5610  0.5806
   59SAPC   C11 4441   4.784   5.220  11.116  0.0416  0.0642  0.1973
   59SAPC  H11A 4442   4.724   5.312  11.133 -2.5653 -1.3768 -0.6064
   59SAPC  H11B 4443   4.786   5.185  11.011  2.2877 -0.1410  0.2563
   59SAPC     P 4444   4.984   5.375  11.133 -0.4029  0.1570  0.1694
   59SAPC   O13 4445   4.925   5.480  11.225 -0.5666 -0.1848 -0.2729
   59SAPC   O14 4446   5.130   5.351  11.148  0.1317  0.5793  0.0075
   59SAPC   O12 4447   4.921   5.233  11.157 -0.6815  0.0761 -0.3682
   59SAPC   O11 4448   4.938   5.409  10.986  0.0157 -0.4925 -0.3691
   59SAPC    C1 4449   4.994   5.341  10.879 -0.7860  0.2457  0.1616
   59SAPC    HA 4450   5.063   5.256  10.898 -1.9799 -1.0106 -0.8552
   59SAPC    HB 4451   4.912   5.279  10.836 -0.4144 -1.0405  1.2125
   59SAPC    C2 4452   5.045   5.431  10.769  0.4464 -0.3216  1.1663
   59SAPC    HS 4453   4.969   5.507  10.741 -1.7618 -3.1845 -1.3315
   59SAPC   O21 4454   5.070   5.353  10.649 -0.6526 -0.4349 -0.0288
   59SAPC   C21 4455   5.056   5.417  10.535  0.5553  0.2956  0.0569
   59SAPC   O22 4456   5.009   5.524  10.521  0.3577 -0.1657  0.4367
   59SAPC   C22 4457   5.135   5.339  10.430 -0.5483  0.1811 -0.0485
   59SAPC   H2R 4458   5.241   5.368  10.448  0.1734 -0.3693 -2.8544
   59SAPC   H2S 4459   5.116   5.229  10.436  0.9444 -0.1734 -1.0543
   59SAPC    C3 4460   5.176   5.491  10.830  0.3955  0.0130 -0.0029
   59SAPC    HX 4461   5.244   5.405  10.849  2.0901  1.3547  0.2657
   59SAPC    HY 4462   5.126   5.527  10.922  0.1047 -0.2763 -0.0467
   59SAPC   O31 4463   5.234   5.602  10.761  0.4288  0.1749 -0.1082
   59SAPC   C31 4464   5.327   5.574  10.675 -0.2439  0.2776 -0.1072
   59SAPC   O32 4465   5.361   5.467  10.632 -0.1481 -0.0380  0.4657
   59SAPC   C32 4466   5.408   5.697  10.656  0.2222  0.2182 -0.0102
   59SAPC   H2X 4467   5.460   5.713  10.754 -1.0997 -1.6525  1.0601
   59SAPC   H2Y 4468   5.332   5.776  10.642 -0.2630 -0.3861 -0.9009
   59SAPC   C23 4469   5.108   5.386  10.290  0.2907  0.6726  0.1876
   59SAPC   H3R 4470   5.161   5.324  10.214 -0.1642  1.7875 -1.0721
   59SAPC   H3S 4471   5.139   5.492  10.280  0.0985  0.5539 -2.2714
   59SAPC   C24 4472   4.963   5.365  10.238  0.3084  0.0497 -0.1091
   59SAPC   H4R 4473   4.945   5.420  10.142  0.8001  1.0073  0.3301
   59SAPC   H4S 4474   4.902   5.416  10.315 -0.9074 -0.1661 -0.8880
   59SAPC   C25 4475   4.921   5.223  10.236 -0.6753  0.6799 -0.6158
   59SAPC   H5R 4476   4.902   5.188  10.338  1.1423  1.5333  0.0448
   59SAPC   C26 4477   4.933   5.139  10.135 -0.7803 -0.2831  0.8833
   59SAPC   H6R 4478   4.890   5.038  10.140 -1.1126 -0.4083 -2.4704
   59SAPC   C27 4479   4.986   5.174   9.995 -0.1158 -0.6115  0.3345
   59SAPC   H7R 4480   5.079   5.114   9.981 -1.1740 -2.3649  0.5510
   59SAPC   H7S 4481   5.015   5.281   9.989 -2.8373  0.1381 -0.8221
   59SAPC   C28 4482   4.886   5.147   9.886  0.7441  0.0635  0.0424
   59SAPC   H8R 4483   4.781   5.119   9.906 -0.0841  1.9327 -1.3783
   59SAPC   C29 4484   4.921   5.137   9.753  0.3423 -0.1320  0.0515
   59SAPC   H9R 4485   4.842   5.115   9.680 -0.0848 -0.0353  0.4797
   59SAPC  C210 4486   5.058   5.149   9.695 -0.5068 -0.6612 -0.4893
   59SAPC  H10R 4487   5.065   5.075   9.612  2.0451 -2.1003  0.8930
   59SAPC  H10S 4488   5.133   5.119   9.771  0.4110  1.3037 -0.5507
   59SAPC  C211 4489   5.084   5.292   9.642  0.1456 -0.4135  0.8785
   59SAPC  H11R 4490   5.067   5.375   9.712 -1.5054 -0.3021  0.3971
   59SAPC  C212 4491   5.114   5.318   9.512 -0.1967  0.2102  0.2075
   59SAPC  H12R 4492   5.127   5.419   9.471  2.4401 -0.4020 -0.6948
   59SAPC  C213 4493   5.151   5.213   9.408 -0.0520  0.2653  0.3776
   59SAPC  H13R 4494   5.187   5.119   9.456 -2.0030 -0.5700  0.3082
   59SAPC  H13S 4495   5.244   5.246   9.357 -0.2120 -0.6552 -0.5572
   59SAPC  C214 4496   5.034   5.181   9.317 -0.4041 -0.1718 -0.2577
   59SAPC  H14R 4497   4.965   5.115   9.371  0.6525 -1.0880  0.0027
   59SAPC  C215 4498   5.008   5.233   9.195 -1.3368  0.8845 -0.0288
   59SAPC  H15R 4499   4.920   5.195   9.141 -0.4026 -0.7635 -0.5001
   59SAPC  C216 4500   5.099   5.330   9.122 -0.5209  0.5995  0.4833
   59SAPC  H16R 4501   5.185   5.362   9.184  0.7507 -1.3340 -0.1820
   59SAPC  H16S 4502   5.047   5.424   9.094  0.2009  0.2899 -2.1407
   59SAPC  C217 4503   5.170   5.259   9.005 -0.9923 -0.3542 -0.0552
   59SAPC  H17R 4504   5.087   5.230   8.936 -2.6932  1.8298  0.9762
   59SAPC  H17S 4505   5.221   5.168   9.044 -0.1890 -0.0945 -0.4671
   59SAPC  C218 4506   5.261   5.355   8.921  0.6058  0.0344  0.0064
   59SAPC  H18R 4507   5.348   5.388   8.981  0.8160 -0.7912  0.1618
   59SAPC  H18S 4508   5.190   5.436   8.892  1.3204  0.3578 -0.8935
   59SAPC  C219 4509   5.321   5.296   8.791  0.7856 -0.0578  0.0558
   59SAPC  H19R 4510   5.395   5.220   8.824  0.9645 -0.0076 -0.2376
   59SAPC  H19S 4511   5.372   5.375   8.733 -2.1085  0.0276 -2.6720
   59SAPC  C220 4512   5.213   5.221   8.712  0.7606  0.5572  0.5058
   59SAPC  H20R 4513   5.136   5.292   8.675 -0.3636 -1.1745 -0.6028
   59SAPC  H20S 4514   5.161   5.143   8.771 -0.8055  1.1753  0.0092
   59SAPC  H20T 4515   5.251   5.187   8.614 -1.1882 -1.2128  0.2986
   59SAPC   C33 4516   5.507   5.702  10.547  0.2177  0.5816 -0.0365
   59SAPC   H3X 4517   5.578   5.617  10.558 -2.4107 -1.6532  0.9021
   59SAPC   H3Y 4518   5.559   5.800  10.547  1.8545 -0.2334 -1.4623
   59SAPC   C34 4519   5.447   5.685  10.401 -0.4934 -0.2571  0.1161
   59SAPC   H4X 4520   5.372   5.765  10.383 -0.3800  0.0613  1.0074
   59SAPC   H4Y 4521   5.398   5.587  10.382  3.7411 -2.3116 -1.4413
   59SAPC   C35 4522   5.556   5.687  10.285 -0.3377  0.7132 -0.2771
   59SAPC   H5X 4523   5.604   5.587  10.285  0.1707  0.9138  1.6755
   59SAPC   H5Y 4524   5.630   5.767  10.307  0.4355  0.2800 -1.2290
   59SAPC   C36 4525   5.491   5.732  10.156 -0.4669 -0.1108  0.4396
   59SAPC   H6X 4526   5.479   5.841  10.171 -0.7730  0.0126 -0.6381
   59SAPC   H6Y 4527   5.396   5.678  10.134 -0.6439  0.9618 -1.6563
   59SAPC   C37 4528   5.592   5.724  10.039  0.4051 -0.0508  0.2666
   59SAPC   H7X 4529   5.637   5.622  10.032  2.8076  0.7304  2.6075
   59SAPC   H7Y 4530   5.682   5.777  10.078  0.8680 -2.3949  2.6357
   59SAPC   C38 4531   5.552   5.775   9.899  0.6257 -0.0584 -0.5084
   59SAPC   H8X 4532   5.458   5.727   9.864  0.9601 -0.6889 -0.5502
   59SAPC   H8Y 4533   5.634   5.756   9.827 -0.9726  2.5892 -3.2250
   59SAPC   C39 4534   5.530   5.926   9.891 -0.4114  0.0434 -0.9669
   59SAPC   H9X 4535   5.610   5.991   9.932 -1.9864  0.4258  1.7474
   59SAPC   H9Y 4536   5.443   5.962   9.950 -0.2522 -1.0661 -0.0058
   59SAPC  C310 4537   5.498   5.966   9.753 -0.5458  0.3313 -0.1362
   59SAPC  H10X 4538   5.401   5.936   9.707  0.9217 -0.9068 -2.6383
   59SAPC  H10Y 4539   5.579   5.922   9.691 -0.5220  0.7495 -0.4027
   59SAPC  C311 4540   5.509   6.117   9.717 -0.0815  0.3485 -0.5718
   59SAPC  H11X 4541   5.618   6.134   9.728 -0.3855  1.5455  1.1420
   59SAPC  H11Y 4542   5.475   6.179   9.803  2.1321 -1.9187  2.1335
   59SAPC  C312 4543   5.438   6.164   9.589 -0.4007 -0.0138 -0.0274
   59SAPC  H12X 4544   5.415   6.272   9.603  2.2292  0.3868  2.0991
   59SAPC  H12Y 4545   5.339   6.117   9.574 -0.5631  0.4194 -0.3255
   59SAPC  C313 4546   5.529   6.159   9.460  0.0852  0.0542  0.6580
   59SAPC  H13X 4547   5.577   6.060   9.443  0.3588  0.1491  0.8648
   59SAPC  H13Y 4548   5.611   6.231   9.479  0.4158 -0.8386  2.8986
   59SAPC  C314 4549   5.434   6.193   9.346  0.0841 -0.3237 -0.3795
   59SAPC  H14X 4550   5.382   6.288   9.369 -0.0077 -0.8026  1.5888
   59SAPC  H14Y 4551   5.377   6.098   9.337  0.3921 -0.4608 -0.9981
   59SAPC  C315 4552   5.502   6.202   9.211  0.1727  0.1662  0.0859
   59SAPC  H15X 4553   5.446   6.209   9.115  2.2360  2.5134 -1.0455
   59SAPC  H15Y 4554   5.571   6.115   9.202 -1.2886 -1.4610  2.9766
   59SAPC  C316 4555   5.589   6.328   9.215 -0.1725  0.3983 -0.2231
   59SAPC  H16X 4556   5.671   6.311   9.289 -2.0022  0.1392  1.8425
   59SAPC  H16Y 4557   5.521   6.411   9.244 -3.4765 -0.9466 -3.3442
   59SAPC  C317 4558   5.647   6.373   9.081  0.3251 -0.7359  0.5145
   59SAPC  H17X 4559   5.716   6.458   9.101  0.4133 -0.7590  0.3168
   59SAPC  H17Y 4560   5.560   6.406   9.019  1.5232  2.1367  0.1825
   59SAPC  C318 4561   5.720   6.257   9.004  0.1923  0.1464 -0.5754
   59SAPC  H18X 4562   5.762   6.296   8.909  1.9494  0.8278  0.4432
   59SAPC  H18Y 4563   5.652   6.176   8.970 -0.4556  0.0466  0.8869
   59SAPC  H18Z 4564   5.805   6.218   9.065  0.5460 -1.5129 -2.0385
   60SAPC     N 4565   0.867   4.890  11.135 -0.0596 -0.0205 -0.5059
   60SAPC   C12 4566   0.780   4.931  11.025  0.0006 -0.2791 -0.1651
   60SAPC  H12A 4567   0.714   4.846  11.017 -0.1198 -0.2984  0.8865
   60SAPC  H12B 4568   0.828   4.929  10.928 -0.0446 -1.5066 -0.1780
   60SAPC   C13 4569   0.948   4.768  11.101 -0.4693  0.0034  0.9941
   60SAPC  H13A 4570   1.004   4.743  11.189  1.7321 -1.1317 -0.6351
   60SAPC  H13B 4571   0.870   4.698  11.077  0.6302 -1.1583  0.7255
   60SAPC  H13C 4572   1.012   4.792  11.017 -0.4546  1.9836  1.5133
   60SAPC   C14 4573   0.966   5.001  11.168 -0.0943  0.1803 -0.1640
   60SAPC  H14A 4574   1.031   5.021  11.084  0.3675 -3.7891 -0.9286
   60SAPC  H14B 4575   0.913   5.092  11.193  0.3004  0.1186  0.9217
   60SAPC  H14C 4576   1.025   4.963  11.250  0.2826 -1.4070 -1.1312
   60SAPC   C15 4577   0.780   4.860  11.253  0.1202  0.2998 -0.2137
   60SAPC  H15A 4578   0.734   4.951  11.287 -0.3367 -0.2233  0.6150
   60SAPC  H15B 4579   0.703   4.793  11.220  0.2727  0.3535 -0.6892
   60SAPC  H15C 4580   0.826   4.813  11.339  2.6958  1.6202 -0.7442
   60SAPC   C11 4581   0.697   5.062  11.039 -0.3994  0.5350  0.0058
   60SAPC  H11A 4582   0.650   5.060  11.140  1.2120 -0.3371  0.7792
   60SAPC  H11B 4583   0.619   5.061  10.960 -0.5749 -2.9276  0.0758
   60SAPC     P 4584   0.810   5.261  10.915 -0.1952 -0.0430 -0.3868
   60SAPC   O13 4585   0.872   5.390  10.958 -0.0752  0.0431  0.3593
   60SAPC   O14 4586   0.886   5.183  10.815  0.1486  0.0316 -0.1511
   60SAPC   O12 4587   0.786   5.173  11.041 -0.0470  0.7676 -0.3312
   60SAPC   O11 4588   0.662   5.289  10.867 -0.5665 -0.0261  0.1499
   60SAPC    C1 4589   0.656   5.317  10.724  0.1333  0.0799 -0.0817
   60SAPC    HA 4590   0.745   5.356  10.670  0.1815 -1.8078 -1.4631
   60SAPC    HB 4591   0.635   5.219  10.675 -0.0272 -0.0019  0.1474
   60SAPC    C2 4592   0.540   5.414  10.691  0.0907  0.3884  0.6071
   60SAPC    HS 4593   0.445   5.356  10.698  0.5318 -0.7418 -1.8154
   60SAPC   O21 4594   0.563   5.472  10.559  0.3712  0.3037  0.7061
   60SAPC   C21 4595   0.556   5.384  10.460 -0.8312  0.3150  0.5741
   60SAPC   O22 4596   0.508   5.271  10.480 -0.1350 -0.2787 -0.3118
   60SAPC   C22 4597   0.607   5.437  10.330 -0.0364  0.0457  0.1916
   60SAPC   H2R 4598   0.570   5.541  10.320  0.6834  0.5967  2.5178
   60SAPC   H2S 4599   0.717   5.455  10.329  0.5560 -3.0277 -0.7850
   60SAPC    C3 4600   0.536   5.526  10.796  0.4428 -0.3837 -0.0436
   60SAPC    HX 4601   0.640   5.519  10.836  0.8452 -0.7002 -1.1021
   60SAPC    HY 4602   0.464   5.500  10.876  1.2680 -1.9791  0.2234
   60SAPC   O31 4603   0.508   5.655  10.742  0.8241  0.1663  0.0469
   60SAPC   C31 4604   0.584   5.752  10.785  0.4617  0.2761 -0.3737
   60SAPC   O32 4605   0.673   5.742  10.862  0.2490  0.5349  0.2287
   60SAPC   C32 4606   0.543   5.880  10.709 -0.1482 -0.2721 -0.3681
   60SAPC   H2X 4607   0.483   5.946  10.775  0.3496  1.4694 -1.5999
   60SAPC   H2Y 4608   0.477   5.864  10.620 -0.1286  2.4390 -0.9382
   60SAPC   C23 4609   0.549   5.359  10.207  0.2637  0.3743  0.0746
   60SAPC   H3R 4610   0.442   5.348  10.236  0.4587 -0.3101  0.5608
   60SAPC   H3S 4611   0.595   5.258  10.198  1.1306  0.9527 -4.1461
   60SAPC   C24 4612   0.538   5.445  10.082  0.0648  0.5087 -1.0659
   60SAPC   H4R 4613   0.519   5.551  10.111 -1.6156 -0.2526  0.8249
   60SAPC   H4S 4614   0.458   5.417  10.010 -1.1953 -1.7039  1.0593
   60SAPC   C25 4615   0.679   5.439  10.023 -0.6770 -0.2912  0.1906
   60SAPC   H5R 4616   0.760   5.477  10.088  1.1820 -1.0291 -1.5936
   60SAPC   C26 4617   0.711   5.373   9.909  0.3513  0.0800  0.3227
   60SAPC   H6R 4618   0.815   5.383   9.874  0.7797  0.0316  1.5207
   60SAPC   C27 4619   0.615   5.301   9.824 -0.0124  0.2160 -0.0181
   60SAPC   H7R 4620   0.533   5.247   9.877 -0.1730  0.6535  0.1835
   60SAPC   H7S 4621   0.667   5.213   9.781  0.6092  0.4270  0.2948
   60SAPC   C28 4622   0.561   5.372   9.701  0.0436 -0.3049  0.3884
   60SAPC   H8R 4623   0.591   5.478   9.701  2.0362 -0.7365  3.2838
   60SAPC   C29 4624   0.484   5.326   9.606 -0.6664  0.0830 -0.5585
   60SAPC   H9R 4625   0.459   5.398   9.526 -0.2717 -0.1784 -0.9259
   60SAPC  C210 4626   0.436   5.184   9.593 -0.2074  0.6212  0.0015
   60SAPC  H10R 4627   0.464   5.117   9.677 -0.0965 -0.4908 -0.9053
   60SAPC  H10S 4628   0.476   5.146   9.496 -0.7348  0.8160 -0.2960
   60SAPC  C211 4629   0.285   5.169   9.597  0.1335 -0.1689  0.0716
   60SAPC  H11R 4630   0.234   5.182   9.694 -1.8647 -0.9389 -0.8306
   60SAPC  C212 4631   0.213   5.146   9.484  0.2576 -0.2686  0.5832
   60SAPC  H12R 4632   0.107   5.122   9.499 -0.4808  1.9118 -0.7220
   60SAPC  C213 4633   0.259   5.129   9.344  0.3038  0.1168 -0.0750
   60SAPC  H13R 4634   0.185   5.080   9.278 -0.8500 -0.2388  1.4425
   60SAPC  H13S 4635   0.345   5.059   9.355  0.4564  0.2952 -0.1148
   60SAPC  C214 4636   0.307   5.249   9.267 -0.1539 -0.2936  0.6785
   60SAPC  H14R 4637   0.257   5.342   9.299  1.6104 -0.2857  3.7191
   60SAPC  C215 4638   0.412   5.246   9.179  0.2104  0.3620  0.1018
   60SAPC  H15R 4639   0.419   5.338   9.119 -0.6801 -0.0663 -0.6952
   60SAPC  C216 4640   0.504   5.135   9.132 -0.1602  0.5121  0.1980
   60SAPC  H16R 4641   0.604   5.180   9.150 -0.1705  0.6170 -0.0042
   60SAPC  H16S 4642   0.488   5.115   9.024  0.2339 -0.1986  0.2664
   60SAPC  C217 4643   0.519   4.991   9.187 -0.2259  0.5394 -0.1833
   60SAPC  H17R 4644   0.422   4.942   9.162 -0.4008 -0.4072  2.0735
   60SAPC  H17S 4645   0.513   4.987   9.298 -1.4286  1.2234 -0.2030
   60SAPC  C218 4646   0.631   4.901   9.133 -0.5050 -0.1938  0.7930
   60SAPC  H18R 4647   0.647   4.945   9.032  1.0786  0.4220  1.2881
   60SAPC  H18S 4648   0.609   4.793   9.120 -0.6542 -0.0822  0.0357
   60SAPC  C219 4649   0.761   4.903   9.215  0.6631 -0.7380 -0.1409
   60SAPC  H19R 4650   0.781   4.800   9.249 -1.7855 -1.5226 -0.8813
   60SAPC  H19S 4651   0.747   4.964   9.307  2.6588  0.0689 -0.3133
   60SAPC  C220 4652   0.881   4.964   9.138  0.6562 -0.1936  0.4441
   60SAPC  H20R 4653   0.868   5.072   9.117  2.4843  0.2051  1.1257
   60SAPC  H20S 4654   0.898   4.906   9.044 -1.9385 -0.6140  0.1679
   60SAPC  H20T 4655   0.966   4.950   9.208 -0.4252 -4.0914  1.2441
   60SAPC   C33 4656   0.660   5.958  10.656  0.0479 -0.1066  0.0101
   60SAPC   H3X 4657   0.723   5.992  10.740 -0.9050  1.8269 -0.0186
   60SAPC   H3Y 4658   0.620   6.038  10.590 -0.6827 -1.2143 -0.9393
   60SAPC   C34 4659   0.747   5.876  10.550 -0.0493  0.4769 -0.2951
   60SAPC   H4X 4660   0.766   5.768  10.563  0.5546  0.5643 -0.4269
   60SAPC   H4Y 4661   0.847   5.925  10.551 -0.4401  1.3026 -0.2564
   60SAPC   C35 4662   0.687   5.879  10.402 -0.0993 -0.6961 -0.4248
   60SAPC   H5X 4663   0.614   5.961  10.384  0.1146 -0.8252 -2.0787
   60SAPC   H5Y 4664   0.636   5.784  10.373 -0.4276 -0.1989 -1.5618
   60SAPC   C36 4665   0.811   5.886  10.310 -0.5582  1.4392 -0.7506
   60SAPC   H6X 4666   0.893   5.830  10.360 -1.1630  1.6364  0.5043
   60SAPC   H6Y 4667   0.854   5.987  10.290  1.9213  0.1419 -2.5910
   60SAPC   C37 4668   0.777   5.823  10.179  0.0860  0.2288  0.1540
   60SAPC   H7X 4669   0.697   5.871  10.119 -0.8962 -2.0280 -0.4491
   60SAPC   H7Y 4670   0.722   5.731  10.208 -2.9590  1.1892 -2.0804
   60SAPC   C38 4671   0.902   5.797  10.095  0.0731 -0.0707 -0.6077
   60SAPC   H8X 4672   0.968   5.883  10.074  1.8031 -0.5631  2.2946
   60SAPC   H8Y 4673   0.869   5.746  10.002 -0.3807 -1.2777  0.1805
   60SAPC   C39 4674   0.985   5.692  10.160 -0.7784  0.2651 -0.9576
   60SAPC   H9X 4675   0.926   5.608  10.202 -2.7319  2.0683  0.0525
   60SAPC   H9Y 4676   1.047   5.746  10.234 -0.2821  1.1230 -1.9725
   60SAPC  C310 4677   1.090   5.653  10.061 -1.1042  0.2986  0.1147
   60SAPC  H10X 4678   1.119   5.743  10.004 -1.6773  0.6258  0.3232
   60SAPC  H10Y 4679   1.039   5.586   9.989  0.5527 -2.9050  1.6906
   60SAPC  C311 4680   1.215   5.578  10.116  0.2125 -0.2127  0.4949
   60SAPC  H11X 4681   1.186   5.474  10.140 -1.4265 -0.2152 -1.2256
   60SAPC  H11Y 4682   1.240   5.629  10.211 -0.6064 -2.4963  2.0262
   60SAPC  C312 4683   1.340   5.575  10.024  0.0134 -0.3232  0.0601
   60SAPC  H12X 4684   1.420   5.507  10.060  1.2074  1.1147  0.2440
   60SAPC  H12Y 4685   1.387   5.676  10.026 -0.8887  0.2279 -2.6329
   60SAPC  C313 4686   1.317   5.539   9.879 -0.3590 -0.5423 -0.3134
   60SAPC  H13X 4687   1.252   5.624   9.852 -1.8079 -1.3060  0.5892
   60SAPC  H13Y 4688   1.253   5.449   9.864  1.2141 -1.6479 -0.6599
   60SAPC  C314 4689   1.438   5.530   9.796 -0.6941  0.3115 -0.7411
   60SAPC  H14X 4690   1.492   5.438   9.828  1.2246  1.4416 -0.5826
   60SAPC  H14Y 4691   1.504   5.610   9.836  0.2944 -0.8278 -0.0393
   60SAPC  C315 4692   1.412   5.535   9.648  0.2953 -0.4455  0.3921
   60SAPC  H15X 4693   1.334   5.614   9.639 -0.4617 -1.0175  1.7375
   60SAPC  H15Y 4694   1.376   5.433   9.621  0.2191 -0.3544  0.1398
   60SAPC  C316 4695   1.535   5.554   9.564  0.3676 -0.2720 -0.1128
   60SAPC  H16X 4696   1.610   5.490   9.615  1.0917 -0.4193 -1.3389
   60SAPC  H16Y 4697   1.571   5.658   9.583 -0.0982  0.0817 -1.0798
   60SAPC  C317 4698   1.519   5.504   9.419  0.1667  0.3624  0.4227
   60SAPC  H17X 4699   1.489   5.397   9.418 -4.0933  1.3780 -0.5301
   60SAPC  H17Y 4700   1.613   5.511   9.360 -0.1596 -1.4019 -0.3403
   60SAPC  C318 4701   1.414   5.581   9.340 -0.1198  0.3070 -0.1199
   60SAPC  H18X 4702   1.442   5.689   9.337 -1.0976  0.5469 -1.3987
   60SAPC  H18Y 4703   1.315   5.569   9.388  0.6442  4.0558  2.8542
   60SAPC  H18Z 4704   1.413   5.553   9.232  0.1671  0.8124 -0.2576
   61SAPC     N 4705   1.689   3.213  10.760 -0.2055  0.2305  0.4053
   61SAPC   C12 4706   1.669   3.346  10.829 -0.1038 -0.2569  0.4795
   61SAPC  H12A 4707   1.762   3.400  10.823 -0.6266  0.7244  1.0302
   61SAPC  H12B 4708   1.654   3.323  10.934  3.7892 -0.3396  1.1630
   61SAPC   C13 4709   1.557   3.138  10.766 -0.6865 -0.1410 -0.4435
   61SAPC  H13A 4710   1.550   3.104  10.869 -0.8709  5.4920  1.7331
   61SAPC  H13B 4711   1.471   3.198  10.740 -0.7864 -0.4723 -0.8916
   61SAPC  H13C 4712   1.568   3.051  10.702 -1.5775 -1.0088  0.5253
   61SAPC   C14 4713   1.728   3.233  10.621  0.3220  0.4067 -0.1942
   61SAPC  H14A 4714   1.734   3.136  10.574 -0.4249 -0.1935  0.9005
   61SAPC  H14B 4715   1.660   3.301  10.572 -0.7659  1.4152  2.4796
   61SAPC  H14C 4716   1.826   3.279  10.630  1.0421 -1.3808  2.3456
   61SAPC   C15 4717   1.787   3.120  10.833  0.2426 -0.0650 -0.0852
   61SAPC  H15A 4718   1.889   3.154  10.823  0.1979 -0.1732 -1.1005
   61SAPC  H15B 4719   1.755   3.112  10.936 -2.3558  1.6258 -0.6526
   61SAPC  H15C 4720   1.777   3.018  10.799  1.6336 -1.3323  2.9547
   61SAPC   C11 4721   1.566   3.445  10.769 -0.5160  1.1506  0.3881
   61SAPC  H11A 4722   1.470   3.392  10.756 -0.1468  0.1515  1.6107
   61SAPC  H11B 4723   1.605   3.462  10.666 -0.1604 -0.7889  0.1728
   61SAPC     P 4724   1.681   3.669  10.839  0.3094 -0.1808  0.1429
   61SAPC   O13 4725   1.701   3.733  10.970 -0.2856 -0.5234 -0.1781
   61SAPC   O14 4726   1.802   3.611  10.791 -0.2905  0.1492 -0.4237
   61SAPC   O12 4727   1.556   3.563  10.849 -0.1100  0.0133 -0.3549
   61SAPC   O11 4728   1.619   3.773  10.725  0.2784 -0.8022 -1.0203
   61SAPC    C1 4729   1.509   3.731  10.644 -0.5917  0.0455 -0.4797
   61SAPC    HA 4730   1.451   3.652  10.697  0.8778  0.9954  2.7863
   61SAPC    HB 4731   1.449   3.823  10.630  4.9839  4.4693  1.0397
   61SAPC    C2 4732   1.559   3.685  10.508 -0.2462 -0.3944  0.6441
   61SAPC    HS 4733   1.632   3.603  10.528 -0.8948 -0.6073  2.2342
   61SAPC   O21 4734   1.607   3.789  10.427  0.0054 -0.3596 -0.3357
   61SAPC   C21 4735   1.704   3.754  10.339  0.1458  0.5180 -0.1815
   61SAPC   O22 4736   1.762   3.645  10.340 -0.9839 -0.6953  0.3717
   61SAPC   C22 4737   1.740   3.868  10.249  0.1926 -0.2864 -0.6519
   61SAPC   H2R 4738   1.651   3.909  10.198  0.1844  1.1516  0.4408
   61SAPC   H2S 4739   1.775   3.957  10.306 -2.2979  1.7729 -2.0847
   61SAPC    C3 4740   1.446   3.616  10.431  0.3420  0.2171  0.2170
   61SAPC    HX 4741   1.362   3.688  10.420 -0.9099 -1.0729  0.9689
   61SAPC    HY 4742   1.398   3.540  10.496  0.7657  0.2424  0.5633
   61SAPC   O31 4743   1.482   3.566  10.301  1.0428  0.2310 -0.0352
   61SAPC   C31 4744   1.532   3.446  10.314 -1.0476  0.3502 -0.4582
   61SAPC   O32 4745   1.550   3.387  10.422 -0.3645  0.1988 -1.2881
   61SAPC   C32 4746   1.571   3.393  10.176 -0.8372  0.2919  0.0638
   61SAPC   H2X 4747   1.503   3.441  10.103 -0.8531  0.8234  0.4218
   61SAPC   H2Y 4748   1.547   3.284  10.174  2.2101 -0.4859  0.1791
   61SAPC   C23 4749   1.851   3.833  10.147 -0.1874 -0.5872 -0.2150
   61SAPC   H3R 4750   1.833   3.729  10.112 -0.5517 -0.2646 -0.9839
   61SAPC   H3S 4751   1.951   3.826  10.197 -0.5461 -2.6746  0.3359
   61SAPC   C24 4752   1.856   3.926  10.023  0.7011  0.2817 -0.1197
   61SAPC   H4R 4753   1.856   4.032  10.058  2.1665  0.1015  0.4795
   61SAPC   H4S 4754   1.760   3.901   9.972  1.1337 -0.8239 -0.4189
   61SAPC   C25 4755   1.981   3.909   9.942  0.1082 -0.1944  0.5576
   61SAPC   H5R 4756   2.081   3.927   9.982  0.3717  0.2652 -0.2688
   61SAPC   C26 4757   1.982   3.879   9.809 -0.0358  0.1183  0.1348
   61SAPC   H6R 4758   2.079   3.878   9.758 -0.8780  1.0177 -1.6031
   61SAPC   C27 4759   1.866   3.865   9.717 -0.1761  0.8050 -0.1114
   61SAPC   H7R 4760   1.784   3.823   9.778 -0.4790  0.0457 -1.0024
   61SAPC   H7S 4761   1.882   3.781   9.645 -1.1020 -1.8170  2.5491
   61SAPC   C28 4762   1.831   4.001   9.649 -0.9486  0.3895 -0.2703
   61SAPC   H8R 4763   1.848   4.094   9.704 -0.3940  0.7645 -1.0576
   61SAPC   C29 4764   1.791   4.009   9.519 -0.2404  0.6177 -0.7108
   61SAPC   H9R 4765   1.772   4.108   9.475  2.6431  1.7873  0.3804
   61SAPC  C210 4766   1.780   3.897   9.412 -0.1402 -0.1898 -0.3955
   61SAPC  H10R 4767   1.695   3.913   9.342 -0.3157  4.8360  0.6054
   61SAPC  H10S 4768   1.765   3.799   9.462  0.3294  0.4486  1.0477
   61SAPC  C211 4769   1.920   3.893   9.345  0.6556 -0.1026 -0.3150
   61SAPC  H11R 4770   2.000   3.888   9.421  0.7464  2.7939 -0.1002
   61SAPC  C212 4771   1.953   3.912   9.216  0.3135  0.2305 -0.1540
   61SAPC  H12R 4772   2.055   3.906   9.175  1.0454 -1.1095  1.7671
   61SAPC  C213 4773   1.849   3.942   9.111  0.2771 -0.0132  0.0297
   61SAPC  H13R 4774   1.894   4.021   9.047  0.1814 -0.0986 -0.1453
   61SAPC  H13S 4775   1.754   3.979   9.155  0.9762  1.4975  0.3519
   61SAPC  C214 4776   1.834   3.821   9.022 -0.1299  0.2254  0.4954
   61SAPC  H14R 4777   1.750   3.758   9.053 -1.7521  1.6646 -0.8154
   61SAPC  C215 4778   1.911   3.792   8.914  0.4679 -0.3703  0.2431
   61SAPC  H15R 4779   1.874   3.710   8.851  2.1487 -1.4398  0.6025
   61SAPC  C216 4780   2.030   3.869   8.866 -0.6836 -0.5050  0.4263
   61SAPC  H16R 4781   2.124   3.837   8.915  1.0972  0.8354 -1.8706
   61SAPC  H16S 4782   2.021   3.980   8.877 -1.5794 -0.7626  2.9048
   61SAPC  C217 4783   2.057   3.856   8.714 -0.3453  0.5380  0.3632
   61SAPC  H17R 4784   1.964   3.879   8.657 -1.3300 -0.7021  1.3848
   61SAPC  H17S 4785   2.095   3.752   8.699  0.9133  0.7457  1.8879
   61SAPC  C218 4786   2.169   3.949   8.667 -0.7253  0.1290 -0.1622
   61SAPC  H18R 4787   2.142   4.054   8.687 -0.2179  0.3279 -0.4972
   61SAPC  H18S 4788   2.180   3.938   8.557  1.6335 -2.5026  0.2180
   61SAPC  C219 4789   2.309   3.916   8.726 -0.4528  0.3331  0.2596
   61SAPC  H19R 4790   2.330   3.812   8.693 -0.9149  0.3338 -0.0485
   61SAPC  H19S 4791   2.315   3.912   8.837 -0.6011 -1.6470  0.2316
   61SAPC  C220 4792   2.421   4.002   8.669 -0.0219 -0.6892  0.3137
   61SAPC  H20R 4793   2.507   3.996   8.739 -0.2007 -2.3349  0.4398
   61SAPC  H20S 4794   2.397   4.110   8.669 -0.1426 -0.7073 -0.6348
   61SAPC  H20T 4795   2.454   3.972   8.567  0.8642  0.2738  0.3075
   61SAPC   C33 4796   1.730   3.401  10.145  0.3015  0.4025 -0.0810
   61SAPC   H3X 4797   1.781   3.370  10.239 -1.7466 -0.3259  0.8388
   61SAPC   H3Y 4798   1.745   3.508  10.117  0.5537  0.1051 -1.1251
   61SAPC   C34 4799   1.774   3.313  10.030 -0.4707 -0.1270 -0.3792
   61SAPC   H4X 4800   1.691   3.240  10.022  0.3761 -1.5101  2.1874
   61SAPC   H4Y 4801   1.863   3.255  10.064 -0.8407  0.8842  2.5910
   61SAPC   C35 4802   1.797   3.407   9.912  0.0209 -0.3346 -0.0204
   61SAPC   H5X 4803   1.865   3.489   9.943  0.9504 -1.0494 -0.1436
   61SAPC   H5Y 4804   1.698   3.449   9.882  1.0212  1.6224 -0.7463
   61SAPC   C36 4805   1.852   3.333   9.788 -0.6081  0.3287 -0.3401
   61SAPC   H6X 4806   1.787   3.245   9.768  0.4436 -0.7591  0.8825
   61SAPC   H6Y 4807   1.953   3.299   9.819 -0.4693  0.9041 -0.1499
   61SAPC   C37 4808   1.860   3.416   9.656  0.2431 -0.4718  0.4692
   61SAPC   H7X 4809   1.932   3.370   9.585  2.0173  3.6507 -0.7267
   61SAPC   H7Y 4810   1.897   3.518   9.679  0.4794 -0.3513 -0.3904
   61SAPC   C38 4811   1.720   3.422   9.584 -0.1261 -0.2625 -0.0639
   61SAPC   H8X 4812   1.644   3.467   9.652 -0.2731 -0.6240  0.0148
   61SAPC   H8Y 4813   1.695   3.314   9.577  1.4893 -0.7432  1.1245
   61SAPC   C39 4814   1.712   3.485   9.441  0.0312  0.0640 -0.4894
   61SAPC   H9X 4815   1.732   3.592   9.464 -1.0595 -0.1020  1.4335
   61SAPC   H9Y 4816   1.610   3.467   9.400  1.0979 -0.1439 -3.2585
   61SAPC  C310 4817   1.823   3.438   9.341  0.2703 -0.0487 -0.5276
   61SAPC  H10X 4818   1.924   3.427   9.386 -0.1062  1.3093  0.7394
   61SAPC  H10Y 4819   1.842   3.518   9.266  0.7992 -0.6580 -1.0578
   61SAPC  C311 4820   1.793   3.300   9.275 -0.3188  0.2156 -0.8301
   61SAPC  H11X 4821   1.696   3.308   9.220 -0.3218  1.3538 -0.6947
   61SAPC  H11Y 4822   1.778   3.227   9.357  3.9204  0.8298  0.7318
   61SAPC  C312 4823   1.913   3.263   9.189 -0.2259  0.1603  0.8123
   61SAPC  H12X 4824   1.906   3.156   9.162 -0.8072 -0.1722  2.1815
   61SAPC  H12Y 4825   2.013   3.278   9.233  1.3379 -0.9565 -2.1226
   61SAPC  C313 4826   1.906   3.343   9.049 -0.5530  0.5721 -0.4497
   61SAPC  H13X 4827   2.004   3.328   9.000 -0.5776 -0.3077 -0.2413
   61SAPC  H13Y 4828   1.911   3.450   9.079  0.6018  0.5182 -0.4247
   61SAPC  C314 4829   1.797   3.305   8.946 -0.6555 -0.0410  0.6919
   61SAPC  H14X 4830   1.711   3.371   8.970 -1.1343 -0.7733  1.0201
   61SAPC  H14Y 4831   1.771   3.197   8.957  0.4120 -0.2720  0.9720
   61SAPC  C315 4832   1.842   3.341   8.801  0.4802 -0.2515  1.0354
   61SAPC  H15X 4833   1.945   3.303   8.782  1.3797  2.6565 -0.5122
   61SAPC  H15Y 4834   1.857   3.449   8.781  2.9391 -0.9129 -1.3661
   61SAPC  C316 4835   1.741   3.272   8.701  0.2967  0.0461  0.0232
   61SAPC  H16X 4836   1.757   3.162   8.702 -3.2628 -0.7296 -3.6716
   61SAPC  H16Y 4837   1.771   3.298   8.597  1.1597 -1.0305 -0.0229
   61SAPC  C317 4838   1.594   3.318   8.703 -0.4927 -0.2636  0.4006
   61SAPC  H17X 4839   1.593   3.429   8.704 -1.6534 -0.2268 -1.0392
   61SAPC  H17Y 4840   1.547   3.284   8.798 -0.5263  0.8054  0.7912
   61SAPC  C318 4841   1.531   3.267   8.571  0.4233  0.6208  0.0152
   61SAPC  H18X 4842   1.529   3.157   8.554 -3.8985  0.8977 -2.4749
   61SAPC  H18Y 4843   1.568   3.318   8.479 -2.6515  1.4878 -0.8663
   61SAPC  H18Z 4844   1.425   3.294   8.587  0.5286  0.7347  0.5313
   62SAPC     N 4845   0.916   3.105  11.056 -0.0128  0.2105  0.0132
   62SAPC   C12 4846   0.912   3.240  10.988 -0.7227  0.0339  0.5308
   62SAPC  H12A 4847   0.991   3.305  11.021 -1.0976  0.7846 -0.0432
   62SAPC  H12B 4848   0.815   3.280  11.015 -0.0148  2.4034 -0.1968
   62SAPC   C13 4849   0.910   3.123  11.203 -0.5299  0.2187 -0.0212
   62SAPC  H13A 4850   0.832   3.192  11.231 -0.4645  0.8777 -1.4079
   62SAPC  H13B 4851   0.905   3.024  11.248 -2.4150 -0.4562 -1.5734
   62SAPC  H13C 4852   1.007   3.162  11.230 -1.5330  2.5561  0.4106
   62SAPC   C14 4853   0.798   3.026  11.005  0.2382 -0.1807  0.2169
   62SAPC  H14A 4854   0.807   3.008  10.898  0.3281  1.6471 -0.1120
   62SAPC  H14B 4855   0.806   2.929  11.052 -0.7939  0.2054  1.2164
   62SAPC  H14C 4856   0.700   3.063  11.030  0.4360  0.0271  0.6850
   62SAPC   C15 4857   1.035   3.026  11.025  0.2910 -0.4912 -0.0764
   62SAPC  H15A 4858   1.075   3.034  10.925  0.0120 -0.5174 -0.1913
   62SAPC  H15B 4859   1.121   3.058  11.082  0.2338  0.5981 -0.5641
   62SAPC  H15C 4860   1.016   2.924  11.054 -2.3399  0.3825  1.6164
   62SAPC   C11 4861   0.925   3.249  10.836 -0.1985 -0.0164  0.5573
   62SAPC  H11A 4862   0.911   3.357  10.813  0.3991 -0.3068 -1.3853
   62SAPC  H11B 4863   0.844   3.203  10.775  1.7357 -0.5269 -1.7982
   62SAPC     P 4864   1.189   3.276  10.810  0.3040  0.1699 -0.0618
   62SAPC   O13 4865   1.169   3.401  10.890  0.4594  0.5423 -0.4462
   62SAPC   O14 4866   1.276   3.169  10.864 -0.1517  0.2101  0.0502
   62SAPC   O12 4867   1.057   3.206  10.787  0.4499 -0.6805  0.6557
   62SAPC   O11 4868   1.237   3.307  10.663 -0.2137  0.2312  0.3858
   62SAPC    C1 4869   1.141   3.358  10.563  0.7441  0.4223 -0.8781
   62SAPC    HA 4870   1.047   3.299  10.572  2.1952 -1.7694  1.0888
   62SAPC    HB 4871   1.109   3.461  10.589 -0.8823 -0.0065 -1.0174
   62SAPC    C2 4872   1.182   3.331  10.415 -0.2571  0.2070 -0.1992
   62SAPC    HS 4873   1.270   3.398  10.402  0.7130 -1.2309 -1.5150
   62SAPC   O21 4874   1.070   3.357  10.331 -0.9843  0.0932  0.1722
   62SAPC   C21 4875   1.111   3.429  10.229 -0.0668  0.0983  0.3878
   62SAPC   O22 4876   1.223   3.457  10.199  0.2962 -0.3481 -0.9024
   62SAPC   C22 4877   0.994   3.471  10.133 -0.2612  0.4199  0.1693
   62SAPC   H2R 4878   0.904   3.503  10.190  0.3674 -0.7286  1.8879
   62SAPC   H2S 4879   1.028   3.553  10.067 -0.6760 -1.0003 -1.9099
   62SAPC    C3 4880   1.258   3.189  10.389 -0.4014 -0.6679 -0.3994
   62SAPC    HX 4881   1.201   3.106  10.435 -1.9391  1.6575  2.2521
   62SAPC    HY 4882   1.360   3.204  10.430  0.0048  0.4990 -1.7775
   62SAPC   O31 4883   1.272   3.179  10.243 -0.8087  0.4505 -0.3123
   62SAPC   C31 4884   1.328   3.074  10.202  0.3662 -0.0596 -0.3938
   62SAPC   O32 4885   1.371   2.982  10.277 -0.4844 -0.7366  0.2158
   62SAPC   C32 4886   1.339   3.077  10.049  0.1420 -0.1423  0.3431
   62SAPC   H2X 4887   1.339   3.186  10.030  0.0852 -0.2533 -0.3372
   62SAPC   H2Y 4888   1.238   3.049  10.012  0.9278 -0.5593 -1.6008
   62SAPC   C23 4889   0.947   3.339  10.053 -0.2357  0.5470  0.3561
   62SAPC   H3R 4890   0.865   3.370   9.985 -1.0022 -1.7597  0.1212
   62SAPC   H3S 4891   0.900   3.263  10.120 -3.0831  0.4981 -1.4976
   62SAPC   C24 4892   1.043   3.262   9.961  0.4300  0.0831 -0.4240
   62SAPC   H4R 4893   0.978   3.206   9.890  0.5589  1.7386 -1.9276
   62SAPC   H4S 4894   1.096   3.192  10.029 -0.0876  1.1239  1.0891
   62SAPC   C25 4895   1.137   3.354   9.897 -0.5860 -0.3113 -0.1650
   62SAPC   H5R 4896   1.232   3.374   9.949  0.2244 -1.4237 -1.1438
   62SAPC   C26 4897   1.139   3.410   9.773  0.3475  0.3453 -0.2677
   62SAPC   H6R 4898   1.221   3.478   9.745  0.6000 -0.2306 -0.9839
   62SAPC   C27 4899   1.026   3.396   9.668  0.5815  0.1346 -1.3500
   62SAPC   H7R 4900   0.994   3.491   9.622 -1.3392  0.9995  1.4904
   62SAPC   H7S 4901   0.932   3.361   9.715  1.3246 -0.8762 -0.5506
   62SAPC   C28 4902   1.071   3.288   9.571  0.7470  0.8288  0.6765
   62SAPC   H8R 4903   1.087   3.192   9.622 -0.0482  0.4711  0.2703
   62SAPC   C29 4904   1.065   3.289   9.434  0.8983 -0.2885 -0.8617
   62SAPC   H9R 4905   1.092   3.194   9.386 -0.6315 -2.1113  1.6700
   62SAPC  C210 4906   1.022   3.408   9.347  0.2407  1.1494  0.6229
   62SAPC  H10R 4907   1.111   3.470   9.323 -0.7992  1.9626 -1.3097
   62SAPC  H10S 4908   0.950   3.465   9.409 -1.4453  1.5316 -1.5655
   62SAPC  C211 4909   0.964   3.365   9.210  0.2489  0.1656 -0.5740
   62SAPC  H11R 4910   0.889   3.285   9.208  0.0281  0.3617 -0.1600
   62SAPC  C212 4911   0.982   3.416   9.089  0.0709  0.0873  0.9752
   62SAPC  H12R 4912   0.930   3.367   9.005  0.1843 -0.4031  1.1874
   62SAPC  C213 4913   1.063   3.535   9.047  0.2512  0.0256 -0.0006
   62SAPC  H13R 4914   1.125   3.510   8.958  0.1818  2.2824 -0.7352
   62SAPC  H13S 4915   1.142   3.560   9.122  1.1528 -0.9014 -0.6098
   62SAPC  C214 4916   0.984   3.661   9.031 -0.7834 -0.1672  0.4011
   62SAPC  H14R 4917   0.963   3.714   9.125 -0.7516  0.0458  0.2883
   62SAPC  C215 4918   0.949   3.721   8.911 -0.0747  0.1396 -0.2125
   62SAPC  H15R 4919   0.871   3.798   8.904  0.1694  0.4871  0.6753
   62SAPC  C216 4920   0.991   3.658   8.781 -0.2579 -0.3391  0.0562
   62SAPC  H16R 4921   0.943   3.721   8.703 -1.3144 -2.4493 -1.0812
   62SAPC  H16S 4922   0.952   3.555   8.770 -0.2899 -0.2241 -1.0435
   62SAPC  C217 4923   1.147   3.674   8.747  1.1083 -0.0641  0.3639
   62SAPC  H17R 4924   1.210   3.612   8.815  1.0613  0.0369  0.5009
   62SAPC  H17S 4925   1.178   3.779   8.769 -2.1790  0.9347  0.6560
   62SAPC  C218 4926   1.157   3.625   8.601 -0.1185 -0.4935  0.6706
   62SAPC  H18R 4927   1.133   3.703   8.526  0.0247  0.6821  1.7976
   62SAPC  H18S 4928   1.091   3.539   8.579 -3.0198  2.2181 -2.2122
   62SAPC  C219 4929   1.299   3.590   8.554 -0.4177  0.7310  0.3138
   62SAPC  H19R 4930   1.338   3.508   8.618  0.5156 -1.2750 -2.6287
   62SAPC  H19S 4931   1.377   3.669   8.552  0.6426 -0.2961  0.1917
   62SAPC  C220 4932   1.299   3.540   8.410  0.1214 -0.1886 -0.0685
   62SAPC  H20R 4933   1.229   3.591   8.340  1.7277  1.5030 -0.5096
   62SAPC  H20S 4934   1.271   3.433   8.420 -0.8346  0.1298  0.8962
   62SAPC  H20T 4935   1.397   3.557   8.361  0.6140  1.4548  1.4077
   62SAPC   C33 4936   1.450   2.995   9.996  0.2694 -0.0907  0.0162
   62SAPC   H3X 4937   1.435   2.887  10.016  1.2543  0.0054  1.3611
   62SAPC   H3Y 4938   1.547   3.028  10.038  0.3126 -1.0971  0.7152
   62SAPC   C34 4939   1.460   3.005   9.843  0.0658  0.5177 -0.3952
   62SAPC   H4X 4940   1.376   2.945   9.801  2.3517 -2.3867 -1.1190
   62SAPC   H4Y 4941   1.555   2.956   9.813 -0.1012  0.8910 -1.6297
   62SAPC   C35 4942   1.464   3.146   9.786  0.4934 -0.3253 -0.0805
   62SAPC   H5X 4943   1.536   3.203   9.849  0.0324 -1.8000  1.9046
   62SAPC   H5Y 4944   1.363   3.189   9.806 -0.5195 -1.6050 -2.1412
   62SAPC   C36 4945   1.496   3.153   9.636 -1.7467 -0.2213  0.0272
   62SAPC   H6X 4946   1.595   3.104   9.626 -1.6970  0.0200 -0.7169
   62SAPC   H6Y 4947   1.501   3.260   9.607 -1.9375  0.1191  1.1818
   62SAPC   C37 4948   1.405   3.070   9.537  0.7022 -0.1804 -0.7118
   62SAPC   H7X 4949   1.300   3.108   9.540  1.1889  1.2097 -0.7312
   62SAPC   H7Y 4950   1.388   2.966   9.574 -1.0478  0.5382  0.6462
   62SAPC   C38 4951   1.459   3.061   9.394 -0.1916 -0.7156 -0.2269
   62SAPC   H8X 4952   1.459   2.954   9.363  1.5260 -0.2492 -2.0561
   62SAPC   H8Y 4953   1.559   3.108   9.380 -0.4515 -0.7721 -2.8384
   62SAPC   C39 4954   1.365   3.143   9.302  0.2119 -1.0181  0.1903
   62SAPC   H9X 4955   1.368   3.248   9.338 -0.5511 -0.7541 -0.5010
   62SAPC   H9Y 4956   1.261   3.109   9.319 -0.2395  1.1401  2.3813
   62SAPC  C310 4957   1.397   3.137   9.153  0.1304  0.7749  0.1531
   62SAPC  H10X 4958   1.395   3.028   9.132 -1.3208  0.3761  2.0163
   62SAPC  H10Y 4959   1.501   3.171   9.133 -0.6841  1.7769 -2.9377
   62SAPC  C311 4960   1.303   3.208   9.063 -0.0377 -0.1530  0.0819
   62SAPC  H11X 4961   1.336   3.313   9.053  1.7662 -0.6475  0.4228
   62SAPC  H11Y 4962   1.202   3.194   9.108 -0.7433  0.2606 -1.3421
   62SAPC  C312 4963   1.284   3.154   8.921 -0.0071 -0.1451  0.1677
   62SAPC  H12X 4964   1.260   3.045   8.918 -1.9752  0.2636 -1.2577
   62SAPC  H12Y 4965   1.381   3.165   8.867  1.2929  1.3394  2.6492
   62SAPC  C313 4966   1.169   3.220   8.837 -0.6195 -0.4017  0.5017
   62SAPC  H13X 4967   1.187   3.328   8.819 -2.8897  0.1714  1.2900
   62SAPC  H13Y 4968   1.074   3.204   8.893  0.0631 -1.2656  1.4521
   62SAPC  C314 4969   1.142   3.142   8.705  0.1633  0.6628  0.0178
   62SAPC  H14X 4970   1.129   3.035   8.730  1.8634  0.0803 -1.4125
   62SAPC  H14Y 4971   1.239   3.143   8.651  1.1827 -0.7490  1.7142
   62SAPC  C315 4972   1.027   3.192   8.616 -0.5504 -0.0451 -0.2516
   62SAPC  H15X 4973   1.053   3.295   8.582  1.4352  0.6014  2.8132
   62SAPC  H15Y 4974   0.946   3.188   8.692 -0.1869 -0.1474  0.1337
   62SAPC  C316 4975   0.995   3.108   8.491 -0.5123  0.1300 -0.4632
   62SAPC  H16X 4976   0.889   3.135   8.471 -1.0850 -2.0793 -0.7917
   62SAPC  H16Y 4977   0.974   3.002   8.519 -2.7243  0.4237 -0.8272
   62SAPC  C317 4978   1.084   3.137   8.372 -0.3054 -0.4283 -0.1607
   62SAPC  H17X 4979   1.190   3.108   8.385  0.5885  2.5874  0.0183
   62SAPC  H17Y 4980   1.088   3.247   8.360  0.0106 -0.5825 -1.5578
   62SAPC  C318 4981   1.052   3.074   8.235  1.0104  0.0885 -0.2516
   62SAPC  H18X 4982   0.961   3.121   8.190  0.5552 -0.5977 -0.0565
   62SAPC  H18Y 4983   1.039   2.964   8.237  1.4787 -0.0150 -1.6128
   62SAPC  H18Z 4984   1.146   3.084   8.178  0.5107 -1.1374 -1.3520
   63SAPC     N 4985   4.879   1.042   6.013  0.3812  0.3548  0.2984
   63SAPC   C12 4986   4.815   1.160   6.080 -0.2610  0.2287 -0.6306
   63SAPC  H12A 4987   4.709   1.148   6.063 -0.3460  1.3864 -1.0669
   63SAPC  H12B 4988   4.845   1.251   6.030 -0.5565  0.3521 -0.5814
   63SAPC   C13 4989   4.880   1.076   5.868  0.1002  0.2249  0.3977
   63SAPC  H13A 4990   4.785   1.099   5.821 -0.5577 -1.2230  0.9824
   63SAPC  H13B 4991   4.949   1.158   5.852  0.6545 -0.6317 -2.1640
   63SAPC  H13C 4992   4.923   1.001   5.804 -0.9323  0.6329 -0.8391
   63SAPC   C14 4993   5.015   1.008   6.071  0.1923  0.1629  0.1525
   63SAPC  H14A 4994   5.054   0.928   6.009 -0.2274  0.5181 -0.5757
   63SAPC  H14B 4995   5.083   1.092   6.062  0.4768  0.2943  2.6946
   63SAPC  H14C 4996   5.012   0.987   6.177  1.6807  0.2335  0.2348
   63SAPC   C15 4997   4.789   0.920   6.035 -0.1988 -0.5168  0.8532
   63SAPC  H15A 4998   4.779   0.907   6.142 -2.0447  1.7477  1.0302
   63SAPC  H15B 4999   4.693   0.932   5.987  0.1411 -1.0256  0.0056
   63SAPC  H15C 5000   4.829   0.829   5.991  0.7059  0.7280 -1.0314
   63SAPC   C11 5001   4.835   1.170   6.234 -0.5659  0.5342  0.0606
   63SAPC  H11A 5002   4.800   1.272   6.259  2.2263  1.0968  2.1255
   63SAPC  H11B 5003   4.943   1.168   6.259 -0.5472 -1.5078 -0.0255
   63SAPC     P 5004   4.811   0.951   6.389 -0.0608  0.0089  0.4711
   63SAPC   O13 5005   4.761   0.825   6.325  0.4269  0.0070 -0.2600
   63SAPC   O14 5006   4.958   0.954   6.407  0.1966 -0.2467  0.3745
   63SAPC   O12 5007   4.762   1.072   6.306  1.5689  0.5481  0.0474
   63SAPC   O11 5008   4.746   0.978   6.527 -0.5034  0.3027  0.0667
   63SAPC    C1 5009   4.605   0.976   6.543  0.5033 -0.0793 -0.3208
   63SAPC    HA 5010   4.555   1.046   6.472 -2.6576  0.3282  2.0868
   63SAPC    HB 5011   4.564   0.874   6.531  0.4941 -0.3019  1.3203
   63SAPC    C2 5012   4.574   1.025   6.684  0.7719 -0.1985 -0.6790
   63SAPC    HS 5013   4.471   1.067   6.692  1.0137  0.3563 -0.4373
   63SAPC   O21 5014   4.664   1.122   6.743 -0.6846 -0.7097  0.0686
   63SAPC   C21 5015   4.661   1.237   6.678 -0.0836  0.2611 -0.3558
   63SAPC   O22 5016   4.579   1.268   6.591 -0.0764 -0.0379  0.3154
   63SAPC   C22 5017   4.748   1.344   6.742  0.0336  0.4264  0.3304
   63SAPC   H2R 5018   4.806   1.312   6.831  3.5731  2.6861 -0.9133
   63SAPC   H2S 5019   4.824   1.355   6.661 -0.4380 -0.8681 -0.3011
   63SAPC    C3 5020   4.571   0.887   6.770  0.2978  0.4512  0.0534
   63SAPC    HX 5021   4.667   0.837   6.744 -0.1747 -0.5950  0.2537
   63SAPC    HY 5022   4.486   0.819   6.747 -0.2146  1.2559 -0.4616
   63SAPC   O31 5023   4.587   0.923   6.913  0.1730  0.1785  0.4871
   63SAPC   C31 5024   4.471   0.973   6.969 -0.5401  0.2910  0.1264
   63SAPC   O32 5025   4.369   0.993   6.904 -0.3025  0.1750  0.2192
   63SAPC   C32 5026   4.487   0.981   7.117  0.8277  0.2824  0.1097
   63SAPC   H2X 5027   4.480   0.879   7.159 -1.1005  0.8668  1.3285
   63SAPC   H2Y 5028   4.389   1.021   7.150 -0.4404 -1.8644 -0.8628
   63SAPC   C23 5029   4.669   1.471   6.759 -0.1376 -0.6856 -0.6479
   63SAPC   H3R 5030   4.635   1.503   6.659 -2.4835 -2.1473 -0.3922
   63SAPC   H3S 5031   4.737   1.546   6.804 -0.7192 -1.0462  0.9080
   63SAPC   C24 5032   4.534   1.469   6.834  0.0170 -0.5506 -0.1883
   63SAPC   H4R 5033   4.539   1.412   6.929 -0.4138  0.3837  0.3975
   63SAPC   H4S 5034   4.454   1.431   6.766 -1.0479  2.6571 -0.8632
   63SAPC   C25 5035   4.497   1.610   6.869 -0.0323 -0.0853  0.6025
   63SAPC   H5R 5036   4.437   1.668   6.797  1.1085 -0.7941 -0.9614
   63SAPC   C26 5037   4.540   1.669   6.978 -0.6059 -0.0200 -0.0154
   63SAPC   H6R 5038   4.521   1.774   7.006  0.4193  0.5145 -1.2101
   63SAPC   C27 5039   4.633   1.600   7.077 -0.0338 -0.6594  0.3301
   63SAPC   H7R 5040   4.684   1.684   7.129  2.4088 -0.3911 -2.2546
   63SAPC   H7S 5041   4.715   1.536   7.037 -0.8684 -1.4473 -0.1539
   63SAPC   C28 5042   4.560   1.516   7.179 -0.5355  0.5772 -0.5961
   63SAPC   H8R 5043   4.485   1.452   7.131  1.4643 -0.3541 -2.6545
   63SAPC   C29 5044   4.575   1.512   7.312  0.2621  0.4205 -0.3087
   63SAPC   H9R 5045   4.514   1.442   7.370  1.9908 -0.1691  0.8739
   63SAPC  C210 5046   4.685   1.587   7.384 -0.0905  0.2108  0.7491
   63SAPC  H10R 5047   4.645   1.671   7.444  1.7876  1.2470  0.6076
   63SAPC  H10S 5048   4.751   1.641   7.314  1.2660 -1.6069  0.5394
   63SAPC  C211 5049   4.773   1.509   7.473 -0.3795  0.6767 -0.5517
   63SAPC  H11R 5050   4.878   1.485   7.451 -0.9148 -0.5246 -1.9760
   63SAPC  C212 5051   4.734   1.478   7.600  0.1312 -0.2238  0.0481
   63SAPC  H12R 5052   4.796   1.403   7.652  0.8315 -0.2880 -0.8540
   63SAPC  C213 5053   4.610   1.512   7.675 -0.1099 -0.3082 -0.1866
   63SAPC  H13R 5054   4.546   1.565   7.601  2.3191  0.2279 -2.0509
   63SAPC  H13S 5055   4.630   1.588   7.753 -2.4778  1.2571 -0.9927
   63SAPC  C214 5056   4.546   1.389   7.725  0.1344  0.0157  0.5648
   63SAPC  H14R 5057   4.515   1.327   7.640 -0.8010 -0.8801  1.5267
   63SAPC  C215 5058   4.511   1.358   7.849 -0.3505 -0.7854 -0.0266
   63SAPC  H15R 5059   4.458   1.265   7.877 -2.1424  0.8429  2.4224
   63SAPC  C216 5060   4.531   1.448   7.967  0.2242 -0.3304  0.7234
   63SAPC  H16R 5061   4.471   1.541   7.958  0.4661 -0.2539 -0.1383
   63SAPC  H16S 5062   4.636   1.482   7.951  0.6073 -2.6723 -2.8981
   63SAPC  C217 5063   4.502   1.395   8.109  0.3035 -0.0126  0.6890
   63SAPC  H17R 5064   4.546   1.293   8.116  0.2440 -0.1139 -0.3088
   63SAPC  H17S 5065   4.394   1.375   8.121  0.4352 -0.9085  0.4770
   63SAPC  C218 5066   4.558   1.479   8.221 -1.2769  0.4111  0.1098
   63SAPC  H18R 5067   4.508   1.577   8.201 -1.4168  0.0045 -1.6736
   63SAPC  H18S 5068   4.668   1.493   8.210 -0.6573 -3.5395  0.0017
   63SAPC  C219 5069   4.530   1.423   8.364 -0.9713 -0.0370  0.3474
   63SAPC  H19R 5070   4.591   1.331   8.383 -1.5952 -0.6091 -0.3530
   63SAPC  H19S 5071   4.425   1.387   8.368 -0.3451 -2.1052 -0.4708
   63SAPC  C220 5072   4.575   1.525   8.464 -0.3113 -0.4532  0.4913
   63SAPC  H20R 5073   4.503   1.609   8.472  1.1605  0.7786  1.4160
   63SAPC  H20S 5074   4.673   1.570   8.437 -0.9592  0.8338  0.2146
   63SAPC  H20T 5075   4.579   1.474   8.562  0.8072 -0.0881  0.6587
   63SAPC   C33 5076   4.598   1.073   7.178  0.5783 -0.0211  0.2201
   63SAPC   H3X 5077   4.601   1.171   7.126  2.5504 -0.0840  0.1482
   63SAPC   H3Y 5078   4.700   1.032   7.161  0.0039 -1.0491 -0.9297
   63SAPC   C34 5079   4.584   1.088   7.331 -0.1712 -0.1694 -0.8327
   63SAPC   H4X 5080   4.492   1.042   7.373 -0.3605  0.7489 -0.2169
   63SAPC   H4Y 5081   4.583   1.197   7.351 -1.7360 -0.4587  0.9666
   63SAPC   C35 5082   4.700   1.044   7.423  0.5760  0.5117  0.0255
   63SAPC   H5X 5083   4.791   1.096   7.385  0.1911  0.9006 -0.3718
   63SAPC   H5Y 5084   4.711   0.934   7.433  1.3147  0.5942  0.1835
   63SAPC   C36 5085   4.675   1.086   7.569 -0.0661 -0.1746 -0.4000
   63SAPC   H6X 5086   4.590   1.029   7.611  0.5838 -0.3573  0.6870
   63SAPC   H6Y 5087   4.670   1.197   7.571  2.8829  0.0230  0.0819
   63SAPC   C37 5088   4.788   1.059   7.677 -0.2682 -0.3558  0.3060
   63SAPC   H7X 5089   4.881   1.110   7.645 -0.4824 -0.7887 -1.1136
   63SAPC   H7Y 5090   4.808   0.950   7.667 -1.5551 -0.6819  1.1413
   63SAPC   C38 5091   4.752   1.117   7.812 -0.7377 -0.1846  0.1024
   63SAPC   H8X 5092   4.659   1.069   7.852 -1.4093 -2.3425 -3.6201
   63SAPC   H8Y 5093   4.756   1.227   7.797  2.6069 -0.1087  0.8969
   63SAPC   C39 5094   4.856   1.081   7.930  0.3337  0.7135 -0.3095
   63SAPC   H9X 5095   4.959   1.082   7.888 -0.3272 -0.5254 -2.0891
   63SAPC   H9Y 5096   4.822   0.979   7.956  0.8944  0.1714 -1.5782
   63SAPC  C310 5097   4.854   1.173   8.047  0.3022  0.1060  0.2374
   63SAPC  H10X 5098   4.746   1.171   8.070  0.5530 -0.4899  1.4295
   63SAPC  H10Y 5099   4.896   1.273   8.021  0.7735  0.1554  1.1483
   63SAPC  C311 5100   4.947   1.121   8.159  0.4705 -0.2382 -0.4399
   63SAPC  H11X 5101   5.049   1.107   8.116  0.6706  0.5368 -0.2310
   63SAPC  H11Y 5102   4.921   1.022   8.201 -0.1383  0.4145  0.7512
   63SAPC  C312 5103   4.965   1.218   8.274  0.2610 -0.4446 -0.0936
   63SAPC  H12X 5104   5.003   1.161   8.362 -0.9403  0.4760  1.0792
   63SAPC  H12Y 5105   4.865   1.258   8.301 -0.4570 -1.1758 -1.5702
   63SAPC  C313 5106   5.044   1.344   8.234 -0.0286 -0.8400 -0.7055
   63SAPC  H13X 5107   4.993   1.411   8.161  0.1385  0.7657  0.5983
   63SAPC  H13Y 5108   5.133   1.300   8.184  1.3763  2.2455 -1.1232
   63SAPC  C314 5109   5.080   1.429   8.354  0.2638 -0.4637  0.6396
   63SAPC  H14X 5110   5.135   1.517   8.315  0.7793 -0.7568  0.7105
   63SAPC  H14Y 5111   5.141   1.363   8.418  0.3650 -0.4586  0.5486
   63SAPC  C315 5112   4.967   1.479   8.442 -0.2139 -0.0180  0.0469
   63SAPC  H15X 5113   4.921   1.390   8.490  1.0221 -1.0557 -0.6222
   63SAPC  H15Y 5114   4.887   1.530   8.385  0.1984 -0.5546 -1.0316
   63SAPC  C316 5115   5.019   1.579   8.543  0.2156  0.4460  0.3034
   63SAPC  H16X 5116   5.040   1.673   8.487  0.0731  0.1954 -0.1728
   63SAPC  H16Y 5117   5.106   1.523   8.584 -1.3847 -2.4531  0.0237
   63SAPC  C317 5118   4.920   1.613   8.655  0.2239 -0.2939  0.7298
   63SAPC  H17X 5119   4.873   1.522   8.697 -2.1363  2.0215  3.4996
   63SAPC  H17Y 5120   4.831   1.667   8.617 -1.0085 -1.7011  1.5178
   63SAPC  C318 5121   4.968   1.694   8.778  0.2449  0.0448 -0.1146
   63SAPC  H18X 5122   5.065   1.663   8.822  0.2942  0.1552 -0.1457
   63SAPC  H18Y 5123   4.888   1.679   8.854 -1.2615  1.0125 -1.4458
   63SAPC  H18Z 5124   4.987   1.799   8.750  0.2315  0.0459 -0.1201
   64SAPC     N 5125   0.999   2.043   6.222  0.2918  0.0410 -0.1977
   64SAPC   C12 5126   1.091   1.925   6.237 -0.4135  0.9847 -0.5377
   64SAPC  H12A 5127   1.185   1.964   6.272  0.5643  0.7548 -2.7362
   64SAPC  H12B 5128   1.112   1.877   6.143  0.6515  0.4494 -0.0420
   64SAPC   C13 5129   1.062   2.155   6.136 -1.0903  0.1852 -0.3143
   64SAPC  H13A 5130   0.996   2.239   6.118  1.0629  2.2895  0.9381
   64SAPC  H13B 5131   1.146   2.194   6.190 -1.8354  1.7572 -0.2198
   64SAPC  H13C 5132   1.101   2.128   6.039 -1.4202 -0.8486 -0.1663
   64SAPC   C14 5133   0.872   2.001   6.159  0.0359  0.1485 -0.4951
   64SAPC  H14A 5134   0.822   1.928   6.220 -0.1918  1.8368  1.4290
   64SAPC  H14B 5135   0.801   2.080   6.139  0.5253  1.3112  2.0250
   64SAPC  H14C 5136   0.895   1.959   6.062 -0.2436 -0.5929 -0.2481
   64SAPC   C15 5137   0.962   2.119   6.356 -0.5691  0.2850  0.1856
   64SAPC  H15A 5138   1.048   2.178   6.384 -0.4556  0.8950 -1.3248
   64SAPC  H15B 5139   0.886   2.194   6.340  0.5450  1.3169 -0.5196
   64SAPC  H15C 5140   0.933   2.047   6.431  1.3303 -1.1606 -0.3835
   64SAPC   C11 5141   1.039   1.812   6.328 -0.1795  0.3093  0.2208
   64SAPC  H11A 5142   1.027   1.844   6.433 -0.2225 -1.5855  0.8321
   64SAPC  H11B 5143   1.127   1.745   6.339 -0.5242 -0.3353 -0.8485
   64SAPC     P 5144   0.952   1.620   6.181  0.1434 -0.1646 -0.3017
   64SAPC   O13 5145   0.834   1.584   6.100  0.3305 -0.2447 -0.6044
   64SAPC   O14 5146   1.085   1.608   6.114  0.5402  0.4441 -0.1141
   64SAPC   O12 5147   0.920   1.759   6.267 -0.2923  0.2715 -0.1723
   64SAPC   O11 5148   0.976   1.518   6.301 -0.2181 -0.3506 -0.1803
   64SAPC    C1 5149   0.867   1.477   6.387 -0.7669 -0.7725 -0.5278
   64SAPC    HA 5150   0.795   1.559   6.409 -1.4994 -1.1296 -1.5604
   64SAPC    HB 5151   0.807   1.401   6.335  0.4446 -0.1785 -2.9436
   64SAPC    C2 5152   0.918   1.434   6.521 -0.0559 -0.0554 -0.0803
   64SAPC    HS 5153   1.003   1.363   6.509  0.3293  0.4487 -0.4130
   64SAPC   O21 5154   0.808   1.380   6.603  0.3013 -0.1378 -0.3979
   64SAPC   C21 5155   0.809   1.253   6.596 -0.2849  0.6273 -0.4576
   64SAPC   O22 5156   0.848   1.180   6.505 -0.0009 -0.2004  0.3022
   64SAPC   C22 5157   0.749   1.203   6.728 -0.4478  0.5895 -0.0728
   64SAPC   H2R 5158   0.838   1.174   6.787  1.2173  0.6437 -2.3898
   64SAPC   H2S 5159   0.698   1.286   6.781  2.0310 -0.1627  3.8361
   64SAPC    C3 5160   0.988   1.560   6.588 -0.1029  0.5441  0.2626
   64SAPC    HX 5161   0.913   1.642   6.591 -0.9937 -0.2460  0.1838
   64SAPC    HY 5162   1.068   1.598   6.522  1.8081 -1.4738  1.2880
   64SAPC   O31 5163   1.031   1.520   6.720  0.0528  0.3523  0.1955
   64SAPC   C31 5164   1.140   1.453   6.729 -0.3361  0.8248 -0.1121
   64SAPC   O32 5165   1.216   1.422   6.641 -0.6504  0.3785  0.0611
   64SAPC   C32 5166   1.155   1.429   6.881 -0.3382  0.8062 -1.0475
   64SAPC   H2X 5167   1.124   1.515   6.945 -3.6513 -1.0250  0.0308
   64SAPC   H2Y 5168   1.259   1.399   6.905 -0.4892  0.1000 -1.2658
   64SAPC   C23 5169   0.656   1.074   6.718 -0.2540 -0.2922  0.3668
   64SAPC   H3R 5170   0.712   1.000   6.657  2.1768 -0.1093  2.2702
   64SAPC   H3S 5171   0.560   1.106   6.672  0.2239  1.5487  0.5928
   64SAPC   C24 5172   0.630   1.019   6.861  0.6105 -0.0142 -0.4075
   64SAPC   H4R 5173   0.552   0.942   6.841  1.8452 -1.6538  0.9108
   64SAPC   H4S 5174   0.588   1.098   6.927 -0.2680 -0.7634 -0.0500
   64SAPC   C25 5175   0.748   0.959   6.918  0.0976 -0.2696  0.4606
   64SAPC   H5R 5176   0.835   0.968   6.850 -1.1401 -1.0924 -1.3260
   64SAPC   C26 5177   0.757   0.892   7.034  0.3347  0.5159 -0.0451
   64SAPC   H6R 5178   0.853   0.842   7.051  0.5050  0.6829 -0.5020
   64SAPC   C27 5179   0.641   0.856   7.125  0.9601 -0.2733  0.1156
   64SAPC   H7R 5180   0.571   0.789   7.073 -0.4734 -0.3111  1.9964
   64SAPC   H7S 5181   0.587   0.946   7.161  2.0130  0.0549  0.9281
   64SAPC   C28 5182   0.687   0.783   7.246  0.1215  0.0056  0.0608
   64SAPC   H8R 5183   0.763   0.706   7.227  1.0132 -0.0048  3.1342
   64SAPC   C29 5184   0.646   0.775   7.369 -0.2920  0.1502  0.5100
   64SAPC   H9R 5185   0.688   0.699   7.437 -1.8516 -1.4565 -0.2294
   64SAPC  C210 5186   0.522   0.849   7.423 -0.5009 -0.6501 -0.6801
   64SAPC  H10R 5187   0.469   0.782   7.493  1.6396  0.3763  2.0896
   64SAPC  H10S 5188   0.440   0.860   7.348 -3.7825 -0.0188  2.6813
   64SAPC  C211 5189   0.567   0.981   7.483 -0.0886  0.2390 -0.0877
   64SAPC  H11R 5190   0.615   1.057   7.420 -2.3291  1.7973 -0.0185
   64SAPC  C212 5191   0.553   1.017   7.607 -1.0125 -0.4096 -0.3199
   64SAPC  H12R 5192   0.582   1.111   7.656 -0.8514 -0.0376 -1.1234
   64SAPC  C213 5193   0.471   0.927   7.703  0.5944 -0.3435 -0.0369
   64SAPC  H13R 5194   0.491   0.819   7.685 -0.1433 -0.5914  0.5681
   64SAPC  H13S 5195   0.365   0.948   7.677  0.4271  0.4773  1.1900
   64SAPC  C214 5196   0.489   0.956   7.850 -0.4676 -0.4675 -0.5710
   64SAPC  H14R 5197   0.420   1.028   7.897  0.7148 -0.6483  1.5986
   64SAPC  C215 5198   0.594   0.911   7.928  0.2824 -0.1347  0.0007
   64SAPC  H15R 5199   0.613   0.953   8.028  1.1879 -2.7622  1.0174
   64SAPC  C216 5200   0.710   0.820   7.890 -0.9921  0.4898 -0.3682
   64SAPC  H16R 5201   0.795   0.891   7.880 -1.5104  1.2314  0.3527
   64SAPC  H16S 5202   0.700   0.775   7.789  0.7203  1.5981 -1.0804
   64SAPC  C217 5203   0.755   0.693   7.974  0.3385 -0.6071 -0.2374
   64SAPC  H17R 5204   0.848   0.646   7.937  0.7400 -1.4470  1.7437
   64SAPC  H17S 5205   0.674   0.617   7.974  0.2663 -0.5474 -1.4621
   64SAPC  C218 5206   0.781   0.725   8.126 -0.3265 -0.0959  0.0046
   64SAPC  H18R 5207   0.828   0.632   8.164 -1.6989 -0.7430  0.1753
   64SAPC  H18S 5208   0.682   0.740   8.174 -0.9661  2.1300 -1.8138
   64SAPC  C219 5209   0.873   0.843   8.155 -0.6394 -0.7116  0.0232
   64SAPC  H19R 5210   0.827   0.936   8.115 -2.7504 -2.0668 -0.8420
   64SAPC  H19S 5211   0.971   0.827   8.106 -1.8064  0.0339 -2.7162
   64SAPC  C220 5212   0.909   0.859   8.307 -0.0051  0.1792  0.5312
   64SAPC  H20R 5213   0.983   0.938   8.336 -0.6581  0.1475  2.4309
   64SAPC  H20S 5214   0.947   0.764   8.351 -0.6258  0.1777  1.0839
   64SAPC  H20T 5215   0.810   0.872   8.355 -1.6870 -1.2289 -2.3379
   64SAPC   C33 5216   1.059   1.314   6.936  0.0438 -0.2404 -0.0459
   64SAPC   H3X 5217   1.059   1.240   6.853  1.1143  2.5569 -2.7158
   64SAPC   H3Y 5218   0.953   1.349   6.930 -0.2650 -1.2574 -1.0172
   64SAPC   C34 5219   1.079   1.263   7.080  0.4403  0.8229 -0.3204
   64SAPC   H4X 5220   0.998   1.286   7.152  0.3064  0.3050 -0.3057
   64SAPC   H4Y 5221   1.168   1.316   7.121  0.8380  0.9209 -1.2657
   64SAPC   C35 5222   1.101   1.113   7.090  0.4919 -0.3538  0.3985
   64SAPC   H5X 5223   1.178   1.079   7.018  1.4014  1.4182  0.4982
   64SAPC   H5Y 5224   1.007   1.065   7.053  0.4148  0.2003 -0.1514
   64SAPC   C36 5225   1.134   1.062   7.228 -0.8204 -0.1195 -0.3493
   64SAPC   H6X 5226   1.236   1.102   7.243 -0.7823 -0.2219 -0.3333
   64SAPC   H6Y 5227   1.130   0.951   7.232 -0.3195 -0.1132  0.4559
   64SAPC   C37 5228   1.047   1.122   7.342 -0.0771 -0.6016 -0.0659
   64SAPC   H7X 5229   0.941   1.099   7.314 -0.8703  0.4151  1.9063
   64SAPC   H7Y 5230   1.048   1.233   7.348  1.0684 -0.3660 -2.9315
   64SAPC   C38 5231   1.094   1.067   7.473 -0.9089 -0.7140  0.3863
   64SAPC   H8X 5232   1.200   1.093   7.495 -0.6191 -1.8107  0.3490
   64SAPC   H8Y 5233   1.082   0.957   7.469 -2.9456 -0.5094 -2.7355
   64SAPC   C39 5234   0.999   1.108   7.589 -0.2380 -0.2962 -0.0626
   64SAPC   H9X 5235   0.909   1.049   7.561  1.0406 -1.5818 -1.6265
   64SAPC   H9Y 5236   0.969   1.215   7.585 -2.2609 -0.6049  3.3556
   64SAPC  C310 5237   1.052   1.089   7.727  0.3073 -0.4450 -0.6401
   64SAPC  H10X 5238   1.153   1.137   7.725 -0.5223  1.4001 -0.5910
   64SAPC  H10Y 5239   1.056   0.982   7.756  2.3936  0.3797  2.5762
   64SAPC  C311 5240   0.973   1.166   7.836 -0.2523  0.7710  0.8660
   64SAPC  H11X 5241   0.873   1.118   7.845  0.0071 -0.2001 -1.0052
   64SAPC  H11Y 5242   0.951   1.270   7.803  0.2937  0.7575  0.4503
   64SAPC  C312 5243   1.050   1.183   7.964 -0.2749 -0.3120  0.3613
   64SAPC  H12X 5244   1.140   1.243   7.936  0.3589 -0.8036  1.2826
   64SAPC  H12Y 5245   1.088   1.087   8.004  1.4357  0.6935  1.3023
   64SAPC  C313 5246   0.978   1.258   8.072  0.0551 -0.6075  0.0147
   64SAPC  H13X 5247   0.900   1.187   8.109  0.2753 -2.1602 -2.3131
   64SAPC  H13Y 5248   0.918   1.344   8.033 -0.4024 -1.0577 -0.2915
   64SAPC  C314 5249   1.076   1.301   8.191  0.0012 -0.4294  1.0560
   64SAPC  H14X 5250   1.144   1.377   8.146  1.9456 -2.4541  0.3367
   64SAPC  H14Y 5251   1.143   1.216   8.217  1.0382  1.0303  3.5036
   64SAPC  C315 5252   0.995   1.351   8.304 -0.0434  0.3796 -0.2375
   64SAPC  H15X 5253   1.052   1.325   8.395  1.1480 -2.1750 -1.6189
   64SAPC  H15Y 5254   0.902   1.292   8.318 -1.7763  2.8218 -0.6967
   64SAPC  C316 5255   0.955   1.495   8.293  0.0273 -0.3857 -0.1332
   64SAPC  H16X 5256   0.909   1.525   8.197 -1.0925 -1.5313  0.0201
   64SAPC  H16Y 5257   1.037   1.568   8.311 -0.3388 -0.5336  2.5261
   64SAPC  C317 5258   0.856   1.545   8.399  0.0075 -0.4781  0.3806
   64SAPC  H17X 5259   0.858   1.491   8.496  1.4987 -0.8180  0.1852
   64SAPC  H17Y 5260   0.750   1.531   8.368  0.2662 -0.2202 -0.6585
   64SAPC  C318 5261   0.865   1.693   8.424  0.7755  0.6254  0.1209
   64SAPC  H18X 5262   0.956   1.711   8.485 -2.2346  0.5781  5.2260
   64SAPC  H18Y 5263   0.777   1.734   8.478 -0.3204  1.2940 -2.0730
   64SAPC  H18Z 5264   0.862   1.735   8.321 -2.7503 -1.6350 -0.9040
   65SAPC     N 5265   0.500   2.645   5.988  0.6068 -0.3981 -0.2205
   65SAPC   C12 5266   0.485   2.603   6.130  0.0345 -0.5381 -0.0729
   65SAPC  H12A 5267   0.499   2.695   6.185 -0.5741  0.3585 -1.3701
   65SAPC  H12B 5268   0.568   2.538   6.155  0.6634  0.5189  0.6540
   65SAPC   C13 5269   0.484   2.523   5.895  1.0378  0.2140 -0.4076
   65SAPC  H13A 5270   0.385   2.480   5.888  1.6768 -1.4228  0.1292
   65SAPC  H13B 5271   0.514   2.555   5.797 -0.3666  0.8531 -0.6672
   65SAPC  H13C 5272   0.559   2.448   5.915 -0.0494 -0.6328  0.6320
   65SAPC   C14 5273   0.402   2.752   5.950 -0.6696  0.2231  0.0448
   65SAPC  H14A 5274   0.427   2.839   6.010 -1.6743  1.8967 -1.8246
   65SAPC  H14B 5275   0.409   2.761   5.843  0.3368 -1.7071 -0.0955
   65SAPC  H14C 5276   0.308   2.706   5.979 -1.0878  0.2040 -1.2986
   65SAPC   C15 5277   0.642   2.691   5.970 -0.3598 -0.7529  0.2193
   65SAPC  H15A 5278   0.716   2.613   5.974 -1.9825 -2.3174  0.9038
   65SAPC  H15B 5279   0.666   2.739   5.876  0.0536 -0.8680  0.2650
   65SAPC  H15C 5280   0.672   2.768   6.039  0.2194  1.1440 -2.0260
   65SAPC   C11 5281   0.358   2.553   6.189  0.1546  0.1716  0.1372
   65SAPC  H11A 5282   0.384   2.498   6.282  0.7476 -1.7079 -1.0772
   65SAPC  H11B 5283   0.307   2.477   6.126  1.0409  0.4127 -0.9025
   65SAPC     P 5284   0.282   2.788   6.295 -0.1322 -0.2698 -0.2183
   65SAPC   O13 5285   0.383   2.883   6.251  0.0653 -0.2963 -0.2465
   65SAPC   O14 5286   0.146   2.841   6.320 -0.1042 -0.2045  1.0275
   65SAPC   O12 5287   0.272   2.660   6.206 -0.5509  0.2692 -0.2183
   65SAPC   O11 5288   0.328   2.733   6.432  0.7570 -0.2024  0.0882
   65SAPC    C1 5289   0.260   2.615   6.480  0.5717 -0.3882 -0.3902
   65SAPC    HA 5290   0.156   2.604   6.442  0.4284  0.7230 -0.3387
   65SAPC    HB 5291   0.322   2.525   6.457  0.1294 -0.9991  0.7491
   65SAPC    C2 5292   0.235   2.619   6.633 -0.2244  0.0295 -0.1622
   65SAPC    HS 5293   0.187   2.524   6.662  1.4671 -0.3529  1.6590
   65SAPC   O21 5294   0.155   2.736   6.676  0.5214 -0.2180  0.1632
   65SAPC   C21 5295   0.035   2.714   6.644 -0.0100  0.1626  0.3798
   65SAPC   O22 5296  -0.013   2.609   6.610  0.0797 -0.5450  0.5943
   65SAPC   C22 5297  -0.051   2.843   6.665  0.4180  0.1507 -0.9672
   65SAPC   H2R 5298   0.009   2.920   6.718  2.1979  0.2375 -2.9427
   65SAPC   H2S 5299  -0.073   2.883   6.564 -0.0232  0.0508 -0.9135
   65SAPC    C3 5300   0.368   2.622   6.711  0.1441 -0.2112 -0.9493
   65SAPC    HX 5301   0.442   2.684   6.658 -0.4886  1.1568 -0.2762
   65SAPC    HY 5302   0.404   2.517   6.700 -0.8898 -1.6165  5.1443
   65SAPC   O31 5303   0.364   2.654   6.852 -0.0323 -0.2015 -0.3118
   65SAPC   C31 5304   0.374   2.780   6.887 -0.3738 -0.5832  0.1317
   65SAPC   O32 5305   0.405   2.874   6.813 -0.0919  0.0281 -0.2246
   65SAPC   C32 5306   0.329   2.796   7.031  0.5540 -0.7899  0.3948
   65SAPC   H2X 5307   0.407   2.754   7.098  1.6554  0.1464 -0.2336
   65SAPC   H2Y 5308   0.236   2.744   7.061 -0.0713  1.2368  2.2666
   65SAPC   C23 5309  -0.179   2.798   6.738 -0.6019  0.1743 -0.2711
   65SAPC   H3R 5310  -0.229   2.725   6.671 -1.1293  0.4298 -0.1592
   65SAPC   H3S 5311  -0.242   2.890   6.733 -0.4280  0.3892  1.1215
   65SAPC   C24 5312  -0.147   2.750   6.884  0.0701  0.2851 -0.4112
   65SAPC   H4R 5313  -0.068   2.816   6.925 -0.1534  0.7569 -0.7421
   65SAPC   H4S 5314  -0.120   2.642   6.888  1.7702  0.7262  1.6267
   65SAPC   C25 5315  -0.272   2.756   6.967  0.0197 -1.0821  1.4080
   65SAPC   H5R 5316  -0.350   2.700   6.914  0.7132 -0.5962 -0.1725
   65SAPC   C26 5317  -0.303   2.821   7.081 -0.2260 -0.0769 -0.1268
   65SAPC   H6R 5318  -0.400   2.801   7.130 -0.9203  1.7067 -0.7009
   65SAPC   C27 5319  -0.203   2.912   7.147  0.0137  0.2286 -0.1279
   65SAPC   H7R 5320  -0.247   3.009   7.181 -0.6051 -0.1962  0.3067
   65SAPC   H7S 5321  -0.120   2.952   7.085  0.2393  1.4151  0.8919
   65SAPC   C28 5322  -0.130   2.840   7.260 -0.6809  0.4083 -0.6360
   65SAPC   H8R 5323  -0.053   2.773   7.216  0.6253  0.3520  1.5945
   65SAPC   C29 5324  -0.130   2.856   7.394  0.1119  0.3386  0.4674
   65SAPC   H9R 5325  -0.097   2.773   7.458  0.0396 -0.3420 -0.3538
   65SAPC  C210 5326  -0.195   2.963   7.482 -0.5302 -0.0040 -0.0762
   65SAPC  H10R 5327  -0.236   3.057   7.439 -0.0547  0.7235  1.0262
   65SAPC  H10S 5328  -0.118   2.995   7.554 -1.0431 -2.0587  1.4737
   65SAPC  C211 5329  -0.300   2.898   7.565  0.5432  0.4829  0.2021
   65SAPC  H11R 5330  -0.374   2.837   7.510  0.7132  1.1869 -0.8252
   65SAPC  C212 5331  -0.312   2.918   7.697  0.0037  0.6779 -0.6799
   65SAPC  H12R 5332  -0.388   2.856   7.746  0.2145 -0.2454 -1.4867
   65SAPC  C213 5333  -0.231   3.004   7.789 -0.1516 -0.0282 -0.0855
   65SAPC  H13R 5334  -0.134   3.046   7.752  1.1978 -0.9191  2.2229
   65SAPC  H13S 5335  -0.213   2.941   7.879  0.7621  0.4085  0.0491
   65SAPC  C214 5336  -0.316   3.120   7.827 -0.6868 -0.8062  0.4513
   65SAPC  H14R 5337  -0.358   3.183   7.748 -0.5313  0.2058  1.1444
   65SAPC  C215 5338  -0.337   3.167   7.955  0.4892  0.2029  0.5542
   65SAPC  H15R 5339  -0.399   3.257   7.968  0.2741 -0.2056  2.6497
   65SAPC  C216 5340  -0.284   3.111   8.084  0.0439  0.9803  0.3637
   65SAPC  H16R 5341  -0.201   3.179   8.114  1.2509 -0.7266  0.9884
   65SAPC  H16S 5342  -0.233   3.015   8.066 -0.1889  0.7857  0.7255
   65SAPC  C217 5343  -0.375   3.098   8.209  0.4636 -0.1735  0.3476
   65SAPC  H17R 5344  -0.323   3.027   8.277 -0.0330  0.0247  0.9344
   65SAPC  H17S 5345  -0.478   3.060   8.190  0.1641  0.6226  0.3310
   65SAPC  C218 5346  -0.389   3.241   8.266 -1.1959 -0.1391 -0.0540
   65SAPC  H18R 5347  -0.447   3.297   8.190 -1.1960  3.4466  2.3233
   65SAPC  H18S 5348  -0.290   3.283   8.295 -0.2941 -2.7099  0.9558
   65SAPC  C219 5349  -0.481   3.241   8.383  0.5856 -0.4448 -0.0575
   65SAPC  H19R 5350  -0.421   3.209   8.471  1.3338  1.6803  0.2823
   65SAPC  H19S 5351  -0.577   3.186   8.377 -0.5951  1.4167  0.8158
   65SAPC  C220 5352  -0.529   3.382   8.411 -0.1279  0.3243 -0.0770
   65SAPC  H20R 5353  -0.599   3.382   8.497  0.9490  3.1830  0.9081
   65SAPC  H20S 5354  -0.578   3.431   8.324 -1.0840  1.4827  1.0976
   65SAPC  H20T 5355  -0.440   3.439   8.447  0.3276  0.4183 -1.2822
   65SAPC   C33 5356   0.312   2.948   7.062  0.7199  0.8379  0.4993
   65SAPC   H3X 5357   0.262   3.003   6.980  2.8753  0.3457 -1.2426
   65SAPC   H3Y 5358   0.419   2.980   7.061  0.2657  2.5322  1.4672
   65SAPC   C34 5359   0.236   2.981   7.193 -0.0271  0.0000 -0.6927
   65SAPC   H4X 5360   0.141   2.925   7.176 -1.0858  1.2782  0.7859
   65SAPC   H4Y 5361   0.212   3.089   7.188  1.6313  0.3698 -1.5294
   65SAPC   C35 5362   0.304   2.941   7.322 -0.1963  0.4994  0.3984
   65SAPC   H5X 5363   0.398   3.000   7.330 -1.1665  2.2421 -0.4068
   65SAPC   H5Y 5364   0.349   2.840   7.321  1.8610  1.3564  1.2710
   65SAPC   C36 5365   0.200   2.968   7.433 -0.5131  0.7643 -0.0201
   65SAPC   H6X 5366   0.129   2.883   7.436  0.5310 -0.4245 -3.4970
   65SAPC   H6Y 5367   0.141   3.062   7.422 -0.1238  1.2632  1.8668
   65SAPC   C37 5368   0.276   2.981   7.570  0.4667 -0.3141  0.6424
   65SAPC   H7X 5369   0.322   3.082   7.571  1.1599 -0.6214  0.2361
   65SAPC   H7Y 5370   0.353   2.901   7.568 -1.0312 -1.8282  0.8670
   65SAPC   C38 5371   0.192   2.974   7.690  0.4319  0.0443 -0.8705
   65SAPC   H8X 5372   0.133   2.881   7.703 -0.6977  0.7831 -0.5342
   65SAPC   H8Y 5373   0.112   3.047   7.667 -1.7641 -1.6433  1.0064
   65SAPC   C39 5374   0.250   3.015   7.820 -0.0882 -0.2301 -0.1698
   65SAPC   H9X 5375   0.271   3.124   7.833  1.1281 -0.5002  0.2166
   65SAPC   H9Y 5376   0.349   2.969   7.838 -0.0523  0.0673  0.4180
   65SAPC  C310 5377   0.150   2.985   7.937  0.3862 -0.4964  0.1300
   65SAPC  H10X 5378   0.114   2.880   7.931 -1.1055 -0.1659  2.1892
   65SAPC  H10Y 5379   0.056   3.044   7.934  0.4778 -0.2398  1.5553
   65SAPC  C311 5380   0.203   3.026   8.070 -0.1720  0.4579 -0.7649
   65SAPC  H11X 5381   0.232   3.133   8.075 -0.0581  0.4079 -0.3728
   65SAPC  H11Y 5382   0.301   2.978   8.088  0.1819  2.1009  2.3733
   65SAPC  C312 5383   0.106   3.004   8.187 -0.3982 -0.0352  0.3560
   65SAPC  H12X 5384   0.052   2.907   8.178  0.0678 -0.5121  2.3093
   65SAPC  H12Y 5385   0.026   3.081   8.173 -0.6190 -0.8034 -4.3245
   65SAPC  C313 5386   0.172   3.021   8.326 -0.6933  0.0702 -0.8911
   65SAPC  H13X 5387   0.205   3.125   8.305  0.8913 -0.3347 -0.5388
   65SAPC  H13Y 5388   0.257   2.950   8.333 -0.6267  0.1793 -0.5772
   65SAPC  C314 5389   0.062   3.006   8.439  0.7858 -0.0434  0.6949
   65SAPC  H14X 5390   0.017   2.905   8.436 -1.6104  0.8634  2.4083
   65SAPC  H14Y 5391  -0.022   3.075   8.418  0.9302 -0.2323 -0.5783
   65SAPC  C315 5392   0.132   3.025   8.573  0.1005 -0.6265  0.2650
   65SAPC  H15X 5393   0.164   3.128   8.600  1.9328 -0.6615 -1.5456
   65SAPC  H15Y 5394   0.231   2.977   8.558  0.7407  0.8173 -0.4447
   65SAPC  C316 5395   0.067   2.962   8.692  0.2393  0.6251 -0.0427
   65SAPC  H16X 5396   0.038   2.862   8.654  1.4972  0.3483 -0.3059
   65SAPC  H16Y 5397  -0.016   3.019   8.740 -1.8195 -1.3189 -1.0975
   65SAPC  C317 5398   0.178   2.940   8.795  0.0116  0.1718 -0.3119
   65SAPC  H17X 5399   0.231   3.037   8.801 -0.1371  0.2686 -0.5527
   65SAPC  H17Y 5400   0.257   2.870   8.762  0.9075 -0.5357  2.9688
   65SAPC  C318 5401   0.139   2.900   8.936 -0.0635 -0.1222  0.1120
   65SAPC  H18X 5402   0.214   2.843   8.995 -1.1667  1.1573  2.9648
   65SAPC  H18Y 5403   0.043   2.843   8.937  0.0101 -0.2483  1.2229
   65SAPC  H18Z 5404   0.124   2.993   8.996 -1.1301 -2.5128  3.9264
   66SAPC     N 5405   3.205   2.792   6.148  0.1120 -0.3123  0.9284
   66SAPC   C12 5406   3.159   2.896   6.053  0.6715 -0.2942  0.8459
   66SAPC  H12A 5407   3.075   2.956   6.086  1.6374  1.2305  0.6393
   66SAPC  H12B 5408   3.116   2.851   5.965 -3.2374  2.0400  1.3203
   66SAPC   C13 5409   3.243   2.843   6.278 -0.2103  0.3829 -0.5881
   66SAPC  H13A 5410   3.329   2.907   6.266 -1.3760  2.4006  1.0731
   66SAPC  H13B 5411   3.171   2.910   6.322 -0.2228 -0.4601  0.7168
   66SAPC  H13C 5412   3.274   2.767   6.348  0.7129  0.8211 -0.5108
   66SAPC   C14 5413   3.095   2.694   6.188 -0.0898 -0.7306 -0.0690
   66SAPC  H14A 5414   3.067   2.619   6.115  0.8511  0.9436 -2.2526
   66SAPC  H14B 5415   3.136   2.647   6.276  0.4973  2.6318  1.5948
   66SAPC  H14C 5416   3.013   2.753   6.224 -2.0289 -2.7519 -0.9124
   66SAPC   C15 5417   3.324   2.723   6.083  0.0159 -0.1211 -0.7763
   66SAPC  H15A 5418   3.297   2.687   5.985 -2.0080 -0.8199 -0.0207
   66SAPC  H15B 5419   3.404   2.793   6.067 -0.0058 -0.0265 -0.4936
   66SAPC  H15C 5420   3.361   2.644   6.147 -0.9787 -0.3857 -0.5043
   66SAPC   C11 5421   3.267   3.004   6.006  0.0642  0.0917  1.0101
   66SAPC  H11A 5422   3.240   3.062   5.915  0.5780  0.3976  1.0480
   66SAPC  H11B 5423   3.357   2.947   5.975 -1.4201 -2.0675  0.3679
   66SAPC     P 5424   3.207   3.204   6.170  0.2554 -0.1337  0.1806
   66SAPC   O13 5425   3.226   3.335   6.101  0.6067  0.1505 -0.2451
   66SAPC   O14 5426   3.067   3.165   6.172 -0.1007  0.5908  0.0280
   66SAPC   O12 5427   3.300   3.095   6.113 -0.3735 -0.2439  0.5473
   66SAPC   O11 5428   3.241   3.206   6.318  0.3424  0.2743  0.1692
   66SAPC    C1 5429   3.376   3.186   6.363 -0.2493 -0.0783  0.1092
   66SAPC    HA 5430   3.409   3.080   6.364  1.5789  0.4040 -1.8661
   66SAPC    HB 5431   3.453   3.233   6.299  0.8807 -0.1580  1.3554
   66SAPC    C2 5432   3.396   3.245   6.506 -1.0919 -0.1496 -0.0448
   66SAPC    HS 5433   3.500   3.223   6.535 -1.7579 -1.0021  1.8333
   66SAPC   O21 5434   3.306   3.194   6.607  0.2599  0.0254 -0.2910
   66SAPC   C21 5435   3.336   3.068   6.636 -0.1776 -0.2462 -0.0647
   66SAPC   O22 5436   3.438   3.014   6.592 -0.0633 -0.2788  0.4345
   66SAPC   C22 5437   3.232   3.010   6.733 -0.7374  0.0359 -0.0591
   66SAPC   H2R 5438   3.135   3.040   6.689 -1.5088 -1.9058  0.2343
   66SAPC   H2S 5439   3.227   2.899   6.731 -4.2843  0.0632  1.3561
   66SAPC    C3 5440   3.387   3.401   6.506 -0.5015  0.3407 -0.0327
   66SAPC    HX 5441   3.293   3.440   6.461  0.1999  2.4740  0.2756
   66SAPC    HY 5442   3.462   3.431   6.431 -1.9784  1.7782 -1.0003
   66SAPC   O31 5443   3.427   3.470   6.631  0.7665  0.1282  0.4301
   66SAPC   C31 5444   3.328   3.500   6.707 -0.2291 -0.1036 -0.0764
   66SAPC   O32 5445   3.209   3.495   6.679  0.6174  0.3106 -0.6626
   66SAPC   C32 5446   3.374   3.560   6.838  0.4846 -0.1985  0.2859
   66SAPC   H2X 5447   3.340   3.665   6.851  1.7123 -0.0265  2.9489
   66SAPC   H2Y 5448   3.485   3.559   6.842  0.4675 -0.5924  0.9149
   66SAPC   C23 5449   3.239   3.073   6.876  0.2697 -0.1448 -0.1099
   66SAPC   H3R 5450   3.166   3.018   6.940  1.3905 -0.6793  0.7304
   66SAPC   H3S 5451   3.204   3.178   6.864 -0.2701 -0.2303  0.6259
   66SAPC   C24 5452   3.382   3.072   6.934 -0.0372 -0.4016 -0.1919
   66SAPC   H4R 5453   3.380   3.131   7.028  3.2109  0.5429 -0.6152
   66SAPC   H4S 5454   3.435   3.139   6.864  1.3248 -0.2310  0.9586
   66SAPC   C25 5455   3.457   2.938   6.940  0.2315 -0.0402 -0.2742
   66SAPC   H5R 5456   3.520   2.912   6.853  1.4819 -1.0189  0.8718
   66SAPC   C26 5457   3.442   2.859   7.054 -0.1355  0.4300  0.0542
   66SAPC   H6R 5458   3.497   2.764   7.060 -0.7501  0.1500  1.9848
   66SAPC   C27 5459   3.358   2.877   7.177 -0.6037  0.7973  0.7965
   66SAPC   H7R 5460   3.300   2.784   7.193  0.2342  0.1430  0.1633
   66SAPC   H7S 5461   3.283   2.956   7.159  0.3115  1.2004 -1.7606
   66SAPC   C28 5462   3.459   2.912   7.287  0.5550 -0.1022 -0.0320
   66SAPC   H8R 5463   3.543   2.969   7.246  0.5576 -1.7312 -2.4909
   66SAPC   C29 5464   3.460   2.874   7.415  0.7872 -0.2119  0.4500
   66SAPC   H9R 5465   3.539   2.911   7.482  1.0855  0.7874 -0.4353
   66SAPC  C210 5466   3.350   2.791   7.479 -0.4039 -0.3224  0.0128
   66SAPC  H10R 5467   3.388   2.691   7.506  1.3281  0.5541  1.0223
   66SAPC  H10S 5468   3.276   2.765   7.400 -0.3822  0.5502 -0.3102
   66SAPC  C211 5469   3.290   2.871   7.591 -0.1780  0.6579 -0.4851
   66SAPC  H11R 5470   3.235   2.965   7.579  1.5293  1.5685 -1.4991
   66SAPC  C212 5471   3.316   2.851   7.721 -0.2105 -0.0452 -0.2637
   66SAPC  H12R 5472   3.275   2.935   7.781 -0.4601  0.9133 -1.7269
   66SAPC  C213 5473   3.424   2.745   7.773  1.0259 -0.6331 -0.0881
   66SAPC  H13R 5474   3.510   2.811   7.797  0.5174  0.4289 -1.0588
   66SAPC  H13S 5475   3.450   2.663   7.703 -1.2239 -0.6905 -0.9397
   66SAPC  C214 5476   3.354   2.669   7.887 -0.5701 -0.5457  0.3261
   66SAPC  H14R 5477   3.283   2.594   7.850 -2.5698  1.6543 -0.5124
   66SAPC  C215 5478   3.386   2.672   8.019  0.6183  0.2619 -0.1829
   66SAPC  H15R 5479   3.331   2.614   8.095  1.3780 -0.0163  0.1635
   66SAPC  C216 5480   3.492   2.764   8.079 -1.1144 -0.0126 -0.6623
   66SAPC  H16R 5481   3.441   2.855   8.117 -0.1921  0.2282  0.0439
   66SAPC  H16S 5482   3.574   2.808   8.020  0.6517 -0.6026  1.2370
   66SAPC  C217 5483   3.552   2.686   8.202  0.6174  0.5120  0.3486
   66SAPC  H17R 5484   3.566   2.581   8.169  1.4947  1.0471 -1.0986
   66SAPC  H17S 5485   3.475   2.675   8.281 -1.4808  1.7019 -1.4236
   66SAPC  C218 5486   3.679   2.736   8.249 -1.0085  0.5736  0.2164
   66SAPC  H18R 5487   3.669   2.829   8.309  0.3636  1.4483 -0.8571
   66SAPC  H18S 5488   3.742   2.750   8.159 -0.0952  0.5941  0.8372
   66SAPC  C219 5489   3.755   2.636   8.351  0.6369  0.9077  1.0182
   66SAPC  H19R 5490   3.856   2.679   8.368  0.7420 -0.1219  3.3601
   66SAPC  H19S 5491   3.758   2.540   8.295  1.1747  1.7460 -0.4480
   66SAPC  C220 5492   3.681   2.608   8.483  0.4992  0.0524  0.2688
   66SAPC  H20R 5493   3.685   2.701   8.544  2.6542 -1.3352  2.4876
   66SAPC  H20S 5494   3.735   2.529   8.540  1.2170 -0.4061 -1.0177
   66SAPC  H20T 5495   3.575   2.582   8.466  0.5856 -0.8752  1.0582
   66SAPC   C33 5496   3.319   3.459   6.946  0.2332 -0.1598  0.4505
   66SAPC   H3X 5497   3.352   3.356   6.920 -1.4577 -0.0210 -2.7392
   66SAPC   H3Y 5498   3.210   3.441   6.946  0.3574 -0.9447  0.2778
   66SAPC   C34 5499   3.364   3.496   7.083  0.5033 -0.1843 -0.1596
   66SAPC   H4X 5500   3.298   3.578   7.117 -1.0022 -1.8567  1.1760
   66SAPC   H4Y 5501   3.471   3.523   7.069  0.2995  0.5316 -0.3675
   66SAPC   C35 5502   3.343   3.383   7.186 -0.9627  0.0113  0.4915
   66SAPC   H5X 5503   3.420   3.305   7.167 -1.5919 -0.3469 -0.7053
   66SAPC   H5Y 5504   3.246   3.335   7.160  0.6883 -3.9441  0.8519
   66SAPC   C36 5505   3.343   3.426   7.341 -0.5821 -0.4650  0.4825
   66SAPC   H6X 5506   3.247   3.480   7.358 -0.2867  0.8969 -1.7632
   66SAPC   H6Y 5507   3.417   3.508   7.354 -2.2293  1.0732  0.5621
   66SAPC   C37 5508   3.362   3.326   7.448  0.0721  0.3985  0.0617
   66SAPC   H7X 5509   3.439   3.248   7.431 -1.3017 -0.9899 -0.0209
   66SAPC   H7Y 5510   3.271   3.264   7.440 -0.9963  2.0033 -0.6668
   66SAPC   C38 5511   3.374   3.392   7.587  0.4385  0.8243 -0.2668
   66SAPC   H8X 5512   3.274   3.441   7.596 -0.4744 -1.0145  0.0092
   66SAPC   H8Y 5513   3.463   3.459   7.584  2.4970 -1.7739 -0.0653
   66SAPC   C39 5514   3.397   3.293   7.701  0.3570  0.1538 -0.3300
   66SAPC   H9X 5515   3.310   3.223   7.706 -0.3495  1.0917  1.5645
   66SAPC   H9Y 5516   3.396   3.360   7.790  1.0980  0.3282 -0.4546
   66SAPC  C310 5517   3.531   3.216   7.690 -0.0460 -0.0376 -0.2736
   66SAPC  H10X 5518   3.609   3.287   7.655 -0.4340  1.5547  1.8365
   66SAPC  H10Y 5519   3.508   3.135   7.617  1.2346 -0.0115 -0.7345
   66SAPC  C311 5520   3.601   3.159   7.814 -0.8839  0.0820 -0.0223
   66SAPC  H11X 5521   3.683   3.088   7.790 -0.6070  1.0128 -1.9939
   66SAPC  H11Y 5522   3.524   3.095   7.863 -2.1507  0.2041 -1.7736
   66SAPC  C312 5523   3.636   3.249   7.929 -0.8617  0.3901  0.1573
   66SAPC  H12X 5524   3.540   3.300   7.953 -2.6779 -3.2219  1.2803
   66SAPC  H12Y 5525   3.711   3.318   7.884  1.1559 -1.3244  0.7469
   66SAPC  C313 5526   3.693   3.171   8.045  0.9288 -0.5707  0.1557
   66SAPC  H13X 5527   3.761   3.089   8.013  1.3665  0.1980 -0.9275
   66SAPC  H13Y 5528   3.611   3.122   8.102  2.6914 -0.4785  2.9911
   66SAPC  C314 5529   3.763   3.274   8.136  0.3177  0.3350 -0.0135
   66SAPC  H14X 5530   3.835   3.329   8.072 -2.2067  3.6387 -0.2930
   66SAPC  H14Y 5531   3.814   3.204   8.205  1.7565 -0.2208 -1.5636
   66SAPC  C315 5532   3.683   3.384   8.211  0.1057  0.7378 -0.3663
   66SAPC  H15X 5533   3.607   3.339   8.278 -2.0604 -1.2392 -3.8605
   66SAPC  H15Y 5534   3.619   3.435   8.136  0.0100 -0.8060 -1.3552
   66SAPC  C316 5535   3.758   3.482   8.299  0.0357  0.9021 -0.1173
   66SAPC  H16X 5536   3.850   3.523   8.252 -1.5975  4.4763 -0.5180
   66SAPC  H16Y 5537   3.777   3.432   8.397  3.8713  1.4121 -0.4319
   66SAPC  C317 5538   3.684   3.610   8.335 -0.4181  0.6204 -0.1458
   66SAPC  H17X 5539   3.581   3.595   8.372 -0.2700  1.0111  0.4328
   66SAPC  H17Y 5540   3.661   3.668   8.243  1.6929  1.2399 -0.3366
   66SAPC  C318 5541   3.762   3.697   8.435  0.0902 -0.0862 -0.4963
   66SAPC  H18X 5542   3.855   3.738   8.391  1.6556 -0.8631  1.8656
   66SAPC  H18Y 5543   3.779   3.647   8.533  1.1812 -0.0642 -0.6609
   66SAPC  H18Z 5544   3.699   3.787   8.453 -0.8709 -0.7333 -0.5564
   67SAPC     N 5545   0.624   5.745   6.422  0.3191  0.2692  0.4300
   67SAPC   C12 5546   0.665   5.719   6.568  1.0038  0.6601  0.7101
   67SAPC  H12A 5547   0.659   5.818   6.609  0.9245  1.3431 -0.8543
   67SAPC  H12B 5548   0.770   5.696   6.579  1.0190 -0.8078 -1.6932
   67SAPC   C13 5549   0.492   5.816   6.409 -0.3712  0.4224 -0.3035
   67SAPC  H13A 5550   0.415   5.752   6.448 -1.0385  1.4165  0.0661
   67SAPC  H13B 5551   0.497   5.915   6.452  0.5270  0.7933 -1.2052
   67SAPC  H13C 5552   0.464   5.819   6.304 -0.6058 -2.2512 -0.3724
   67SAPC   C14 5553   0.727   5.832   6.360  0.0161 -0.5928 -0.2605
   67SAPC  H14A 5554   0.721   5.934   6.393  1.9614 -0.9683  1.5002
   67SAPC  H14B 5555   0.830   5.799   6.368  1.5829  2.9784 -2.8462
   67SAPC  H14C 5556   0.709   5.840   6.254  0.3365  0.0952 -0.2693
   67SAPC   C15 5557   0.628   5.614   6.342 -0.0553 -0.2072  0.1042
   67SAPC  H15A 5558   0.559   5.541   6.382 -1.9399  1.0451 -0.6880
   67SAPC  H15B 5559   0.592   5.625   6.241  2.2253  1.8471 -0.5731
   67SAPC  H15C 5560   0.731   5.581   6.339  0.0957 -0.2426  3.0257
   67SAPC   C11 5561   0.586   5.613   6.658 -0.6822  0.4947  0.8012
   67SAPC  H11A 5562   0.481   5.647   6.653 -0.3014  1.5350 -1.4006
   67SAPC  H11B 5563   0.628   5.637   6.758  2.4389  0.2736 -0.3273
   67SAPC     P 5564   0.737   5.397   6.617 -0.3750 -0.0868  0.2351
   67SAPC   O13 5565   0.719   5.258   6.565 -0.1588 -0.1077 -0.1971
   67SAPC   O14 5566   0.844   5.485   6.562  0.0506 -0.6293  0.0701
   67SAPC   O12 5567   0.592   5.471   6.619  0.7020  0.9726  0.0502
   67SAPC   O11 5568   0.757   5.382   6.770  0.5757 -0.2789  0.4849
   67SAPC    C1 5569   0.661   5.366   6.862  0.8863 -0.3999  0.0373
   67SAPC    HA 5570   0.589   5.451   6.863  0.9586 -0.0538 -4.5889
   67SAPC    HB 5571   0.599   5.280   6.829 -0.1058  0.5338 -0.5674
   67SAPC    C2 5572   0.726   5.344   7.001 -0.2883  0.5303 -0.1713
   67SAPC    HS 5573   0.643   5.329   7.074 -1.5361 -0.9231 -1.7932
   67SAPC   O21 5574   0.813   5.454   7.046 -0.0685 -0.3476 -0.0118
   67SAPC   C21 5575   0.755   5.570   7.049  0.0433 -0.2528  0.3734
   67SAPC   O22 5576   0.633   5.586   7.043  0.1975 -0.5036  0.0073
   67SAPC   C22 5577   0.852   5.685   7.063  0.3290  0.1241 -0.1412
   67SAPC   H2R 5578   0.892   5.717   6.965 -0.8190  1.5426 -0.1731
   67SAPC   H2S 5579   0.789   5.773   7.089 -0.5212 -0.6574  0.5140
   67SAPC    C3 5580   0.813   5.213   6.997 -0.6665  0.1276 -0.9127
   67SAPC    HX 5581   0.901   5.230   6.932 -0.1252  0.2524 -0.1574
   67SAPC    HY 5582   0.759   5.125   6.958  0.8494 -2.0717  1.6573
   67SAPC   O31 5583   0.852   5.166   7.128 -0.3133  0.3455 -0.2760
   67SAPC   C31 5584   0.965   5.217   7.181  0.7306 -0.0830  0.4520
   67SAPC   O32 5585   1.054   5.272   7.114 -0.0714  0.1305 -0.8015
   67SAPC   C32 5586   0.970   5.185   7.331 -0.2127 -0.1848  0.0288
   67SAPC   H2X 5587   0.996   5.077   7.332  0.4633 -0.2009 -3.9386
   67SAPC   H2Y 5588   0.865   5.200   7.362 -0.3452 -2.3711  0.8272
   67SAPC   C23 5589   0.954   5.661   7.170  0.2641  0.6230  0.0624
   67SAPC   H3R 5590   1.009   5.755   7.191  0.3944  1.1746 -2.4302
   67SAPC   H3S 5591   1.024   5.578   7.149  1.2409  1.0162  1.6127
   67SAPC   C24 5592   0.905   5.625   7.312  1.0393 -0.0320 -0.3458
   67SAPC   H4R 5593   0.988   5.634   7.385  1.4045 -0.9138 -0.6347
   67SAPC   H4S 5594   0.874   5.519   7.329 -0.1606  0.2704 -0.5544
   67SAPC   C25 5595   0.799   5.723   7.363 -0.3913  0.0718  0.1594
   67SAPC   H5R 5596   0.797   5.816   7.304 -0.8953 -0.4095 -0.5988
   67SAPC   C26 5597   0.717   5.709   7.474 -0.9635  0.2327 -0.2420
   67SAPC   H6R 5598   0.653   5.793   7.506  1.5531  1.4183  2.0833
   67SAPC   C27 5599   0.724   5.587   7.563  0.8636 -0.5251 -0.2747
   67SAPC   H7R 5600   0.753   5.496   7.507  1.8864  0.5995 -1.6196
   67SAPC   H7S 5601   0.617   5.567   7.588  0.3398  2.7903  0.6366
   67SAPC   C28 5602   0.816   5.607   7.684 -0.4375 -0.0263  0.0271
   67SAPC   H8R 5603   0.918   5.627   7.649  0.2915 -0.7928  1.5965
   67SAPC   C29 5604   0.794   5.605   7.814  0.2929  0.4748 -0.4559
   67SAPC   H9R 5605   0.872   5.629   7.887  1.6220 -3.2833 -0.4460
   67SAPC  C210 5606   0.648   5.597   7.868 -0.1743 -0.4302 -0.1273
   67SAPC  H10R 5607   0.576   5.642   7.796  0.6542  2.1130  0.5252
   67SAPC  H10S 5608   0.649   5.661   7.958  0.1583  2.4032 -2.0245
   67SAPC  C211 5609   0.599   5.462   7.915 -0.0196  0.2836 -0.2724
   67SAPC  H11R 5610   0.640   5.372   7.869 -1.0328 -0.8858  1.0325
   67SAPC  C212 5611   0.527   5.441   8.025 -0.7713 -0.3117 -0.4974
   67SAPC  H12R 5612   0.498   5.337   8.048  1.0997 -0.7993 -0.1458
   67SAPC  C213 5613   0.465   5.546   8.118 -0.2926 -0.0547 -0.2119
   67SAPC  H13R 5614   0.376   5.518   8.179 -0.5892  1.0841 -0.1093
   67SAPC  H13S 5615   0.426   5.638   8.070  2.3443  1.9518  1.2666
   67SAPC  C214 5616   0.571   5.586   8.215 -0.3570  0.1895 -0.6288
   67SAPC  H14R 5617   0.667   5.625   8.180 -1.0750  3.1988  0.4593
   67SAPC  C215 5618   0.562   5.603   8.348 -0.1432 -0.0542 -0.4330
   67SAPC  H15R 5619   0.653   5.636   8.401 -0.4699  0.4578 -0.1896
   67SAPC  C216 5620   0.445   5.581   8.445 -0.5620  0.3619  0.0648
   67SAPC  H16R 5621   0.477   5.512   8.527 -3.1256 -1.5987 -0.4648
   67SAPC  H16S 5622   0.356   5.528   8.406 -1.7209  1.0842  1.6478
   67SAPC  C217 5623   0.392   5.705   8.514 -0.0303 -0.1491  0.0666
   67SAPC  H17R 5624   0.347   5.779   8.444 -3.8885 -2.3392 -0.0198
   67SAPC  H17S 5625   0.481   5.751   8.564  1.2079 -0.9521 -1.2991
   67SAPC  C218 5626   0.277   5.667   8.610  0.1344 -0.3061 -0.4176
   67SAPC  H18R 5627   0.232   5.760   8.653  1.4668  0.7731 -1.2823
   67SAPC  H18S 5628   0.319   5.614   8.697  1.4717 -1.7759 -1.8951
   67SAPC  C219 5629   0.163   5.579   8.560  0.1812  0.0805  0.3398
   67SAPC  H19R 5630   0.088   5.572   8.641 -0.5039  0.5452 -0.2507
   67SAPC  H19S 5631   0.199   5.475   8.544 -0.5549 -0.3031  1.1014
   67SAPC  C220 5632   0.089   5.629   8.435 -0.7844  0.1721  0.0575
   67SAPC  H20R 5633   0.159   5.596   8.354 -0.8819 -2.7380  1.0249
   67SAPC  H20S 5634   0.085   5.740   8.434 -1.3732  0.1698  1.0282
   67SAPC  H20T 5635  -0.012   5.587   8.414 -0.9221  0.3972  0.2791
   67SAPC   C33 5636   1.068   5.270   7.412 -0.2118  0.9226 -0.6099
   67SAPC   H3X 5637   1.044   5.371   7.372 -0.3288  0.7901 -0.8797
   67SAPC   H3Y 5638   1.177   5.257   7.399 -0.2346  1.0872 -1.0004
   67SAPC   C34 5639   1.025   5.277   7.557 -1.2831  1.1202 -0.3013
   67SAPC   H4X 5640   0.921   5.315   7.551 -2.4443 -1.7700 -0.2392
   67SAPC   H4Y 5641   1.084   5.339   7.627 -1.7516 -1.4748  2.5890
   67SAPC   C35 5642   1.032   5.134   7.617  0.0808  0.3943 -0.7071
   67SAPC   H5X 5643   1.128   5.082   7.597 -0.2706  0.4505 -2.7175
   67SAPC   H5Y 5644   0.942   5.076   7.587 -0.4627  0.4288  0.7712
   67SAPC   C36 5645   1.031   5.144   7.774 -0.2601  0.5012  0.5180
   67SAPC   H6X 5646   1.132   5.171   7.812  1.6484 -3.2576 -1.3220
   67SAPC   H6Y 5647   1.004   5.039   7.796 -2.0158  0.4950 -1.4161
   67SAPC   C37 5648   0.918   5.231   7.828 -0.2719 -0.1302  0.0084
   67SAPC   H7X 5649   0.816   5.196   7.799 -0.2685 -0.0748 -0.0716
   67SAPC   H7Y 5650   0.936   5.335   7.794  1.1832 -0.6766 -1.0047
   67SAPC   C38 5651   0.908   5.229   7.980  0.6793  0.0201  0.3037
   67SAPC   H8X 5652   0.895   5.126   8.021  0.6320  0.9900  2.8687
   67SAPC   H8Y 5653   0.818   5.287   8.011 -0.0239 -0.1729 -1.2706
   67SAPC   C39 5654   1.021   5.302   8.050 -0.6637  0.1124  0.4698
   67SAPC   H9X 5655   1.033   5.409   8.020  2.6904 -0.4982 -0.7128
   67SAPC   H9Y 5656   1.111   5.247   8.018 -1.7054 -1.6494  0.4447
   67SAPC  C310 5657   1.012   5.294   8.206  0.6562 -0.0086  0.1712
   67SAPC  H10X 5658   1.095   5.356   8.246 -0.0137  0.7517  0.4013
   67SAPC  H10Y 5659   1.025   5.185   8.227  1.3398  0.0503  0.0972
   67SAPC  C311 5660   0.873   5.332   8.277  0.0770 -0.3342 -0.1031
   67SAPC  H11X 5661   0.800   5.261   8.234 -2.1616  2.1104 -0.5730
   67SAPC  H11Y 5662   0.857   5.433   8.234  2.3276 -0.8599 -2.4231
   67SAPC  C312 5663   0.881   5.326   8.430  0.4306  0.0642  0.6209
   67SAPC  H12X 5664   0.777   5.360   8.447  0.2616  0.2461 -0.6830
   67SAPC  H12Y 5665   0.937   5.405   8.485  0.4175  1.0058 -0.6753
   67SAPC  C313 5666   0.907   5.192   8.495 -0.3306  0.9651  0.0948
   67SAPC  H13X 5667   1.017   5.177   8.495 -0.3147  0.8774  1.9395
   67SAPC  H13Y 5668   0.870   5.109   8.431  3.6056 -1.0288  0.1094
   67SAPC  C314 5669   0.856   5.178   8.634 -0.5047 -0.8621 -0.1501
   67SAPC  H14X 5670   0.896   5.255   8.703 -1.9648 -2.2717  2.4622
   67SAPC  H14Y 5671   0.885   5.085   8.688 -0.0676 -1.5160 -1.4761
   67SAPC  C315 5672   0.700   5.178   8.641 -0.3034  0.3017  0.2049
   67SAPC  H15X 5673   0.652   5.092   8.590  0.8209 -1.0995  1.4053
   67SAPC  H15Y 5674   0.667   5.272   8.592 -0.4608 -0.4868 -1.2575
   67SAPC  C316 5675   0.645   5.210   8.784  0.5460 -0.6252 -0.1232
   67SAPC  H16X 5676   0.702   5.290   8.835 -2.9319  2.2615 -0.3989
   67SAPC  H16Y 5677   0.642   5.122   8.852 -0.4335 -0.9893 -0.6135
   67SAPC  C317 5678   0.510   5.277   8.765 -0.2336  0.6458  1.1684
   67SAPC  H17X 5679   0.523   5.366   8.699  0.1494 -0.3322 -0.1025
   67SAPC  H17Y 5680   0.484   5.326   8.861 -1.4219 -0.1915  1.2887
   67SAPC  C318 5681   0.393   5.199   8.723 -0.9655 -0.0598  0.1904
   67SAPC  H18X 5682   0.301   5.262   8.730 -1.0114 -0.2742  1.9599
   67SAPC  H18Y 5683   0.391   5.116   8.796  3.2308 -0.8277 -0.3075
   67SAPC  H18Z 5684   0.402   5.157   8.621 -0.5152  2.0222 -0.6869
   68SAPC     N 5685   3.888   4.989   6.474 -0.0494 -0.7615  0.4549
   68SAPC   C12 5686   3.745   4.954   6.424  0.5224  0.6165  0.1224
   68SAPC  H12A 5687   3.703   4.869   6.476  0.6955 -0.7468 -1.8496
   68SAPC  H12B 5688   3.728   4.924   6.321  1.8542  0.5747 -0.1049
   68SAPC   C13 5689   3.970   4.870   6.470 -0.3975  0.0522  0.0767
   68SAPC  H13A 5690   4.070   4.885   6.509  0.8695  0.6943 -3.1052
   68SAPC  H13B 5691   3.912   4.789   6.513  0.8663 -2.0115 -1.8736
   68SAPC  H13C 5692   3.987   4.824   6.374  0.7462  0.4474  0.0693
   68SAPC   C14 5693   3.951   5.098   6.392 -0.1930 -0.2319  0.1197
   68SAPC  H14A 5694   3.916   5.186   6.443 -0.1451  0.4539 -1.0025
   68SAPC  H14B 5695   4.059   5.104   6.389 -0.0974 -1.9212 -1.6271
   68SAPC  H14C 5696   3.908   5.092   6.293 -0.1061 -3.1042  0.1728
   68SAPC   C15 5697   3.888   5.044   6.616 -0.3656  0.6470  0.2512
   68SAPC  H15A 5698   3.844   5.143   6.617  0.6431  1.1246 -0.7092
   68SAPC  H15B 5699   3.835   4.976   6.681 -1.1754 -0.6830 -1.7109
   68SAPC  H15C 5700   3.992   5.041   6.646 -0.0021 -0.8171 -1.0041
   68SAPC   C11 5701   3.630   5.062   6.458  0.1755  0.3505  0.6784
   68SAPC  H11A 5702   3.636   5.083   6.567 -0.4456  0.1003  0.7660
   68SAPC  H11B 5703   3.534   5.010   6.438  0.5321 -0.5065  1.1294
   68SAPC     P 5704   3.668   5.323   6.450  0.2273 -0.0689  0.4034
   68SAPC   O13 5705   3.759   5.403   6.358  0.3697 -0.4585 -0.0046
   68SAPC   O14 5706   3.539   5.389   6.474 -0.4810  0.1985 -0.7631
   68SAPC   O12 5707   3.646   5.179   6.377 -0.0212 -0.1199  0.2826
   68SAPC   O11 5708   3.750   5.305   6.589  0.2006  0.0701  0.9774
   68SAPC    C1 5709   3.705   5.354   6.720  0.1825 -0.0059  0.0515
   68SAPC    HA 5710   3.687   5.463   6.708  1.0326  0.2880  1.2035
   68SAPC    HB 5711   3.618   5.302   6.765  0.6680  0.6213  1.8263
   68SAPC    C2 5712   3.812   5.335   6.826 -0.4996  0.4462 -0.1588
   68SAPC    HS 5713   3.825   5.227   6.851 -0.6567  0.5195  0.2596
   68SAPC   O21 5714   3.768   5.401   6.949 -0.3133  0.0513  0.6035
   68SAPC   C21 5715   3.811   5.354   7.059  0.2117  0.9031  0.2356
   68SAPC   O22 5716   3.872   5.245   7.078  0.1733 -0.4511 -0.6870
   68SAPC   C22 5717   3.770   5.457   7.175 -0.0096  0.1604 -0.1937
   68SAPC   H2R 5718   3.830   5.550   7.167 -0.4430  0.5310  0.7590
   68SAPC   H2S 5719   3.659   5.470   7.178 -0.1310 -0.9677  0.9818
   68SAPC    C3 5720   3.949   5.379   6.776 -0.7036  0.4775 -0.2879
   68SAPC    HX 5721   3.941   5.485   6.744 -0.7025  0.2338 -1.1148
   68SAPC    HY 5722   3.972   5.320   6.685  0.1032  1.3160 -0.6512
   68SAPC   O31 5723   4.056   5.370   6.879  1.0612 -0.1263  0.1552
   68SAPC   C31 5724   4.118   5.263   6.893 -0.2438  0.1979 -0.6250
   68SAPC   O32 5725   4.091   5.158   6.831 -0.0629 -0.1884  0.0059
   68SAPC   C32 5726   4.220   5.272   7.012  0.1131 -0.1403  0.6307
   68SAPC   H2X 5727   4.163   5.318   7.096  0.5625  0.1508  0.7831
   68SAPC   H2Y 5728   4.306   5.339   6.993 -0.7414  0.9621  0.5637
   68SAPC   C23 5729   3.808   5.404   7.317 -0.6905  0.1015  0.4475
   68SAPC   H3R 5730   3.757   5.305   7.324 -0.0083 -0.2299  0.8642
   68SAPC   H3S 5731   3.758   5.463   7.397 -0.3082 -1.2044  1.6881
   68SAPC   C24 5732   3.961   5.390   7.350 -0.4598 -0.3835 -0.0566
   68SAPC   H4R 5733   4.013   5.484   7.380 -1.6426  1.0261 -2.1320
   68SAPC   H4S 5734   4.006   5.375   7.250  1.6304 -0.7199  0.8837
   68SAPC   C25 5735   3.976   5.276   7.452  0.1943 -0.0606  0.3069
   68SAPC   H5R 5736   3.986   5.175   7.409  1.6997 -0.7690  2.1497
   68SAPC   C26 5737   3.987   5.285   7.582 -0.1760 -0.1462 -0.3314
   68SAPC   H6R 5738   3.986   5.196   7.647 -2.8304  2.3308  3.4551
   68SAPC   C27 5739   3.991   5.415   7.666  0.9484  0.2184  0.3318
   68SAPC   H7R 5740   3.891   5.414   7.716 -0.1128 -4.4468 -1.3518
   68SAPC   H7S 5741   3.982   5.509   7.608 -0.3645 -0.0002  0.1516
   68SAPC   C28 5742   4.096   5.423   7.766 -0.2287  0.5013 -0.0115
   68SAPC   H8R 5743   4.188   5.461   7.719  0.0121 -2.0442 -1.8197
   68SAPC   C29 5744   4.099   5.398   7.894  0.3596  1.0810 -0.3460
   68SAPC   H9R 5745   4.181   5.439   7.956 -0.9004  0.0606  2.1181
   68SAPC  C210 5746   3.987   5.334   7.982 -0.0434 -0.2648  0.4219
   68SAPC  H10R 5747   4.030   5.236   8.012  0.5521  0.0502  0.6262
   68SAPC  H10S 5748   3.907   5.294   7.918  0.9904 -2.3590  0.3586
   68SAPC  C211 5749   3.939   5.424   8.093  0.6832  0.1637  0.1124
   68SAPC  H11R 5750   3.852   5.488   8.072  0.1252 -0.3741  0.7305
   68SAPC  C212 5751   3.969   5.417   8.221  0.6137  0.0429  0.5233
   68SAPC  H12R 5752   3.924   5.487   8.293 -0.8724 -1.4437  1.1122
   68SAPC  C213 5753   4.071   5.321   8.288 -0.4118 -0.1454  0.0365
   68SAPC  H13R 5754   4.106   5.367   8.383 -3.0384  2.7893 -0.2203
   68SAPC  H13S 5755   4.163   5.312   8.226  0.0936 -2.8107  1.0574
   68SAPC  C214 5756   4.027   5.186   8.300 -0.0987  0.4102  0.1032
   68SAPC  H14R 5757   4.069   5.111   8.231  1.1328 -0.4678  1.7353
   68SAPC  C215 5758   3.944   5.142   8.394 -0.9055 -0.1170  0.1484
   68SAPC  H15R 5759   3.899   5.043   8.378 -0.7615 -0.1199 -0.2550
   68SAPC  C216 5760   3.883   5.230   8.498  0.2958 -0.0394 -0.1536
   68SAPC  H16R 5761   3.808   5.285   8.439 -1.4830  0.6824  2.5840
   68SAPC  H16S 5762   3.953   5.293   8.557 -1.3322  0.0793  1.7827
   68SAPC  C217 5763   3.796   5.146   8.593 -0.7689 -0.2572 -0.5583
   68SAPC  H17R 5764   3.708   5.103   8.542 -0.4655 -0.0427 -1.2786
   68SAPC  H17S 5765   3.762   5.218   8.670 -1.0667  0.2365 -1.1456
   68SAPC  C218 5766   3.883   5.036   8.662  1.0124  0.5948 -0.1992
   68SAPC  H18R 5767   3.974   5.090   8.695  0.2914  2.6605 -1.4241
   68SAPC  H18S 5768   3.909   4.964   8.581  2.7179  1.1674 -0.2050
   68SAPC  C219 5769   3.807   4.975   8.778  0.6456  0.0342 -0.0952
   68SAPC  H19R 5770   3.802   5.060   8.850  1.4954 -0.6942  0.8581
   68SAPC  H19S 5771   3.861   4.889   8.825  0.3504 -0.0205  0.1466
   68SAPC  C220 5772   3.665   4.926   8.749  0.1417 -0.2154 -0.7212
   68SAPC  H20R 5773   3.664   4.847   8.671  0.0658 -0.4969 -0.4364
   68SAPC  H20S 5774   3.612   5.013   8.705  0.2226 -0.2336 -0.8542
   68SAPC  H20T 5775   3.617   4.888   8.842  0.5209 -2.6052 -1.4183
   68SAPC   C33 5776   4.257   5.131   7.064  0.3084 -0.0170  0.6875
   68SAPC   H3X 5777   4.288   5.060   6.984  0.1444 -0.8640  1.3615
   68SAPC   H3Y 5778   4.160   5.089   7.097  0.1276 -1.4122 -1.4384
   68SAPC   C34 5779   4.362   5.134   7.172 -0.0189 -0.3179 -0.2555
   68SAPC   H4X 5780   4.443   5.204   7.145  0.8040 -1.1965 -0.1100
   68SAPC   H4Y 5781   4.403   5.032   7.185  0.4892  0.0171  0.8945
   68SAPC   C35 5782   4.298   5.173   7.313 -0.0213 -0.5573 -0.2507
   68SAPC   H5X 5783   4.202   5.118   7.319  1.0498 -2.5488 -0.6578
   68SAPC   H5Y 5784   4.285   5.284   7.312  2.1436 -0.2016  1.8561
   68SAPC   C36 5785   4.391   5.132   7.428 -0.1460 -0.6262 -0.6067
   68SAPC   H6X 5786   4.489   5.183   7.419  0.4002 -1.1921  1.4719
   68SAPC   H6Y 5787   4.413   5.023   7.424  1.1682 -0.3655 -0.8697
   68SAPC   C37 5788   4.340   5.189   7.569 -0.8334  0.8102 -0.4778
   68SAPC   H7X 5789   4.235   5.156   7.582  0.2007 -2.9235 -0.4860
   68SAPC   H7Y 5790   4.347   5.300   7.572 -0.0133  0.7597 -0.2413
   68SAPC   C38 5791   4.429   5.139   7.684  0.0555  0.1317 -0.6502
   68SAPC   H8X 5792   4.533   5.178   7.674 -0.0001  0.2526 -0.7587
   68SAPC   H8Y 5793   4.435   5.028   7.684 -0.0468  0.0971  1.1090
   68SAPC   C39 5794   4.378   5.183   7.818 -0.1629 -0.1805 -0.3097
   68SAPC   H9X 5795   4.272   5.151   7.826  0.3976 -1.5230  4.2831
   68SAPC   H9Y 5796   4.376   5.294   7.827  1.6712 -0.2906  2.7306
   68SAPC  C310 5797   4.459   5.117   7.931 -0.2514  0.0003 -0.5085
   68SAPC  H10X 5798   4.568   5.135   7.918  0.9078 -2.7384  3.4562
   68SAPC  H10Y 5799   4.457   5.006   7.937  1.6530 -0.0506 -0.0576
   68SAPC  C311 5800   4.411   5.178   8.061 -0.0780 -0.0570  0.9473
   68SAPC  H11X 5801   4.302   5.159   8.074 -0.1856 -1.6063 -1.6553
   68SAPC  H11Y 5802   4.434   5.287   8.061  1.5805 -0.3252 -1.6223
   68SAPC  C312 5803   4.481   5.125   8.177 -0.6624 -0.4493 -0.4516
   68SAPC  H12X 5804   4.589   5.150   8.171 -0.7052 -0.3652 -0.9497
   68SAPC  H12Y 5805   4.478   5.014   8.179  1.9921 -0.6325 -1.9682
   68SAPC  C313 5806   4.426   5.182   8.309  0.0774  0.5854  0.3048
   68SAPC  H13X 5807   4.316   5.162   8.306  0.3384 -0.9136 -0.3794
   68SAPC  H13Y 5808   4.432   5.293   8.309  3.7165  0.5241  1.5205
   68SAPC  C314 5809   4.506   5.128   8.429  0.1971  0.6212  0.6441
   68SAPC  H14X 5810   4.608   5.173   8.424  0.5373 -0.2286 -0.5802
   68SAPC  H14Y 5811   4.518   5.018   8.424  2.5236  0.8635 -0.2453
   68SAPC  C315 5812   4.438   5.150   8.564  0.1475 -0.2141  0.1082
   68SAPC  H15X 5813   4.407   5.257   8.571 -0.1757 -0.1944 -1.4158
   68SAPC  H15Y 5814   4.520   5.129   8.637 -1.3240 -0.8081  1.6662
   68SAPC  C316 5815   4.321   5.059   8.601  0.5704  0.1862  0.3005
   68SAPC  H16X 5816   4.340   4.955   8.567 -0.4135  1.1286 -3.6728
   68SAPC  H16Y 5817   4.230   5.080   8.541 -0.6578  0.5047  2.1726
   68SAPC  C317 5818   4.274   5.072   8.747 -0.5013  0.3114  0.0828
   68SAPC  H17X 5819   4.365   5.042   8.804 -0.4648  0.4754  0.1139
   68SAPC  H17Y 5820   4.197   4.995   8.766 -1.0891  0.8705  0.0059
   68SAPC  C318 5821   4.218   5.207   8.789  0.9279 -0.4934  0.2154
   68SAPC  H18X 5822   4.291   5.287   8.810  0.2048  0.3504 -0.4052
   68SAPC  H18Y 5823   4.145   5.189   8.871  1.0273  1.0209  0.6532
   68SAPC  H18Z 5824   4.153   5.248   8.709  1.0207 -0.9549 -0.0998
   69SLPC     N 5825   2.288   3.591  11.317 -0.6776  0.0772  0.2071
   69SLPC   C13 5826   2.367   3.520  11.424  0.2740 -0.1195 -0.1211
   69SLPC  H13A 5827   2.344   3.415  11.415  2.7865 -0.7421 -0.1917
   69SLPC  H13B 5828   2.473   3.541  11.421  0.4765 -1.1585 -2.2393
   69SLPC  H13C 5829   2.331   3.545  11.523 -1.4673 -0.8082 -0.5557
   69SLPC   C14 5830   2.330   3.729  11.310  0.1915 -0.8178  0.5413
   69SLPC  H14A 5831   2.435   3.725  11.286 -0.1058 -1.3320 -0.7815
   69SLPC  H14B 5832   2.285   3.781  11.227  0.6707  0.6751  1.1737
   69SLPC  H14C 5833   2.310   3.788  11.398  2.5464 -3.6376  3.2118
   69SLPC   C15 5834   2.146   3.578  11.352 -0.5580 -0.6774  0.6342
   69SLPC  H15A 5835   2.118   3.475  11.364 -2.2198 -0.4798 -1.0659
   69SLPC  H15B 5836   2.138   3.640  11.441 -0.4727  0.0626  0.1390
   69SLPC  H15C 5837   2.081   3.617  11.275  1.9056  0.7944 -0.8591
   69SLPC   C12 5838   2.312   3.516  11.186 -1.0928  0.4964  0.2465
   69SLPC  H12A 5839   2.229   3.525  11.117 -0.0371  2.1716 -0.8919
   69SLPC  H12B 5840   2.310   3.412  11.215 -0.3954  0.5203  0.3995
   69SLPC   C11 5841   2.446   3.550  11.109  0.1989  0.1193  0.7667
   69SLPC  H11A 5842   2.442   3.650  11.061 -1.9408 -0.6800 -0.8913
   69SLPC  H11B 5843   2.464   3.471  11.032 -1.5112 -0.1578  0.6225
   69SLPC     P 5844   2.695   3.609  11.151  0.0174 -0.0097  0.1168
   69SLPC   O13 5845   2.688   3.758  11.131 -0.0175 -0.1428 -0.5460
   69SLPC   O14 5846   2.805   3.569  11.243 -0.0299 -0.2458  0.5882
   69SLPC   O12 5847   2.557   3.554  11.205  0.3271  0.6101 -0.1877
   69SLPC   O11 5848   2.715   3.546  11.010 -0.2983  0.7040 -0.6355
   69SLPC    C1 5849   2.790   3.611  10.902  0.0646  0.1257 -0.4910
   69SLPC    HA 5850   2.723   3.692  10.868 -0.3174  0.1089  0.1950
   69SLPC    HB 5851   2.886   3.646  10.944 -0.6513 -1.1250  2.4475
   69SLPC    C2 5852   2.813   3.520  10.772  0.3052 -0.6141 -0.3333
   69SLPC    HS 5853   2.903   3.457  10.790 -0.8454 -1.8265  1.5494
   69SLPC   O21 5854   2.821   3.624  10.662  0.0598  0.6542  0.2818
   69SLPC   C21 5855   2.897   3.579  10.565 -0.2835  0.0944 -1.2162
   69SLPC   O22 5856   2.952   3.471  10.560 -0.0769 -0.0454  0.5066
   69SLPC   C22 5857   2.917   3.682  10.458 -1.0129 -0.6856  0.0380
   69SLPC   H2R 5858   2.837   3.759  10.461  0.5277  1.0107 -0.4242
   69SLPC   H2S 5859   3.015   3.733  10.471 -0.5141 -0.7704 -2.6613
   69SLPC    C3 5860   2.688   3.434  10.748  0.2538  0.0704  0.0800
   69SLPC    HX 5861   2.608   3.509  10.767  1.2292  0.9297  0.8880
   69SLPC    HY 5862   2.674   3.363  10.832 -0.7729  0.0204 -0.1108
   69SLPC   O31 5863   2.683   3.377  10.618 -0.4008 -0.1141 -0.4959
   69SLPC   C31 5864   2.607   3.273  10.613  0.0213 -0.1530  0.9977
   69SLPC   O32 5865   2.544   3.221  10.703  0.0260 -0.1064 -0.1014
   69SLPC   C32 5866   2.604   3.240  10.469 -0.0063  0.1120  0.8723
   69SLPC   H2X 5867   2.708   3.235  10.432  0.0616  0.1294  1.0578
   69SLPC   H2Y 5868   2.560   3.331  10.425  0.1200 -1.3129 -2.4636
   69SLPC   C23 5869   2.919   3.616  10.317 -0.3780  0.0319 -0.3282
   69SLPC   H3R 5870   2.966   3.516  10.313 -0.7071 -0.1058 -0.7352
   69SLPC   H3S 5871   2.971   3.677  10.240  2.2157 -0.3862  0.9865
   69SLPC   C24 5872   2.771   3.582  10.292 -0.1252 -0.0866  0.6823
   69SLPC   H4R 5873   2.718   3.679  10.276  0.2884  0.2570  1.4034
   69SLPC   H4S 5874   2.719   3.538  10.380  0.2883  1.4670  1.7431
   69SLPC   C25 5875   2.752   3.484  10.180 -0.1394  1.0258  0.1075
   69SLPC   H5R 5876   2.643   3.461  10.178  0.1025 -1.6436  4.3424
   69SLPC   H5S 5877   2.793   3.383  10.204  2.8845  1.9754 -0.7437
   69SLPC   C26 5878   2.803   3.538  10.049 -0.0935 -0.3478 -0.1908
   69SLPC   H6R 5879   2.913   3.542  10.057  0.0604 -0.4147 -1.8665
   69SLPC   H6S 5880   2.777   3.646  10.050 -0.1838 -0.2739  3.2458
   69SLPC   C27 5881   2.751   3.445   9.935 -0.0120 -0.6256 -0.6638
   69SLPC   H7R 5882   2.641   3.432   9.933  0.0701 -1.8564 -4.4237
   69SLPC   H7S 5883   2.806   3.352   9.962  1.7696  0.9148  1.4445
   69SLPC   C28 5884   2.801   3.486   9.799 -0.0370 -0.4486  0.3729
   69SLPC   H8R 5885   2.904   3.527   9.806 -0.3588  1.0198 -2.3121
   69SLPC   H8S 5886   2.743   3.575   9.766 -0.6190 -0.4525  1.3392
   69SLPC   C29 5887   2.798   3.389   9.685 -0.4993  0.4922 -0.2807
   69SLPC   H9R 5888   2.833   3.288   9.714 -4.0310 -0.4695  1.1840
   69SLPC  C210 5889   2.754   3.399   9.557  0.3357  0.3085  0.6184
   69SLPC  H10R 5890   2.772   3.311   9.493  1.2126  2.0434 -1.7042
   69SLPC  C211 5891   2.689   3.517   9.484 -0.8279 -0.2287  0.2351
   69SLPC  H11R 5892   2.653   3.587   9.562  1.0501  0.3222  0.6566
   69SLPC  H11S 5893   2.596   3.484   9.432 -1.4810  3.1071 -0.9849
   69SLPC  C212 5894   2.770   3.585   9.379 -0.2525  0.0365  0.4421
   69SLPC  H12R 5895   2.781   3.693   9.397  0.4379  0.0993 -0.2796
   69SLPC  C213 5896   2.806   3.537   9.258 -0.0184  0.6400 -0.3416
   69SLPC  H13R 5897   2.849   3.614   9.193  1.7643 -0.9058 -1.1188
   69SLPC  C214 5898   2.786   3.397   9.195  0.0250  0.1844  0.6563
   69SLPC  H14R 5899   2.736   3.332   9.270  2.1274 -0.6560  1.4258
   69SLPC  H14S 5900   2.888   3.352   9.193 -0.1198 -0.2029  1.5090
   69SLPC  C215 5901   2.720   3.401   9.058  0.2055  0.8268 -0.5290
   69SLPC  H15R 5902   2.630   3.466   9.046 -0.6976 -0.3408 -0.2354
   69SLPC  H15S 5903   2.685   3.297   9.039  0.1008  0.3120  2.0956
   69SLPC  C216 5904   2.809   3.432   8.938  0.0153  0.0056  0.6382
   69SLPC  H16R 5905   2.891   3.358   8.924  0.7537  1.0152 -0.6921
   69SLPC  H16S 5906   2.871   3.519   8.966  1.4511 -0.4197 -1.0249
   69SLPC  C217 5907   2.731   3.446   8.810 -0.6947 -0.0345 -0.7587
   69SLPC  H17R 5908   2.655   3.527   8.811  0.4385  1.0661  0.3913
   69SLPC  H17S 5909   2.668   3.354   8.810 -0.5856 -0.1160 -0.0719
   69SLPC  C218 5910   2.814   3.449   8.679 -0.4612  0.6304  0.4541
   69SLPC  H18R 5911   2.740   3.457   8.596 -0.9106 -0.2128  0.7597
   69SLPC  H18S 5912   2.883   3.362   8.674 -1.6174 -0.2654 -0.7187
   69SLPC  H18T 5913   2.883   3.535   8.670 -0.1995  0.5275  1.4409
   69SLPC   C33 5914   2.513   3.128  10.415 -0.4476  0.5775 -0.1258
   69SLPC   H3X 5915   2.417   3.128  10.473  0.3500 -1.1807  1.2830
   69SLPC   H3Y 5916   2.557   3.028  10.433 -1.3041 -0.0307 -1.2389
   69SLPC   C34 5917   2.476   3.133  10.259 -0.6324  0.6670 -0.3358
   69SLPC   H4X 5918   2.456   3.240  10.234 -0.9701  0.9742  1.1141
   69SLPC   H4Y 5919   2.382   3.075  10.254  0.0769 -0.6085  0.4842
   69SLPC   C35 5920   2.595   3.079  10.173 -0.5590 -0.3519 -0.4662
   69SLPC   H5X 5921   2.603   2.969  10.190  0.9102 -0.2893 -0.6550
   69SLPC   H5Y 5922   2.687   3.129  10.211 -2.3498  1.9054  1.1736
   69SLPC   C36 5923   2.586   3.118  10.022 -0.6908  0.6771  0.9261
   69SLPC   H6X 5924   2.686   3.101   9.975  0.1668  0.7238  2.6689
   69SLPC   H6Y 5925   2.572   3.228  10.021 -2.4940  0.5070 -1.5332
   69SLPC   C37 5926   2.474   3.051   9.940  0.0737 -0.1442 -0.0988
   69SLPC   H7X 5927   2.477   3.093   9.837 -0.6855 -1.1036 -0.5247
   69SLPC   H7Y 5928   2.374   3.082   9.977  0.4365  0.6928  0.2026
   69SLPC   C38 5929   2.479   2.905   9.951 -0.4475  0.0095 -0.4891
   69SLPC   H8X 5930   2.406   2.870  10.026 -1.7773 -0.4339 -1.9303
   69SLPC   H8Y 5931   2.580   2.865   9.975 -0.6416 -1.3002 -1.6943
   69SLPC   C39 5932   2.432   2.847   9.821  0.1717  0.2620 -0.0913
   69SLPC   H9X 5933   2.499   2.879   9.739 -1.1779  0.7620 -1.0310
   69SLPC   H9Y 5934   2.333   2.889   9.797  0.5371 -0.1635 -2.5466
   69SLPC  C310 5935   2.434   2.693   9.808  0.0919 -0.9132 -0.0872
   69SLPC  H10X 5936   2.341   2.647   9.849 -0.5418 -0.1767 -0.6476
   69SLPC  H10Y 5937   2.509   2.649   9.877  1.5016  1.9065  0.3350
   69SLPC  C311 5938   2.460   2.644   9.662  0.5070 -0.0662  0.1514
   69SLPC  H11X 5939   2.456   2.533   9.661  1.0276 -0.0882 -0.6370
   69SLPC  H11Y 5940   2.564   2.668   9.629  0.3434 -1.5104 -1.5614
   69SLPC  C312 5941   2.354   2.687   9.565 -0.3212 -0.2885 -0.2492
   69SLPC  H12X 5942   2.346   2.798   9.566 -0.3095 -0.2738  1.5726
   69SLPC  H12Y 5943   2.251   2.654   9.590 -0.5446 -1.3268 -2.3619
   69SLPC  C313 5944   2.385   2.638   9.420 -0.3096 -0.2546  0.0426
   69SLPC  H13X 5945   2.384   2.528   9.435 -0.7864 -0.2405  0.1370
   69SLPC  H13Y 5946   2.489   2.669   9.398 -0.8927  1.8234 -0.0348
   69SLPC  C314 5947   2.285   2.683   9.317 -0.6075  0.2921 -0.1617
   69SLPC  H14X 5948   2.295   2.791   9.296 -3.4613  0.6512 -0.1697
   69SLPC  H14Y 5949   2.182   2.670   9.358 -0.3206 -1.0550  0.1977
   69SLPC  C315 5950   2.286   2.596   9.189  0.8528 -0.3864 -0.2245
   69SLPC  H15X 5951   2.250   2.494   9.217  0.9244 -0.4067 -0.2073
   69SLPC  H15Y 5952   2.392   2.585   9.158  1.0400 -1.3304  0.6748
   69SLPC  C316 5953   2.202   2.660   9.083  0.1883 -0.8092 -0.1638
   69SLPC  H16X 5954   2.241   2.762   9.062  0.3719 -0.3721  2.0457
   69SLPC  H16Y 5955   2.099   2.669   9.123 -0.1145 -0.5729 -0.9672
   69SLPC  C317 5956   2.206   2.571   8.961  0.5325 -0.6672 -0.0689
   69SLPC  H17X 5957   2.122   2.600   8.894  0.3097 -0.7509  0.1725
   69SLPC  H17Y 5958   2.201   2.462   8.984  0.1187 -0.9325 -1.3221
   69SLPC  C318 5959   2.334   2.604   8.878  0.0981  0.2000 -0.4520
   69SLPC  H18X 5960   2.349   2.713   8.865  1.3658  0.1366  0.3254
   69SLPC  H18Y 5961   2.325   2.551   8.781  0.1731  0.0468 -0.3749
   69SLPC  H18Z 5962   2.427   2.568   8.928 -0.3119 -1.1489 -0.6208
   70SLPC     N 5963   3.700   5.868  11.183  0.1224  1.1038 -0.5237
   70SLPC   C13 5964   3.682   5.725  11.141 -0.5068  0.5307 -0.4588
   70SLPC  H13A 5965   3.633   5.665  11.217  2.0412  0.3729  1.1656
   70SLPC  H13B 5966   3.635   5.713  11.044  0.9004 -2.1833 -0.9052
   70SLPC  H13C 5967   3.778   5.678  11.130 -0.6013 -0.1064  1.1465
   70SLPC   C14 5968   3.794   5.920  11.077 -0.3543 -0.6273 -0.3432
   70SLPC  H14A 5969   3.751   5.910  10.979 -1.3765 -0.0032  0.0252
   70SLPC  H14B 5970   3.819   6.023  11.093  0.1900 -1.0591  1.9849
   70SLPC  H14C 5971   3.882   5.861  11.057  0.2941 -0.0728  0.7519
   70SLPC   C15 5972   3.768   5.869  11.314 -0.0915 -0.0984 -0.5376
   70SLPC  H15A 5973   3.799   5.969  11.340 -0.1378 -0.0772 -0.5614
   70SLPC  H15B 5974   3.701   5.846  11.396  0.1931  1.8267  0.3063
   70SLPC  H15C 5975   3.851   5.801  11.316 -0.5054 -0.6244 -0.9276
   70SLPC   C12 5976   3.573   5.954  11.185  0.5188 -0.0490 -0.4786
   70SLPC  H12A 5977   3.580   6.043  11.246 -2.0448  0.4629 -0.8229
   70SLPC  H12B 5978   3.498   5.892  11.231 -1.6896  2.1038 -1.0268
   70SLPC   C11 5979   3.507   6.009  11.052 -0.0450  0.1727  0.0943
   70SLPC  H11A 5980   3.412   6.059  11.081  0.6937  2.6643 -1.4878
   70SLPC  H11B 5981   3.480   5.915  10.998 -1.2104  0.7458 -0.3612
   70SLPC     P 5982   3.608   6.241  10.994  0.0311  0.2007 -0.2470
   70SLPC   O13 5983   3.572   6.271  11.137 -0.2478  0.0109  0.0936
   70SLPC   O14 5984   3.747   6.275  10.951 -0.5067  0.1623 -0.3510
   70SLPC   O12 5985   3.589   6.086  10.970  0.0216  0.1247  0.2380
   70SLPC   O11 5986   3.502   6.317  10.900  0.1998 -0.2204  0.0403
   70SLPC    C1 5987   3.374   6.255  10.873  0.4247 -0.8588  0.5201
   70SLPC    HA 5988   3.382   6.156  10.822  1.0096 -0.7447  0.3757
   70SLPC    HB 5989   3.323   6.251  10.971 -1.5600  0.2499 -0.4214
   70SLPC    C2 5990   3.286   6.349  10.777  0.0024  0.2558 -0.2254
   70SLPC    HS 5991   3.215   6.284  10.721  0.8921 -0.6693 -0.3304
   70SLPC   O21 5992   3.368   6.418  10.682  0.2453 -0.2676 -0.0288
   70SLPC   C21 5993   3.439   6.348  10.594  0.0592 -0.9348 -0.0136
   70SLPC   O22 5994   3.390   6.246  10.540  0.3637 -0.6777 -0.3383
   70SLPC   C22 5995   3.577   6.417  10.585 -0.0470 -0.1183 -0.0134
   70SLPC   H2R 5996   3.567   6.519  10.626  0.3253  0.0869 -0.4236
   70SLPC   H2S 5997   3.644   6.359  10.651 -1.0467 -0.7231  0.4980
   70SLPC    C3 5998   3.205   6.445  10.864 -0.1004  0.0718  0.1099
   70SLPC    HX 5999   3.272   6.508  10.927 -0.0452 -0.8501  0.9968
   70SLPC    HY 6000   3.152   6.386  10.941  2.6705 -0.4092  1.7990
   70SLPC   O31 6001   3.118   6.531  10.784 -0.6327 -0.0057  0.1705
   70SLPC   C31 6002   3.174   6.650  10.755 -0.6054 -0.0239 -0.4930
   70SLPC   O32 6003   3.287   6.686  10.791  0.5648 -0.2502  0.1550
   70SLPC   C32 6004   3.083   6.724  10.653 -0.5713  0.2759 -0.2739
   70SLPC   H2X 6005   3.085   6.834  10.669 -3.1656  0.2106  0.8371
   70SLPC   H2Y 6006   2.980   6.685  10.662 -0.0243 -0.7473  2.6720
   70SLPC   C23 6007   3.648   6.433  10.451 -0.0782  0.1911 -0.3667
   70SLPC   H3R 6008   3.746   6.470  10.488 -1.1106  0.7785  1.9962
   70SLPC   H3S 6009   3.594   6.501  10.381 -1.0760 -1.5890 -1.3848
   70SLPC   C24 6010   3.660   6.301  10.377  0.1658  0.0118 -0.2210
   70SLPC   H4R 6011   3.567   6.274  10.323 -0.0022 -1.0712  0.5627
   70SLPC   H4S 6012   3.668   6.224  10.457 -2.8991 -0.0834  0.1000
   70SLPC   C25 6013   3.778   6.298  10.284 -0.1073 -0.7102 -0.2785
   70SLPC   H5R 6014   3.812   6.195  10.264  0.7558 -0.2130 -1.4743
   70SLPC   H5S 6015   3.866   6.343  10.336 -1.5950  0.3328  1.4669
   70SLPC   C26 6016   3.748   6.364  10.152  0.3838  0.0542  0.3485
   70SLPC   H6R 6017   3.841   6.386  10.096 -0.0849  0.5276 -0.2579
   70SLPC   H6S 6018   3.696   6.460  10.170 -0.7665 -0.2400 -1.1636
   70SLPC   C27 6019   3.661   6.287  10.055  0.0544 -0.1078  0.2222
   70SLPC   H7R 6020   3.563   6.254  10.095  0.2127 -0.3820  0.3900
   70SLPC   H7S 6021   3.717   6.193  10.034  0.8050  0.3635  0.0906
   70SLPC   C28 6022   3.647   6.356   9.921  0.3727  0.5199 -0.4061
   70SLPC   H8R 6023   3.746   6.388   9.881 -0.3451  2.2229 -0.8917
   70SLPC   H8S 6024   3.599   6.452   9.949  0.8387  0.7831 -0.4994
   70SLPC   C29 6025   3.560   6.275   9.823 -0.3581  0.4433  0.0264
   70SLPC   H9R 6026   3.455   6.258   9.852  0.3436 -2.4348  1.2370
   70SLPC  C210 6027   3.603   6.225   9.707  0.0574  0.1397  0.0317
   70SLPC  H10R 6028   3.533   6.169   9.643 -0.2191  0.7294 -0.1913
   70SLPC  C211 6029   3.745   6.231   9.656  0.1952  0.2474  0.1960
   70SLPC  H11R 6030   3.814   6.210   9.741 -2.1404 -1.8789  1.7320
   70SLPC  H11S 6031   3.768   6.337   9.633 -0.8640  0.5350  0.4144
   70SLPC  C212 6032   3.766   6.137   9.540 -0.2657  0.0864 -0.1625
   70SLPC  H12R 6033   3.826   6.047   9.563  0.9647  0.8325 -0.3459
   70SLPC  C213 6034   3.740   6.167   9.413  0.9297 -1.0736 -0.0293
   70SLPC  H13R 6035   3.751   6.093   9.332  0.0154 -0.4680 -0.7308
   70SLPC  C214 6036   3.687   6.305   9.361  0.7403 -0.1900  0.2852
   70SLPC  H14R 6037   3.711   6.385   9.434 -3.1244 -0.6447  2.3254
   70SLPC  H14S 6038   3.576   6.310   9.363  0.6311 -1.6711  2.6431
   70SLPC  C215 6039   3.734   6.324   9.220 -0.4130 -0.1511 -0.8444
   70SLPC  H15R 6040   3.840   6.298   9.201 -0.2652 -0.6590  0.5268
   70SLPC  H15S 6041   3.721   6.432   9.200  0.9654  0.2207  0.1544
   70SLPC  C216 6042   3.646   6.252   9.112 -0.2551 -0.0344 -0.9519
   70SLPC  H16R 6043   3.548   6.299   9.136  0.1476  1.0667 -1.4062
   70SLPC  H16S 6044   3.642   6.141   9.125 -1.7093 -0.3662 -3.5932
   70SLPC  C217 6045   3.663   6.287   8.969 -0.0271 -0.1699  0.3097
   70SLPC  H17R 6046   3.681   6.397   8.971  2.9927 -0.5293 -1.2945
   70SLPC  H17S 6047   3.567   6.261   8.920 -0.1135  0.9646 -0.1447
   70SLPC  C218 6048   3.777   6.231   8.885  0.3500 -0.1128 -0.4288
   70SLPC  H18R 6049   3.746   6.234   8.778  0.9441 -0.3545 -0.6134
   70SLPC  H18S 6050   3.805   6.125   8.905  3.1758  0.6526  0.0492
   70SLPC  H18T 6051   3.872   6.287   8.897 -0.2993  1.8195 -3.2925
   70SLPC   C33 6052   3.149   6.710  10.511  0.4762  0.1101  0.7666
   70SLPC   H3X 6053   3.065   6.743  10.446  0.7368  0.3791  0.5589
   70SLPC   H3Y 6054   3.179   6.606  10.488  3.6543  1.4268 -1.8947
   70SLPC   C34 6055   3.274   6.797  10.485  0.4768 -0.0668 -0.2580
   70SLPC   H4X 6056   3.366   6.759  10.534  1.1135  1.3573 -0.3003
   70SLPC   H4Y 6057   3.256   6.899  10.526 -1.8166 -0.9986  1.2827
   70SLPC   C35 6058   3.302   6.814  10.333 -0.5138  0.0391 -0.0666
   70SLPC   H5X 6059   3.373   6.899  10.324  0.0834 -0.3842  0.5716
   70SLPC   H5Y 6060   3.211   6.845  10.277 -0.3483  0.3480 -0.1646
   70SLPC   C36 6061   3.363   6.692  10.259 -0.0353  0.6823 -0.6248
   70SLPC   H6X 6062   3.429   6.636  10.328  0.2591  2.6040  0.7303
   70SLPC   H6Y 6063   3.423   6.738  10.178  0.7301  0.4016 -0.2229
   70SLPC   C37 6064   3.269   6.583  10.206 -0.0109 -0.0231  0.1374
   70SLPC   H7X 6065   3.177   6.637  10.174  0.7622  1.0608 -0.3121
   70SLPC   H7Y 6066   3.245   6.505  10.282 -0.3591  0.2439  0.3018
   70SLPC   C38 6067   3.323   6.503  10.082 -0.8602 -1.0617 -0.3355
   70SLPC   H8X 6068   3.428   6.483  10.112 -0.4018  1.0058 -0.4205
   70SLPC   H8Y 6069   3.332   6.577  10.000  0.4026  1.2335  1.7535
   70SLPC   C39 6070   3.248   6.373  10.055 -0.5953 -0.1695 -0.1351
   70SLPC   H9X 6071   3.239   6.320  10.152 -0.5595  0.6520  0.3287
   70SLPC   H9Y 6072   3.318   6.309   9.997  2.3451  2.6771 -0.0080
   70SLPC  C310 6073   3.112   6.396   9.994 -0.1915  0.1801 -0.1670
   70SLPC  H10X 6074   3.077   6.492  10.038  1.8780 -0.1528  2.4886
   70SLPC  H10Y 6075   3.042   6.313  10.018 -0.5043  0.9881  1.9716
   70SLPC  C311 6076   3.123   6.424   9.842 -0.1535  0.0690  0.2193
   70SLPC  H11X 6077   3.172   6.333   9.800  1.9756  1.8218 -1.3294
   70SLPC  H11Y 6078   3.180   6.517   9.823 -2.2238  1.2314 -0.5894
   70SLPC  C312 6079   2.989   6.447   9.769  0.5401  0.2361 -0.3598
   70SLPC  H12X 6080   3.003   6.517   9.684 -1.8177  0.8913 -0.2888
   70SLPC  H12Y 6081   2.924   6.486   9.850 -1.3322 -2.9628 -0.1452
   70SLPC  C313 6082   2.906   6.324   9.719 -0.3912 -0.3178  0.7911
   70SLPC  H13X 6083   2.903   6.241   9.792  1.5337 -1.4287 -0.3026
   70SLPC  H13Y 6084   2.961   6.295   9.627  1.8603  1.5287  1.4362
   70SLPC  C314 6085   2.764   6.368   9.690  0.2323  0.4344  0.6978
   70SLPC  H14X 6086   2.758   6.454   9.621 -1.0558 -1.0315 -1.1020
   70SLPC  H14Y 6087   2.706   6.386   9.783 -2.0028 -1.3600 -0.2641
   70SLPC  C315 6088   2.697   6.257   9.605 -0.2400 -0.1857  0.7005
   70SLPC  H15X 6089   2.676   6.175   9.678 -1.3963 -0.0592  0.5370
   70SLPC  H15Y 6090   2.774   6.223   9.533 -0.8865  0.9090 -0.5494
   70SLPC  C316 6091   2.561   6.290   9.538 -0.1027 -0.2205  0.1190
   70SLPC  H16X 6092   2.535   6.202   9.475 -0.2132  0.9724 -1.5896
   70SLPC  H16Y 6093   2.590   6.377   9.475 -1.5216  0.3118  0.1729
   70SLPC  C317 6094   2.452   6.342   9.629  0.1308  0.1866  0.1306
   70SLPC  H17X 6095   2.484   6.426   9.694 -1.5566 -0.2207  1.5500
   70SLPC  H17Y 6096   2.432   6.258   9.700  2.3327  1.1810  2.0683
   70SLPC  C318 6097   2.323   6.378   9.553 -0.1405 -0.1702  0.3519
   70SLPC  H18X 6098   2.347   6.445   9.467  1.3775 -2.4409 -1.0939
   70SLPC  H18Y 6099   2.255   6.432   9.623 -0.7834  0.7952 -0.9686
   70SLPC  H18Z 6100   2.276   6.287   9.510 -0.1780  0.0678 -0.1180
   71SLPC     N 6101   3.018   4.269  10.974  0.0723 -0.4736 -0.1258
   71SLPC   C13 6102   2.932   4.152  10.959  0.3445  0.8740  0.5089
   71SLPC  H13A 6103   2.899   4.110  11.053  0.6951 -1.1757 -0.2261
   71SLPC  H13B 6104   2.852   4.184  10.894 -0.3434 -0.8251  0.4703
   71SLPC  H13C 6105   2.983   4.080  10.897 -0.1929 -0.3154  1.3985
   71SLPC   C14 6106   3.123   4.266  10.868 -0.6717  0.6366 -0.3683
   71SLPC  H14A 6107   3.085   4.312  10.778 -1.9931  1.3325  0.5257
   71SLPC  H14B 6108   3.207   4.326  10.897 -0.6715 -0.1614  1.4087
   71SLPC  H14C 6109   3.167   4.168  10.852  2.7973  1.9670  0.2770
   71SLPC   C15 6110   3.086   4.258  11.111 -0.2097 -0.9008  0.3043
   71SLPC  H15A 6111   3.159   4.336  11.126 -0.8278 -0.4785  1.1837
   71SLPC  H15B 6112   3.025   4.257  11.199  0.1818 -1.7019  0.5792
   71SLPC  H15C 6113   3.138   4.163  11.116  1.7038  0.1639  1.9982
   71SLPC   C12 6114   2.939   4.394  10.959  0.3449  0.0111  0.7918
   71SLPC  H12A 6115   3.015   4.471  10.966  0.2579  0.2755 -0.7427
   71SLPC  H12B 6116   2.869   4.396  11.040 -0.4950  1.7534  0.0705
   71SLPC   C11 6117   2.877   4.425  10.821  0.9020  0.0551 -0.2933
   71SLPC  H11A 6118   2.798   4.501  10.837  1.8789  0.7655  1.4812
   71SLPC  H11B 6119   2.820   4.349  10.763  0.0118  0.8196 -0.4396
   71SLPC     P 6120   3.034   4.625  10.755  0.0099  0.0271 -0.0793
   71SLPC   O13 6121   3.080   4.645  10.892 -0.3440 -0.3082  0.4822
   71SLPC   O14 6122   3.135   4.639  10.645 -0.2088  0.3030 -0.3480
   71SLPC   O12 6123   2.991   4.471  10.745  0.5826  0.1200  0.3356
   71SLPC   O11 6124   2.905   4.702  10.727  0.2098 -0.3740  0.7179
   71SLPC    C1 6125   2.812   4.673  10.616  0.1035  0.1861 -0.8657
   71SLPC    HA 6126   2.818   4.564  10.593 -0.0825 -0.3724  1.4750
   71SLPC    HB 6127   2.704   4.678  10.641  0.3213  0.8144  0.0174
   71SLPC    C2 6128   2.831   4.744  10.477 -0.0786 -0.0637 -0.2243
   71SLPC    HS 6129   2.746   4.709  10.414  0.0041 -0.5082 -0.0971
   71SLPC   O21 6130   2.955   4.708  10.423  0.2398 -0.2396 -0.6237
   71SLPC   C21 6131   2.961   4.589  10.363  0.2514 -0.2319 -0.0780
   71SLPC   O22 6132   2.866   4.516  10.347  0.0007 -0.4912 -0.4244
   71SLPC   C22 6133   3.100   4.571  10.305 -0.6288 -0.4447 -0.7292
   71SLPC   H2R 6134   3.166   4.603  10.388  1.5512 -1.4002 -1.9996
   71SLPC   H2S 6135   3.119   4.468  10.269  1.3356  0.0515 -1.2665
   71SLPC    C3 6136   2.827   4.898  10.498 -0.0003  0.5792 -0.6361
   71SLPC    HX 6137   2.929   4.922  10.534 -0.2808  0.4047  0.3320
   71SLPC    HY 6138   2.759   4.934  10.579 -0.7149 -0.8858 -0.5491
   71SLPC   O31 6139   2.790   4.963  10.374 -0.2037 -0.0923  0.7483
   71SLPC   C31 6140   2.661   4.960  10.346 -0.4513 -0.3862 -0.1016
   71SLPC   O32 6141   2.576   4.894  10.402 -0.0822  0.3965  0.3832
   71SLPC   C32 6142   2.634   5.036  10.217 -0.0994  0.7732  0.0327
   71SLPC   H2X 6143   2.670   4.969  10.136 -0.2906 -1.2855  1.5467
   71SLPC   H2Y 6144   2.703   5.122  10.214  1.3671 -0.3350  0.6631
   71SLPC   C23 6145   3.129   4.657  10.188  0.2121 -0.3710  0.5255
   71SLPC   H3R 6146   3.236   4.664  10.159 -0.4178 -1.8043 -2.5650
   71SLPC   H3S 6147   3.094   4.762  10.201  1.9972  0.4607 -0.9278
   71SLPC   C24 6148   3.077   4.610  10.049 -0.1649 -0.7373  0.0110
   71SLPC   H4R 6149   2.966   4.597  10.050 -0.4715  1.4832  1.1254
   71SLPC   H4S 6150   3.106   4.512  10.005 -1.2681 -1.2294  0.3359
   71SLPC   C25 6151   3.105   4.718   9.937 -0.1716  0.2634 -1.0434
   71SLPC   H5R 6152   3.215   4.732   9.926  0.0804  0.1504  0.9482
   71SLPC   H5S 6153   3.057   4.810   9.974  2.2447  0.9704  0.6323
   71SLPC   C26 6154   3.053   4.682   9.797 -0.3852 -0.7618  0.2534
   71SLPC   H6R 6155   3.062   4.571   9.803  0.7541 -0.5988  2.4101
   71SLPC   H6S 6156   3.112   4.728   9.715 -0.8904  0.3313  0.4912
   71SLPC   C27 6157   2.906   4.723   9.786  0.1905  0.1248  0.6690
   71SLPC   H7R 6158   2.898   4.834   9.789  2.6545  0.4528 -1.2215
   71SLPC   H7S 6159   2.843   4.679   9.867 -2.8071  2.6068 -0.1230
   71SLPC   C28 6160   2.839   4.677   9.652  0.4084 -0.5939 -0.0326
   71SLPC   H8R 6161   2.865   4.570   9.639 -3.1445 -1.6604  0.6417
   71SLPC   H8S 6162   2.893   4.729   9.570  0.9565 -2.5964 -0.9873
   71SLPC   C29 6163   2.689   4.715   9.653 -0.1623 -0.1281  0.6045
   71SLPC   H9R 6164   2.647   4.703   9.753 -0.2630 -1.0801  0.4621
   71SLPC  C210 6165   2.626   4.768   9.551  0.2349  0.1719  0.2747
   71SLPC  H10R 6166   2.517   4.773   9.566  0.2359 -0.4942  0.5247
   71SLPC  C211 6167   2.670   4.812   9.411 -0.3936  0.0738 -0.8316
   71SLPC  H11R 6168   2.777   4.785   9.395 -0.2695  1.0374 -1.7447
   71SLPC  H11S 6169   2.658   4.922   9.413  1.4888  0.3303 -1.6867
   71SLPC  C212 6170   2.572   4.753   9.307 -0.1842 -0.3491  0.1085
   71SLPC  H12R 6171   2.465   4.765   9.327 -0.1636 -1.2384  0.8228
   71SLPC  C213 6172   2.599   4.714   9.180 -0.2168  0.1130 -0.6028
   71SLPC  H13R 6173   2.519   4.678   9.114 -0.1706  1.6300 -1.5241
   71SLPC  C214 6174   2.740   4.702   9.120  0.4763  0.3189  0.2685
   71SLPC  H14R 6175   2.767   4.594   9.119 -2.6443 -0.6147  1.6214
   71SLPC  H14S 6176   2.821   4.754   9.174  3.1560 -2.3870 -0.8119
   71SLPC  C215 6177   2.746   4.755   8.978  0.2011 -0.0364 -0.6040
   71SLPC  H15R 6178   2.734   4.865   8.984 -0.7275 -0.1971  1.1093
   71SLPC  H15S 6179   2.663   4.705   8.924 -2.0482  0.6793  1.9774
   71SLPC  C216 6180   2.879   4.726   8.902  0.2275  0.2405 -0.1070
   71SLPC  H16R 6181   2.909   4.619   8.906  0.5237  0.3429  0.6828
   71SLPC  H16S 6182   2.952   4.798   8.946  0.3054 -1.5036  2.8900
   71SLPC  C217 6183   2.869   4.770   8.755  0.0484  0.3449  0.3800
   71SLPC  H17R 6184   2.785   4.711   8.713 -0.9323  2.0189 -0.0771
   71SLPC  H17S 6185   2.962   4.745   8.700  0.7725  2.1812  0.6801
   71SLPC  C218 6186   2.839   4.917   8.727 -0.0422  0.2235  0.1922
   71SLPC  H18R 6187   2.752   4.950   8.788 -0.9630  0.7750 -1.3746
   71SLPC  H18S 6188   2.819   4.930   8.619  0.2843 -0.8881 -0.0192
   71SLPC  H18T 6189   2.923   4.986   8.751 -3.2684  3.7215  2.5261
   71SLPC   C33 6190   2.477   5.062  10.201 -0.5419  0.1075 -0.0491
   71SLPC   H3X 6191   2.425   5.113  10.284  0.2525 -0.3395  0.7383
   71SLPC   H3Y 6192   2.432   4.961  10.213  1.3269 -0.8405 -0.5460
   71SLPC   C34 6193   2.430   5.128  10.067  0.2123 -0.4038 -0.0634
   71SLPC   H4X 6194   2.483   5.225  10.074  2.5842 -1.4706 -1.8699
   71SLPC   H4Y 6195   2.320   5.139  10.075  0.1387 -0.1672 -1.1486
   71SLPC   C35 6196   2.459   5.055   9.935  0.8257  0.5015  0.1957
   71SLPC   H5X 6197   2.558   5.006   9.922 -1.1800 -3.7496 -1.4050
   71SLPC   H5Y 6198   2.450   5.124   9.848  2.1776 -1.5838 -1.7306
   71SLPC   C36 6199   2.349   4.950   9.918  0.3666  0.0646 -0.8667
   71SLPC   H6X 6200   2.251   4.999   9.937 -0.3260 -0.6975 -2.2722
   71SLPC   H6Y 6201   2.340   4.877  10.001 -1.5287  0.9978 -0.1914
   71SLPC   C37 6202   2.355   4.882   9.787  0.2561  0.2462  0.3771
   71SLPC   H7X 6203   2.457   4.839   9.784  0.8359  1.6110 -0.5826
   71SLPC   H7Y 6204   2.344   4.952   9.702  1.6269 -1.0810 -0.9382
   71SLPC   C38 6205   2.258   4.759   9.778 -0.4204 -0.0573  0.3615
   71SLPC   H8X 6206   2.153   4.794   9.786  0.1734  1.7271  0.7776
   71SLPC   H8Y 6207   2.290   4.688   9.858  0.6342  2.0898  1.9579
   71SLPC   C39 6208   2.265   4.690   9.645 -0.3801 -0.1298 -0.0598
   71SLPC   H9X 6209   2.203   4.598   9.657  0.4091 -0.4582  1.9227
   71SLPC   H9Y 6210   2.369   4.655   9.630  0.0208  1.1944 -0.4453
   71SLPC  C310 6211   2.217   4.767   9.526 -0.2400 -0.2579 -0.2081
   71SLPC  H10X 6212   2.290   4.846   9.496 -1.1136  0.3703 -0.7013
   71SLPC  H10Y 6213   2.129   4.828   9.553  0.1059 -0.3243  1.1679
   71SLPC  C311 6214   2.178   4.676   9.414 -1.2083  0.5279 -0.8931
   71SLPC  H11X 6215   2.088   4.617   9.444 -0.4425  0.7333  2.0603
   71SLPC  H11Y 6216   2.271   4.617   9.399 -1.0852  0.8138 -1.2803
   71SLPC  C312 6217   2.153   4.753   9.282 -0.0693 -0.1224 -0.4411
   71SLPC  H12X 6218   2.233   4.830   9.275  0.7686 -0.7964  1.1771
   71SLPC  H12Y 6219   2.050   4.793   9.290  0.2901  0.6838  0.5551
   71SLPC  C313 6220   2.155   4.661   9.155  0.5835 -0.6887 -0.3237
   71SLPC  H13X 6221   2.073   4.586   9.160  1.4051 -1.5615  0.6159
   71SLPC  H13Y 6222   2.245   4.597   9.155  0.1753 -1.3164  1.5887
   71SLPC  C314 6223   2.136   4.738   9.020 -0.5027 -0.3141  0.2086
   71SLPC  H14X 6224   2.037   4.788   9.019  0.4072  1.5770 -1.5118
   71SLPC  H14Y 6225   2.128   4.650   8.952  0.4745  0.9411 -1.5992
   71SLPC  C315 6226   2.252   4.827   8.973  0.1774  0.2019 -0.1825
   71SLPC  H15X 6227   2.346   4.770   8.986  1.1980  2.0829  1.3305
   71SLPC  H15Y 6228   2.255   4.916   9.040  2.1710  0.4933 -0.6013
   71SLPC  C316 6229   2.225   4.867   8.829  0.3816 -0.5584  0.3073
   71SLPC  H16X 6230   2.120   4.894   8.804 -0.0035 -1.4607  0.9029
   71SLPC  H16Y 6231   2.255   4.782   8.764 -0.2720  0.0633 -0.8520
   71SLPC  C317 6232   2.303   4.995   8.794 -0.5080 -0.3655 -0.8250
   71SLPC  H17X 6233   2.259   5.067   8.867 -0.5534 -2.0736  0.8982
   71SLPC  H17Y 6234   2.273   5.029   8.693  1.1071  1.4336 -0.7747
   71SLPC  C318 6235   2.453   4.982   8.811 -0.4643  0.2609  0.1352
   71SLPC  H18X 6236   2.511   5.072   8.782  1.8545 -1.7338 -1.9083
   71SLPC  H18Y 6237   2.495   4.903   8.745 -0.7019 -0.9664  1.4107
   71SLPC  H18Z 6238   2.490   4.944   8.908 -1.1093 -0.7188  0.0121
   72SLPC     N 6239   3.311   4.959  11.077  0.3840 -0.4932  0.0733
   72SLPC   C13 6240   3.172   4.914  11.044  0.1612 -0.3505 -0.1632
   72SLPC  H13A 6241   3.168   4.825  10.984 -0.3552 -1.2634  1.1849
   72SLPC  H13B 6242   3.120   4.883  11.134 -1.2248 -0.2742 -0.9098
   72SLPC  H13C 6243   3.121   4.992  10.990 -1.0535 -1.3701 -0.5292
   72SLPC   C14 6244   3.378   4.848  11.149  0.6034 -0.4832  0.5566
   72SLPC  H14A 6245   3.331   4.840  11.245  1.1221 -4.5008  0.6234
   72SLPC  H14B 6246   3.371   4.759  11.089  1.0289 -0.2878  0.2084
   72SLPC  H14C 6247   3.480   4.877  11.171  0.2142  0.7410  0.8426
   72SLPC   C15 6248   3.324   5.087  11.171 -0.0495  0.5462  0.2147
   72SLPC  H15A 6249   3.294   5.066  11.272 -1.6578  2.2334  0.1452
   72SLPC  H15B 6250   3.423   5.131  11.176 -0.7844  2.1559  1.5581
   72SLPC  H15C 6251   3.249   5.162  11.150  0.4527  0.3948 -2.5946
   72SLPC   C12 6252   3.384   4.985  10.954  0.1398 -0.4553  0.5130
   72SLPC  H12A 6253   3.490   5.000  10.968  0.5679 -0.1662 -2.4548
   72SLPC  H12B 6254   3.357   5.081  10.913  0.8015 -1.2327 -1.9381
   72SLPC   C11 6255   3.378   4.873  10.849  0.0237 -0.6861  0.5670
   72SLPC  H11A 6256   3.414   4.919  10.754  0.1824 -0.5132  0.7122
   72SLPC  H11B 6257   3.273   4.846  10.825 -1.7067  3.3146  2.6623
   72SLPC     P 6258   3.615   4.759  10.895 -0.5700 -0.2189 -0.3916
   72SLPC   O13 6259   3.670   4.896  10.930 -0.5795  0.4328  0.1915
   72SLPC   O14 6260   3.634   4.653  10.998  0.0856  0.2606  0.4149
   72SLPC   O12 6261   3.456   4.760  10.874  0.1126  0.6561  0.5700
   72SLPC   O11 6262   3.676   4.713  10.753 -0.5181  0.5315  0.2628
   72SLPC    C1 6263   3.717   4.806  10.654  1.4607  0.2449  0.6552
   72SLPC    HA 6264   3.702   4.912  10.682  2.1305  0.8892 -1.2887
   72SLPC    HB 6265   3.826   4.804  10.630  1.7988 -2.2293  2.0363
   72SLPC    C2 6266   3.632   4.785  10.531  0.0326 -0.4992  0.1537
   72SLPC    HS 6267   3.528   4.820  10.543  0.1587  0.9774 -2.4587
   72SLPC   O21 6268   3.645   4.650  10.490 -0.0812 -0.1868  0.1623
   72SLPC   C21 6269   3.537   4.599  10.444  1.0623  0.1110 -0.5877
   72SLPC   O22 6270   3.434   4.658  10.425  0.1652  0.1291 -0.0987
   72SLPC   C22 6271   3.561   4.453  10.411  0.2746  0.5348 -0.4222
   72SLPC   H2R 6272   3.662   4.439  10.368 -0.6760 -0.1639 -2.5737
   72SLPC   H2S 6273   3.553   4.388  10.501  0.0918  1.0226 -0.0782
   72SLPC    C3 6274   3.679   4.883  10.418 -0.2024 -0.1450 -0.1031
   72SLPC    HX 6275   3.785   4.853  10.403 -0.0373 -0.0022  0.7188
   72SLPC    HY 6276   3.697   4.981  10.467  3.1651 -0.6452 -0.0790
   72SLPC   O31 6277   3.610   4.882  10.300 -0.7855 -0.0437 -0.2942
   72SLPC   C31 6278   3.503   4.960  10.286  0.0323 -0.1021  0.4546
   72SLPC   O32 6279   3.460   5.022  10.378  0.2182 -0.3234 -0.0474
   72SLPC   C32 6280   3.434   4.923  10.157  0.3012  0.4793 -0.5420
   72SLPC   H2X 6281   3.332   4.968  10.153 -0.7224 -1.5730  0.9031
   72SLPC   H2Y 6282   3.414   4.816  10.177 -2.3901  0.7544 -1.3041
   72SLPC   C23 6283   3.469   4.415  10.292  0.3367 -0.0545 -0.9195
   72SLPC   H3R 6284   3.366   4.451  10.310  1.0592  1.4299  0.5752
   72SLPC   H3S 6285   3.474   4.304  10.292  0.6507 -0.1457  2.2398
   72SLPC   C24 6286   3.524   4.462  10.156  0.3028  0.1805 -0.3276
   72SLPC   H4R 6287   3.632   4.436  10.157  0.5511  1.1869 -0.3301
   72SLPC   H4S 6288   3.525   4.571  10.132  1.2659  0.2342 -0.0925
   72SLPC   C25 6289   3.461   4.385  10.037  0.3887  0.3027  0.8071
   72SLPC   H5R 6290   3.350   4.391  10.043  0.3396  0.4575 -0.1562
   72SLPC   H5S 6291   3.479   4.275  10.040  1.7112  0.3894 -1.7347
   72SLPC   C26 6292   3.505   4.432   9.897 -0.6560  0.3049 -0.4700
   72SLPC   H6R 6293   3.609   4.396   9.882 -1.0523 -0.0828 -2.7091
   72SLPC   H6S 6294   3.508   4.543   9.895  0.1898  0.2828 -1.4864
   72SLPC   C27 6295   3.430   4.367   9.781 -0.2246  0.1805 -0.1759
   72SLPC   H7R 6296   3.320   4.382   9.787 -0.6086 -0.4192 -3.5371
   72SLPC   H7S 6297   3.463   4.261   9.777 -1.8118 -0.3318 -0.8666
   72SLPC   C28 6298   3.480   4.433   9.650  0.5281  0.0227  0.5628
   72SLPC   H8R 6299   3.590   4.440   9.639  0.5582 -1.0806  0.1106
   72SLPC   H8S 6300   3.442   4.537   9.644 -4.4399 -1.6404 -1.1518
   72SLPC   C29 6301   3.433   4.356   9.534 -0.4733 -0.7831  0.1058
   72SLPC   H9R 6302   3.474   4.254   9.524 -1.4735 -1.0722 -1.3806
   72SLPC  C210 6303   3.357   4.403   9.430  1.2143  0.2853  0.3265
   72SLPC  H10R 6304   3.354   4.339   9.340 -2.0784 -0.4512  0.8278
   72SLPC  C211 6305   3.300   4.542   9.418 -0.0214  0.0215  0.2329
   72SLPC  H11R 6306   3.380   4.596   9.364  0.7191 -0.6632  0.6363
   72SLPC  H11S 6307   3.276   4.599   9.511 -1.8419 -0.1861 -0.0642
   72SLPC  C212 6308   3.170   4.534   9.338 -0.7339 -0.2122 -0.1890
   72SLPC  H12R 6309   3.080   4.506   9.396 -3.7030  2.3153 -3.2014
   72SLPC  C213 6310   3.156   4.554   9.203 -0.0005  0.3287 -0.6428
   72SLPC  H13R 6311   3.057   4.535   9.159 -0.9893  0.2860  1.4914
   72SLPC  C214 6312   3.261   4.593   9.100  0.0578  0.3614 -0.7789
   72SLPC  H14R 6313   3.364   4.597   9.140 -0.3321  2.2286  0.1412
   72SLPC  H14S 6314   3.241   4.701   9.083 -0.9942  0.1283 -1.1273
   72SLPC  C215 6315   3.249   4.524   8.963  0.7687 -0.1791  0.0023
   72SLPC  H15R 6316   3.337   4.547   8.898  0.3620  0.2588 -0.3965
   72SLPC  H15S 6317   3.161   4.567   8.912  0.5326  0.3660  0.8628
   72SLPC  C216 6318   3.244   4.368   8.973 -0.7553 -0.2288 -0.1244
   72SLPC  H16R 6319   3.163   4.337   9.043  0.4168  0.2579  1.5106
   72SLPC  H16S 6320   3.339   4.322   9.006 -1.7353 -2.2803  0.0243
   72SLPC  C217 6321   3.217   4.305   8.839  0.2452 -0.1735  0.1896
   72SLPC  H17R 6322   3.284   4.348   8.761 -1.0214  1.2029 -0.1795
   72SLPC  H17S 6323   3.120   4.351   8.808 -0.0501  0.8034  2.4096
   72SLPC  C218 6324   3.214   4.154   8.833 -0.1952  0.2005  0.0845
   72SLPC  H18R 6325   3.237   4.128   8.728 -0.5953 -1.6692  0.4240
   72SLPC  H18S 6326   3.118   4.110   8.868 -0.8122  2.2111  1.0638
   72SLPC  H18T 6327   3.297   4.111   8.893  0.6058 -0.5766 -1.5362
   72SLPC   C33 6328   3.519   4.956  10.042 -0.3097 -0.0477  0.1930
   72SLPC   H3X 6329   3.618   4.906  10.033 -0.5106 -0.5318  0.6242
   72SLPC   H3Y 6330   3.527   5.066  10.027 -1.9600  0.1760  0.7086
   72SLPC   C34 6331   3.449   4.907   9.905  0.4369 -0.6939 -0.0491
   72SLPC   H4X 6332   3.350   4.955   9.893  1.2888  2.0009  2.5075
   72SLPC   H4Y 6333   3.433   4.798   9.917 -0.5444 -0.3378  2.6024
   72SLPC   C35 6334   3.542   4.905   9.784  0.5741  0.0167 -0.2863
   72SLPC   H5X 6335   3.636   4.855   9.815 -0.0435 -1.2631 -0.3771
   72SLPC   H5Y 6336   3.569   5.011   9.770  0.8575  0.0205  0.2623
   72SLPC   C36 6337   3.462   4.850   9.661  0.0262 -1.0783  0.1430
   72SLPC   H6X 6338   3.361   4.894   9.644  1.5652  3.6185  1.6521
   72SLPC   H6Y 6339   3.451   4.741   9.678  2.2508 -1.6334 -1.4942
   72SLPC   C37 6340   3.549   4.857   9.530  0.6221 -0.4440  0.4856
   72SLPC   H7X 6341   3.475   4.835   9.450 -1.6278 -0.2021  2.3856
   72SLPC   H7Y 6342   3.640   4.793   9.525  1.1920  0.3879 -0.1453
   72SLPC   C38 6343   3.616   4.994   9.506  0.1783 -0.4358  0.4417
   72SLPC   H8X 6344   3.709   4.987   9.566 -0.0322 -1.6506  0.6674
   72SLPC   H8Y 6345   3.547   5.075   9.539 -0.2012 -0.5213 -0.1230
   72SLPC   C39 6346   3.653   5.011   9.363 -0.0904  1.0570  0.0497
   72SLPC   H9X 6347   3.561   4.990   9.305 -0.4863  2.6748  0.0518
   72SLPC   H9Y 6348   3.726   4.930   9.341  1.0908  1.5161  2.0848
   72SLPC  C310 6349   3.719   5.143   9.335 -0.4585 -0.5919 -0.2324
   72SLPC  H10X 6350   3.787   5.182   9.414 -1.6481  0.1418  0.4574
   72SLPC  H10Y 6351   3.629   5.208   9.332  0.9245  1.3552 -1.1827
   72SLPC  C311 6352   3.775   5.165   9.190  0.4099 -0.0102 -0.1222
   72SLPC  H11X 6353   3.690   5.129   9.129  0.7075 -2.7298  0.9420
   72SLPC  H11Y 6354   3.871   5.114   9.166  0.5412  0.1787 -0.0086
   72SLPC  C312 6355   3.808   5.317   9.156  0.0845 -0.0771  0.0945
   72SLPC  H12X 6356   3.899   5.351   9.209  0.1411  0.3545 -0.2719
   72SLPC  H12Y 6357   3.728   5.381   9.198  1.7574  0.6285  2.4276
   72SLPC  C313 6358   3.810   5.338   9.005  0.3339 -0.1380 -1.0334
   72SLPC  H13X 6359   3.703   5.323   8.980 -1.1200 -0.6158  4.2548
   72SLPC  H13Y 6360   3.883   5.279   8.946  1.5346 -0.6503  0.8946
   72SLPC  C314 6361   3.832   5.490   8.979 -0.5813 -0.0493 -0.4208
   72SLPC  H14X 6362   3.928   5.513   9.029 -0.1589 -3.4944  0.6085
   72SLPC  H14Y 6363   3.745   5.545   9.019  0.0017  0.8271 -0.3456
   72SLPC  C315 6364   3.849   5.517   8.831  0.3403 -1.1245 -0.0865
   72SLPC  H15X 6365   3.757   5.514   8.769  0.0141  2.6518  0.0267
   72SLPC  H15Y 6366   3.925   5.445   8.793  2.4309 -1.1114  3.6161
   72SLPC  C316 6367   3.912   5.655   8.809  0.6851 -0.0031  0.3175
   72SLPC  H16X 6368   4.019   5.647   8.836  1.5948 -0.1853 -2.9744
   72SLPC  H16Y 6369   3.864   5.731   8.875  1.0181  0.4051  0.0899
   72SLPC  C317 6370   3.894   5.700   8.654 -0.2082 -0.2907  0.5050
   72SLPC  H17X 6371   3.913   5.809   8.643  0.0530 -0.2905  0.9444
   72SLPC  H17Y 6372   3.790   5.683   8.619  0.8850 -1.2229 -2.6443
   72SLPC  C318 6373   3.995   5.622   8.566 -0.4279  0.3173 -0.0046
   72SLPC  H18X 6374   4.092   5.616   8.621 -2.3488  1.4606  3.8644
   72SLPC  H18Y 6375   4.008   5.677   8.470 -2.2554 -0.1297 -0.5573
   72SLPC  H18Z 6376   3.956   5.518   8.553 -1.5213  0.9515 -2.3760
   73SLPC     N 6377   5.528   1.410  11.159  0.0158  0.5594 -0.2552
   73SLPC   C13 6378   5.467   1.516  11.242  0.3353  0.6061  0.1239
   73SLPC  H13A 6379   5.464   1.481  11.344  0.8774 -3.0487 -0.9761
   73SLPC  H13B 6380   5.519   1.610  11.227 -0.1544  1.0468  1.0704
   73SLPC  H13C 6381   5.367   1.535  11.207  0.7378  0.5341 -1.1057
   73SLPC   C14 6382   5.451   1.280  11.186 -0.2421  0.2952 -0.5290
   73SLPC  H14A 6383   5.510   1.198  11.149  0.0577 -0.9120  2.3932
   73SLPC  H14B 6384   5.421   1.271  11.289 -0.9426  3.5903 -0.3155
   73SLPC  H14C 6385   5.355   1.291  11.136  0.2314  3.3001 -0.9709
   73SLPC   C15 6386   5.670   1.390  11.196  0.2993 -0.7175 -0.2743
   73SLPC  H15A 6387   5.721   1.485  11.193 -1.8001  0.5131  0.5634
   73SLPC  H15B 6388   5.690   1.355  11.297  0.8531  0.4050  0.0239
   73SLPC  H15C 6389   5.716   1.319  11.130  0.9067 -0.5823 -0.0074
   73SLPC   C12 6390   5.531   1.443  11.009 -0.1686 -0.9596 -0.3338
   73SLPC  H12A 6391   5.429   1.435  10.973 -0.3690  2.7608 -0.9724
   73SLPC  H12B 6392   5.600   1.374  10.962  2.2862  1.4003 -0.4196
   73SLPC   C11 6393   5.560   1.579  10.945 -0.1785 -0.0255 -0.0814
   73SLPC  H11A 6394   5.480   1.648  10.980  0.0147  0.8258 -1.2556
   73SLPC  H11B 6395   5.535   1.578  10.836 -0.4214  1.1869 -0.0446
   73SLPC     P 6396   5.813   1.603  10.887  0.0199  0.3389 -0.4346
   73SLPC   O13 6397   5.878   1.728  10.849 -0.0230 -0.3682 -0.5801
   73SLPC   O14 6398   5.895   1.503  10.965  0.1625 -0.1453  1.1928
   73SLPC   O12 6399   5.685   1.634  10.982  0.3087  0.7707 -0.0315
   73SLPC   O11 6400   5.753   1.539  10.763  0.0305  0.5106  0.0661
   73SLPC    C1 6401   5.770   1.603  10.638  0.7358 -0.4562  0.7084
   73SLPC    HA 6402   5.703   1.692  10.631  1.9499  0.5694  1.6588
   73SLPC    HB 6403   5.878   1.628  10.629  0.4580  0.8580  0.7932
   73SLPC    C2 6404   5.742   1.505  10.519  0.0420  0.6521  0.3426
   73SLPC    HS 6405   5.822   1.429  10.520 -0.4582  0.1086 -0.2347
   73SLPC   O21 6406   5.744   1.580  10.402  0.3407 -0.1619 -0.0657
   73SLPC   C21 6407   5.817   1.532  10.307  0.3297  0.2521 -0.4276
   73SLPC   O22 6408   5.887   1.435  10.315 -0.4142 -0.4423  0.5790
   73SLPC   C22 6409   5.790   1.618  10.180  0.2591  0.2870 -0.9422
   73SLPC   H2R 6410   5.681   1.618  10.158  0.4214 -0.8943 -1.8308
   73SLPC   H2S 6411   5.823   1.721  10.205  3.1696 -0.8923  0.5500
   73SLPC    C3 6412   5.613   1.431  10.535 -0.1463 -0.3228  0.2205
   73SLPC    HX 6413   5.635   1.390  10.636  0.7475  1.4505  0.7863
   73SLPC    HY 6414   5.606   1.348  10.461 -2.3388 -1.5125  1.6757
   73SLPC   O31 6415   5.497   1.520  10.532  0.0523  0.2855 -0.9286
   73SLPC   C31 6416   5.444   1.561  10.418 -1.0747  0.4070  0.4352
   73SLPC   O32 6417   5.480   1.517  10.309 -0.2889  0.0476  0.1803
   73SLPC   C32 6418   5.328   1.656  10.443  0.5621 -0.1682 -0.5653
   73SLPC   H2X 6419   5.360   1.760  10.424  1.1393 -0.3439 -0.5559
   73SLPC   H2Y 6420   5.309   1.654  10.553  2.6137  0.7016 -0.1457
   73SLPC   C23 6421   5.855   1.570  10.040 -0.2822  1.2976 -0.1256
   73SLPC   H3R 6422   5.844   1.460  10.027  1.3339  1.2284 -1.3045
   73SLPC   H3S 6423   5.962   1.600  10.041 -0.8375  3.4292 -0.0779
   73SLPC   C24 6424   5.800   1.645   9.923  0.5880  0.8418  0.1251
   73SLPC   H4R 6425   5.844   1.608   9.828 -1.9528  0.8613 -1.1630
   73SLPC   H4S 6426   5.833   1.751   9.918 -0.5535  1.1430 -1.7254
   73SLPC   C25 6427   5.650   1.618   9.901  0.1695 -0.5830  0.1645
   73SLPC   H5R 6428   5.590   1.662   9.983 -0.1915 -1.9170  0.6482
   73SLPC   H5S 6429   5.621   1.512   9.919 -1.0273 -0.1661  0.7406
   73SLPC   C26 6430   5.594   1.648   9.754  0.4728 -0.5435 -0.0697
   73SLPC   H6R 6431   5.665   1.606   9.679  1.7413  2.7734 -0.8909
   73SLPC   H6S 6432   5.613   1.757   9.742 -1.4910 -0.1835 -0.2696
   73SLPC   C27 6433   5.445   1.620   9.738  0.1604 -0.0665  0.8567
   73SLPC   H7R 6434   5.378   1.657   9.817  0.4080  1.6729  0.2879
   73SLPC   H7S 6435   5.430   1.511   9.721 -1.4291  0.3245 -0.4949
   73SLPC   C28 6436   5.374   1.703   9.622 -0.3028  0.8958  0.0052
   73SLPC   H8R 6437   5.376   1.809   9.655 -2.1985  0.0927  3.1615
   73SLPC   H8S 6438   5.268   1.668   9.623  0.2420 -0.8491  0.2361
   73SLPC   C29 6439   5.431   1.669   9.484  1.3066  0.0613  0.6316
   73SLPC   H9R 6440   5.494   1.579   9.488 -0.4615 -1.2849 -0.4458
   73SLPC  C210 6441   5.405   1.738   9.370  0.2463 -0.3346  0.4875
   73SLPC  H10R 6442   5.458   1.703   9.280  0.4354 -0.7087  0.7413
   73SLPC  C211 6443   5.324   1.865   9.354  0.0016 -0.4827 -0.8052
   73SLPC  H11R 6444   5.393   1.939   9.306  2.7812 -0.7943  2.3787
   73SLPC  H11S 6445   5.305   1.906   9.455 -2.6842 -0.4489 -1.2682
   73SLPC  C212 6446   5.196   1.834   9.281 -0.3035 -0.0846  0.0316
   73SLPC  H12R 6447   5.125   1.781   9.347 -0.3131 -0.2661 -0.1250
   73SLPC  C213 6448   5.153   1.882   9.158  0.5202 -0.3136  0.7609
   73SLPC  H13R 6449   5.056   1.859   9.110 -0.3296  4.2002 -0.1732
   73SLPC  C214 6450   5.245   1.963   9.065 -0.4345  0.3706 -0.7292
   73SLPC  H14R 6451   5.352   1.938   9.078  0.1111  1.3690 -2.8769
   73SLPC  H14S 6452   5.233   2.069   9.096 -1.2879  0.7695 -2.3075
   73SLPC  C215 6453   5.216   1.946   8.909 -0.0010 -0.3889  0.6940
   73SLPC  H15R 6454   5.107   1.956   8.889  0.0616 -0.6846  0.1892
   73SLPC  H15S 6455   5.223   1.843   8.868 -1.9988  0.5667 -2.3333
   73SLPC  C216 6456   5.294   2.043   8.821  0.1373 -0.2936  0.4611
   73SLPC  H16R 6457   5.403   2.033   8.807  0.0288  1.2797 -2.2737
   73SLPC  H16S 6458   5.283   2.143   8.867  1.5310  0.4991 -0.8428
   73SLPC  C217 6459   5.236   2.047   8.684  0.5664 -0.9369  0.1543
   73SLPC  H17R 6460   5.295   2.122   8.628  1.2915 -0.5189  1.4371
   73SLPC  H17S 6461   5.129   2.077   8.689  0.4344 -1.3026 -0.3833
   73SLPC  C218 6462   5.253   1.910   8.612 -0.0041  1.0671  0.2374
   73SLPC  H18R 6463   5.363   1.896   8.605  0.0042  0.1682  1.6488
   73SLPC  H18S 6464   5.222   1.923   8.506  1.3911  0.6304 -0.2376
   73SLPC  H18T 6465   5.201   1.828   8.667 -1.2739  0.7295 -1.3923
   73SLPC   C33 6466   5.208   1.622  10.358 -0.1127 -0.1621  0.2346
   73SLPC   H3X 6467   5.121   1.689  10.379 -0.9916 -0.8354 -1.1026
   73SLPC   H3Y 6468   5.166   1.521  10.377 -2.1169  0.3649 -1.1140
   73SLPC   C34 6469   5.236   1.642  10.207  0.5783 -0.0777  0.4577
   73SLPC   H4X 6470   5.292   1.557  10.163  0.5395  0.9622 -1.7231
   73SLPC   H4Y 6471   5.296   1.733  10.188  2.1181 -1.0597  0.4227
   73SLPC   C35 6472   5.109   1.658  10.123  0.3047 -0.1808  1.0089
   73SLPC   H5X 6473   5.031   1.702  10.189 -2.4567 -1.2895 -1.2935
   73SLPC   H5Y 6474   5.070   1.557  10.100  2.1037 -1.1577  2.0725
   73SLPC   C36 6475   5.136   1.741   9.998 -0.0243 -0.2106  0.3606
   73SLPC   H6X 6476   5.213   1.694   9.932  0.4449  1.3169 -0.2172
   73SLPC   H6Y 6477   5.172   1.844  10.018 -0.0932  0.0225 -0.6605
   73SLPC   C37 6478   5.011   1.742   9.908 -0.0818  0.2140 -0.8096
   73SLPC   H7X 6479   4.920   1.763   9.968  0.9060 -1.3729  1.3522
   73SLPC   H7Y 6480   4.998   1.642   9.860  2.9115 -1.0101  0.6735
   73SLPC   C38 6481   5.020   1.841   9.787  0.3953  0.3978 -0.0661
   73SLPC   H8X 6482   5.119   1.834   9.737 -1.2827 -1.1307 -3.5332
   73SLPC   H8Y 6483   5.009   1.945   9.825 -0.9713  1.5452 -3.2229
   73SLPC   C39 6484   4.904   1.824   9.686  0.3169  0.1766 -0.5300
   73SLPC   H9X 6485   4.809   1.848   9.739 -0.2231  3.3826 -2.6826
   73SLPC   H9Y 6486   4.912   1.722   9.643  3.6781 -0.6175  1.5856
   73SLPC  C310 6487   4.902   1.930   9.573 -0.2749  0.3377 -0.6738
   73SLPC  H10X 6488   5.011   1.925   9.551 -0.0563  1.0742  0.1839
   73SLPC  H10Y 6489   4.888   2.033   9.611 -0.9191  0.1818 -0.4861
   73SLPC  C311 6490   4.807   1.894   9.456  0.1497  0.5420 -0.6568
   73SLPC  H11X 6491   4.701   1.900   9.488  0.7092 -0.9965  1.6830
   73SLPC  H11Y 6492   4.825   1.787   9.436  1.5323  0.9654 -1.9063
   73SLPC  C312 6493   4.819   1.976   9.330  0.6587  0.4620  0.0162
   73SLPC  H12X 6494   4.919   1.960   9.285 -0.0056 -0.4765 -1.1942
   73SLPC  H12Y 6495   4.806   2.087   9.333 -0.4106  0.3560 -0.2459
   73SLPC  C313 6496   4.712   1.933   9.230 -0.0653 -0.8375  0.3497
   73SLPC  H13X 6497   4.613   1.977   9.255  0.3400  1.1161 -1.2259
   73SLPC  H13Y 6498   4.697   1.823   9.236  0.0187 -0.7653  4.5556
   73SLPC  C314 6499   4.752   1.979   9.087  0.4388 -0.5100  0.4067
   73SLPC  H14X 6500   4.849   1.933   9.057  1.1707  1.8463 -1.1949
   73SLPC  H14Y 6501   4.762   2.090   9.082 -0.2486 -0.3688  1.6395
   73SLPC  C315 6502   4.640   1.949   8.986  0.1559  0.8294 -0.0235
   73SLPC  H15X 6503   4.541   1.990   9.017  0.1934  0.6677  0.3163
   73SLPC  H15Y 6504   4.636   1.838   8.987  1.0525  0.7478 -1.8606
   73SLPC  C316 6505   4.679   1.983   8.836 -0.4519 -0.2690 -0.5791
   73SLPC  H16X 6506   4.767   1.926   8.800  0.0629  0.6816 -0.8559
   73SLPC  H16Y 6507   4.715   2.088   8.842  1.6597 -1.0210  2.2016
   73SLPC  C317 6508   4.570   1.957   8.737  1.3507 -0.2875 -0.1679
   73SLPC  H17X 6509   4.488   2.021   8.775  1.8323  0.8716 -1.0167
   73SLPC  H17Y 6510   4.545   1.849   8.733 -1.7238  0.3133  0.4033
   73SLPC  C318 6511   4.610   2.000   8.597  0.2976 -0.8629 -0.2533
   73SLPC  H18X 6512   4.666   2.096   8.599  0.9062 -1.2156  1.1398
   73SLPC  H18Y 6513   4.521   2.004   8.531  0.6076 -1.4999 -0.7141
   73SLPC  H18Z 6514   4.670   1.915   8.559  1.7878  0.7805 -1.7831
   74SLPC     N 6515   5.966   3.262  10.775  0.3123  0.1844  0.0184
   74SLPC   C13 6516   6.074   3.271  10.678 -0.1217  0.5901 -0.2681
   74SLPC  H13A 6517   6.129   3.178  10.675 -0.2830  0.2584  3.0322
   74SLPC  H13B 6518   6.045   3.309  10.582 -0.7054 -1.5966 -1.0223
   74SLPC  H13C 6519   6.136   3.352  10.712 -1.1868  0.6426  1.7519
   74SLPC   C14 6520   5.878   3.382  10.759 -0.9308 -0.2739  0.1747
   74SLPC  H14A 6521   5.932   3.472  10.785 -1.1352  0.1201 -0.7434
   74SLPC  H14B 6522   5.847   3.395  10.657  1.5622  2.5308 -0.3656
   74SLPC  H14C 6523   5.798   3.370  10.830 -0.8357 -2.9840 -0.0500
   74SLPC   C15 6524   6.026   3.250  10.914  0.0854 -0.2362 -0.7549
   74SLPC  H15A 6525   6.072   3.341  10.949 -0.0412  1.0197 -3.5856
   74SLPC  H15B 6526   5.948   3.224  10.984 -0.2003 -3.6466 -2.1731
   74SLPC  H15C 6527   6.102   3.174  10.922  3.3541  2.8590  1.0795
   74SLPC   C12 6528   5.887   3.133  10.735  0.0940  0.5349  0.3251
   74SLPC  H12A 6529   5.803   3.129  10.802  1.1780  1.0793  1.7599
   74SLPC  H12B 6530   5.939   3.039  10.748 -2.3706 -1.0487 -0.5296
   74SLPC   C11 6531   5.823   3.119  10.587 -0.1492  0.5730 -0.1365
   74SLPC  H11A 6532   5.786   3.218  10.552 -1.1122 -0.1781 -1.3261
   74SLPC  H11B 6533   5.739   3.047  10.592  0.5793 -0.2637  0.3736
   74SLPC     P 6534   5.956   2.913  10.496 -0.0237 -0.0636  0.2697
   74SLPC   O13 6535   5.993   2.865  10.634  0.5322  0.5397  0.2431
   74SLPC   O14 6536   5.834   2.847  10.431  0.1128 -0.0987 -0.6861
   74SLPC   O12 6537   5.930   3.066  10.502 -0.2343  0.2780 -0.4328
   74SLPC   O11 6538   6.076   2.888  10.402 -0.4734  0.5150  0.5323
   74SLPC    C1 6539   6.183   2.984  10.386 -0.6454  0.4653  0.0164
   74SLPC    HA 6540   6.209   3.028  10.485  0.1785  0.9562 -0.4027
   74SLPC    HB 6541   6.276   2.925  10.373 -1.3101 -0.9749  1.4899
   74SLPC    C2 6542   6.164   3.104  10.286 -0.3465 -0.0664  0.1198
   74SLPC    HS 6543   6.072   3.159  10.315 -0.1272  1.0404 -1.1899
   74SLPC   O21 6544   6.159   3.062  10.147  0.1026  0.5474 -0.5697
   74SLPC   C21 6545   6.035   3.063  10.090  0.1717 -0.4247 -0.1161
   74SLPC   O22 6546   5.931   3.076  10.151 -0.2589 -0.4273 -0.0176
   74SLPC   C22 6547   6.052   3.052   9.940 -0.1740 -0.4758  0.0528
   74SLPC   H2R 6548   6.056   3.153   9.896  2.4795 -0.1270  0.9543
   74SLPC   H2S 6549   6.152   3.012   9.913 -0.2717 -1.1039  0.5995
   74SLPC    C3 6550   6.288   3.199  10.294 -0.8047 -0.0786  0.8578
   74SLPC    HX 6551   6.386   3.146  10.285 -0.8990 -0.9597  3.9518
   74SLPC    HY 6552   6.288   3.243  10.396  1.0440 -0.4996  1.0752
   74SLPC   O31 6553   6.281   3.318  10.218  0.0961  0.3455  0.0747
   74SLPC   C31 6554   6.334   3.315  10.100 -0.1987  0.3398 -0.3458
   74SLPC   O32 6555   6.414   3.236  10.051  0.1210 -0.1492  0.1377
   74SLPC   C32 6556   6.265   3.435  10.035  0.2099 -0.2335  0.4260
   74SLPC   H2X 6557   6.273   3.524  10.101  2.1951 -0.5461  0.6743
   74SLPC   H2Y 6558   6.158   3.408  10.025  0.1350  0.2941 -0.2681
   74SLPC   C23 6559   5.943   2.953   9.882  0.2863 -0.0291  0.1547
   74SLPC   H3R 6560   5.841   2.982   9.917  0.7746  1.3788  0.4642
   74SLPC   H3S 6561   5.960   2.846   9.906  2.6173  0.1272 -0.5499
   74SLPC   C24 6562   5.942   2.959   9.726 -0.4489  0.3245 -0.7832
   74SLPC   H4R 6563   5.938   3.064   9.691  0.3561  0.6526  0.0511
   74SLPC   H4S 6564   5.855   2.904   9.684 -2.5140 -0.7177  4.1423
   74SLPC   C25 6565   6.076   2.902   9.654 -0.0404 -0.0255 -0.0685
   74SLPC   H5R 6566   6.086   2.792   9.657 -2.6202 -0.3119 -0.3500
   74SLPC   H5S 6567   6.166   2.954   9.696  0.3134 -0.5100 -0.2211
   74SLPC   C26 6568   6.089   2.924   9.503  0.0039 -0.1454 -0.3192
   74SLPC   H6R 6569   6.064   3.028   9.474 -2.3028  0.2989  2.7122
   74SLPC   H6S 6570   6.008   2.871   9.447  0.6955 -0.4457 -1.0518
   74SLPC   C27 6571   6.224   2.867   9.454  0.2678  0.1295  0.3685
   74SLPC   H7R 6572   6.232   2.763   9.492  0.8357  0.6497  1.7179
   74SLPC   H7S 6573   6.300   2.922   9.514 -0.6398  0.6156  1.0906
   74SLPC   C28 6574   6.239   2.895   9.309  0.1114  0.1621  0.4367
   74SLPC   H8R 6575   6.217   3.001   9.284  3.1409  0.8298  0.3283
   74SLPC   H8S 6576   6.173   2.828   9.249 -0.0711  1.0377 -0.3785
   74SLPC   C29 6577   6.383   2.856   9.278 -0.0768  0.4487 -0.5408
   74SLPC   H9R 6578   6.408   2.753   9.306 -0.4290  0.4986 -0.0279
   74SLPC  C210 6579   6.474   2.930   9.221 -0.0981 -0.1727  0.0686
   74SLPC  H10R 6580   6.579   2.901   9.212  0.0879  0.3492  0.4890
   74SLPC  C211 6581   6.440   3.066   9.170  0.2941 -0.2085  0.1117
   74SLPC  H11R 6582   6.381   3.122   9.245 -1.5955 -0.8296 -0.8440
   74SLPC  H11S 6583   6.373   3.061   9.081 -0.5891  1.6266  0.6362
   74SLPC  C212 6584   6.559   3.154   9.148 -0.4450 -0.6800 -0.1068
   74SLPC  H12R 6585   6.648   3.142   9.211  0.4870  0.7300 -1.0816
   74SLPC  C213 6586   6.557   3.265   9.068 -0.2180 -0.0899 -0.0001
   74SLPC  H13R 6587   6.649   3.324   9.058  1.2966 -2.3914 -0.5020
   74SLPC  C214 6588   6.445   3.321   8.978  0.3743 -0.5873 -0.2229
   74SLPC  H14R 6589   6.450   3.432   8.992  2.4459 -0.7753  0.9396
   74SLPC  H14S 6590   6.347   3.280   9.010  0.0422  0.2866 -0.0724
   74SLPC  C215 6591   6.475   3.273   8.840 -0.3918 -0.3532 -0.1367
   74SLPC  H15R 6592   6.388   3.296   8.774  0.9655  0.5435 -1.7113
   74SLPC  H15S 6593   6.480   3.162   8.838 -1.0139 -0.3764 -1.7168
   74SLPC  C216 6594   6.587   3.336   8.761  0.1846 -0.3157 -0.1118
   74SLPC  H16R 6595   6.677   3.302   8.817  1.1868  1.5333 -0.5033
   74SLPC  H16S 6596   6.578   3.446   8.773 -0.7146 -0.4907  0.9539
   74SLPC  C217 6597   6.608   3.299   8.611  0.5158  0.6812  0.4215
   74SLPC  H17R 6598   6.535   3.362   8.556  1.2973  0.2434 -1.1850
   74SLPC  H17S 6599   6.591   3.190   8.598  3.2435  0.1858  0.4162
   74SLPC  C218 6600   6.747   3.344   8.557 -0.3684 -0.0739 -0.5846
   74SLPC  H18R 6601   6.769   3.323   8.451  0.1649 -1.4014 -0.2273
   74SLPC  H18S 6602   6.824   3.298   8.623  2.2861  1.5739 -2.3758
   74SLPC  H18T 6603   6.773   3.449   8.584 -0.4549 -0.4019  0.8971
   74SLPC   C33 6604   6.306   3.452   9.890 -0.0694  0.2306 -0.1629
   74SLPC   H3X 6605   6.416   3.437   9.886  0.1952  1.6855  0.6860
   74SLPC   H3Y 6606   6.287   3.551   9.843 -0.4515  0.3506  0.2380
   74SLPC   C34 6607   6.232   3.357   9.794  0.3903  0.7108  0.4493
   74SLPC   H4X 6608   6.125   3.387   9.792  0.6169  1.6477 -2.1576
   74SLPC   H4Y 6609   6.262   3.252   9.817  2.2726  1.5465  2.0635
   74SLPC   C35 6610   6.275   3.372   9.639 -0.6964  0.5256 -0.6956
   74SLPC   H5X 6611   6.384   3.351   9.639 -0.9002 -0.5675 -0.0957
   74SLPC   H5Y 6612   6.258   3.482   9.630 -0.8912  0.5099 -0.5115
   74SLPC   C36 6613   6.199   3.287   9.534 -0.0177 -0.1289 -0.2529
   74SLPC   H6X 6614   6.098   3.291   9.579  0.6901  0.5182  1.3784
   74SLPC   H6Y 6615   6.238   3.184   9.544  0.2250  0.1250  1.8866
   74SLPC   C37 6616   6.197   3.335   9.391  0.0394  0.9612  0.4240
   74SLPC   H7X 6617   6.293   3.329   9.336 -0.4592  1.1262 -0.4892
   74SLPC   H7Y 6618   6.168   3.442   9.381  0.3328  1.1233  1.2666
   74SLPC   C38 6619   6.087   3.265   9.311  0.0241  0.0830 -0.0959
   74SLPC   H8X 6620   5.996   3.289   9.370 -1.4738 -0.9297 -1.8938
   74SLPC   H8Y 6621   6.106   3.156   9.311  3.1132  0.4610 -2.8998
   74SLPC   C39 6622   6.067   3.299   9.166  0.0603 -0.7146 -0.7615
   74SLPC   H9X 6623   6.154   3.288   9.097  1.0386  0.7371  0.1874
   74SLPC   H9Y 6624   6.050   3.408   9.157  0.6303 -0.6423 -1.0392
   74SLPC  C310 6625   5.941   3.217   9.120 -0.6776  0.8648 -0.3027
   74SLPC  H10X 6626   5.865   3.238   9.199  0.3849  0.2156  0.9277
   74SLPC  H10Y 6627   5.962   3.110   9.139  0.6851  1.3034  0.8153
   74SLPC  C311 6628   5.893   3.223   8.973  0.5222  0.0823  0.2949
   74SLPC  H11X 6629   5.848   3.323   8.956  0.7680  0.3487  1.1690
   74SLPC  H11Y 6630   5.808   3.151   8.966 -1.4913  2.3421  0.3935
   74SLPC  C312 6631   5.998   3.186   8.876  0.1682 -0.2520  0.0215
   74SLPC  H12X 6632   6.079   3.261   8.892 -1.0494  1.3230 -1.0357
   74SLPC  H12Y 6633   5.954   3.190   8.775 -1.1247 -1.8665  0.4757
   74SLPC  C313 6634   6.064   3.046   8.890  0.2838  0.4213  0.8737
   74SLPC  H13X 6635   5.983   2.970   8.895 -0.9856  1.7769  4.9074
   74SLPC  H13Y 6636   6.111   3.046   8.991  2.5049 -0.7165 -0.0770
   74SLPC  C314 6637   6.153   3.009   8.772  1.2339 -1.3049 -0.0207
   74SLPC  H14X 6638   6.235   3.085   8.776 -0.1313  0.1835  1.2322
   74SLPC  H14Y 6639   6.102   3.021   8.674  0.1327  2.5650  0.8279
   74SLPC  C315 6640   6.218   2.872   8.796  0.1418 -0.2090  0.1518
   74SLPC  H15X 6641   6.150   2.801   8.848  1.3407  0.2810  2.5404
   74SLPC  H15Y 6642   6.310   2.881   8.858  0.6814 -0.7331 -0.5561
   74SLPC  C316 6643   6.254   2.804   8.664  0.6520  0.6777  0.4218
   74SLPC  H16X 6644   6.154   2.777   8.623 -0.1949  1.0767  2.1310
   74SLPC  H16Y 6645   6.301   2.705   8.685 -1.2763 -0.3111  0.3369
   74SLPC  C317 6646   6.342   2.883   8.560 -0.0541  0.2717  0.1610
   74SLPC  H17X 6647   6.288   2.976   8.533 -0.4872 -0.0291 -0.0119
   74SLPC  H17Y 6648   6.352   2.826   8.466 -1.3537  0.3345 -0.0267
   74SLPC  C318 6649   6.476   2.922   8.620  0.0757  0.1234  0.2917
   74SLPC  H18X 6650   6.533   2.833   8.654 -0.2684 -0.4262 -0.5429
   74SLPC  H18Y 6651   6.450   2.983   8.710  1.2511  1.4332 -0.2141
   74SLPC  H18Z 6652   6.553   2.974   8.560  1.2733  0.3349  1.9380
   75SLPC     N 6653   3.856   6.427   6.162  0.0597 -0.5251 -0.2954
   75SLPC   C13 6654   3.797   6.574   6.164 -0.1634  0.4449 -0.3546
   75SLPC  H13A 6655   3.701   6.567   6.213  0.5321 -2.0944  0.8382
   75SLPC  H13B 6656   3.862   6.640   6.221 -0.1590  2.2128 -2.3071
   75SLPC  H13C 6657   3.793   6.617   6.066 -1.1460  0.0051 -0.5204
   75SLPC   C14 6658   4.005   6.443   6.144 -0.5446 -0.7662  0.0526
   75SLPC  H14A 6659   4.019   6.493   6.049 -0.3889 -3.0304 -1.2034
   75SLPC  H14B 6660   4.056   6.495   6.223  0.1907 -1.0256 -0.2457
   75SLPC  H14C 6661   4.055   6.347   6.146 -2.3188 -1.7777 -0.9021
   75SLPC   C15 6662   3.792   6.346   6.054 -0.9864 -0.8373  0.1156
   75SLPC  H15A 6663   3.798   6.391   5.955 -1.1032 -0.7270  0.1589
   75SLPC  H15B 6664   3.841   6.251   6.040  2.4979  0.6191  1.2668
   75SLPC  H15C 6665   3.689   6.320   6.067 -1.6273  0.9869 -0.8751
   75SLPC   C12 6666   3.830   6.365   6.300  0.3518  1.1195 -1.2286
   75SLPC  H12A 6667   3.725   6.343   6.313  0.3966  1.4342 -0.2496
   75SLPC  H12B 6668   3.859   6.439   6.374  1.3789  0.1359 -0.6064
   75SLPC   C11 6669   3.915   6.239   6.332  0.2105 -0.5745 -0.1660
   75SLPC  H11A 6670   3.909   6.185   6.236 -2.9509  1.8629 -1.5560
   75SLPC  H11B 6671   3.857   6.183   6.409  1.1968 -2.6759 -0.8919
   75SLPC     P 6672   4.098   6.361   6.491  0.0147 -0.2001  0.5039
   75SLPC   O13 6673   4.241   6.351   6.504  0.2424 -0.2734 -0.0933
   75SLPC   O14 6674   4.046   6.502   6.481  0.0158  0.0231  0.2200
   75SLPC   O12 6675   4.051   6.263   6.367  0.0144 -0.3350 -0.2485
   75SLPC   O11 6676   4.034   6.286   6.614 -0.0912 -0.3135  0.2756
   75SLPC    C1 6677   4.067   6.147   6.631 -0.1480 -0.5406 -0.4235
   75SLPC    HA 6678   3.979   6.082   6.611 -0.7683 -0.0403  0.6185
   75SLPC    HB 6679   4.153   6.113   6.569  2.0442  0.7517  1.7319
   75SLPC    C2 6680   4.097   6.120   6.788  0.3796  0.0964  0.0119
   75SLPC    HS 6681   4.149   6.022   6.794 -1.1167 -0.9841 -2.7613
   75SLPC   O21 6682   3.978   6.133   6.857 -0.5233 -0.2282 -0.0092
   75SLPC   C21 6683   3.894   6.036   6.873  0.7439  0.1603  0.1392
   75SLPC   O22 6684   3.906   5.919   6.840 -0.3064 -0.0930 -0.0761
   75SLPC   C22 6685   3.795   6.092   6.976  0.8911 -0.1180  0.1293
   75SLPC   H2R 6686   3.843   6.151   7.057 -1.5819  1.7114  0.3753
   75SLPC   H2S 6687   3.723   6.150   6.914 -1.0495 -3.2166 -0.7185
   75SLPC    C3 6688   4.203   6.230   6.827  0.2371  0.3756 -0.3385
   75SLPC    HX 6689   4.157   6.329   6.808  1.4293  0.8082 -1.0726
   75SLPC    HY 6690   4.284   6.226   6.752  0.4804  0.1775 -0.0686
   75SLPC   O31 6691   4.262   6.215   6.960 -0.3999  0.4773  0.4430
   75SLPC   C31 6692   4.246   6.322   7.041 -0.3851  0.3386 -0.4201
   75SLPC   O32 6693   4.193   6.423   7.009  0.2851 -0.3198 -0.2832
   75SLPC   C32 6694   4.316   6.305   7.176 -0.7898  0.2766 -0.7447
   75SLPC   H2X 6695   4.422   6.280   7.156  0.0197  2.1697  0.8816
   75SLPC   H2Y 6696   4.266   6.218   7.222 -0.8076  1.4582  1.6254
   75SLPC   C23 6697   3.696   5.992   7.039  0.1041 -0.4910  0.2090
   75SLPC   H3R 6698   3.654   5.924   6.962  2.6500 -1.0828 -0.7623
   75SLPC   H3S 6699   3.625   6.048   7.102 -0.4176 -0.0945 -0.7094
   75SLPC   C24 6700   3.765   5.906   7.147  0.5032 -0.6741  0.7627
   75SLPC   H4R 6701   3.809   5.982   7.216 -1.2434  0.2393  0.9323
   75SLPC   H4S 6702   3.838   5.836   7.102 -2.8267 -3.2661 -1.0708
   75SLPC   C25 6703   3.669   5.835   7.240 -0.0318 -0.4374 -0.5656
   75SLPC   H5R 6704   3.628   5.739   7.202 -0.9682 -1.1117  1.9552
   75SLPC   H5S 6705   3.580   5.900   7.255  0.1673  0.1289 -1.7609
   75SLPC   C26 6706   3.728   5.809   7.379  0.1338  0.1182  0.4099
   75SLPC   H6R 6707   3.753   5.905   7.429 -0.4385  0.4954  0.0022
   75SLPC   H6S 6708   3.826   5.760   7.367 -0.2279 -0.0280 -3.5179
   75SLPC   C27 6709   3.625   5.729   7.461  0.8856 -0.0171  0.1161
   75SLPC   H7R 6710   3.632   5.618   7.453 -0.1751 -0.0096 -1.3387
   75SLPC   H7S 6711   3.522   5.760   7.431  1.0125 -0.4388 -0.7905
   75SLPC   C28 6712   3.654   5.751   7.611 -0.5830 -0.4273 -0.1311
   75SLPC   H8R 6713   3.619   5.854   7.635  1.0114 -0.0806  0.8724
   75SLPC   H8S 6714   3.765   5.747   7.622 -0.3114  1.6670 -1.4602
   75SLPC   C29 6715   3.587   5.653   7.706  0.2149  0.3882  0.7763
   75SLPC   H9R 6716   3.512   5.587   7.659  2.8794 -2.7490  0.5756
   75SLPC  C210 6717   3.616   5.616   7.831 -0.4973 -0.7639  0.2159
   75SLPC  H10R 6718   3.549   5.540   7.874  0.1085 -1.6820 -0.4105
   75SLPC  C211 6719   3.726   5.686   7.913  0.0194  0.2032 -0.0744
   75SLPC  H11R 6720   3.822   5.678   7.858  0.7487 -0.4300  1.2545
   75SLPC  H11S 6721   3.741   5.625   8.004 -2.3446 -1.5418 -0.7481
   75SLPC  C212 6722   3.681   5.830   7.945 -0.7249 -0.3389  0.3553
   75SLPC  H12R 6723   3.680   5.890   7.853  1.1445  0.0049  0.5298
   75SLPC  C213 6724   3.660   5.880   8.069 -0.9538 -0.7741  0.3500
   75SLPC  H13R 6725   3.622   5.983   8.079 -0.4840 -0.6041  0.4302
   75SLPC  C214 6726   3.689   5.803   8.195  0.8752 -0.2017 -0.0223
   75SLPC  H14R 6727   3.777   5.734   8.189  1.7897  0.9982 -0.7176
   75SLPC  H14S 6728   3.598   5.745   8.225  1.5329  0.4337  3.6991
   75SLPC  C215 6729   3.733   5.895   8.310 -0.2152 -0.3866  0.0039
   75SLPC  H15R 6730   3.795   5.981   8.276 -1.8552 -0.0915 -2.4713
   75SLPC  H15S 6731   3.771   5.825   8.388  0.7151 -0.3664 -0.4159
   75SLPC  C216 6732   3.616   5.956   8.378  0.3044  0.5070  0.1907
   75SLPC  H16R 6733   3.537   5.882   8.402 -0.5536  0.5168 -2.2880
   75SLPC  H16S 6734   3.570   6.027   8.306 -0.4045 -2.6934 -2.7650
   75SLPC  C217 6735   3.646   6.034   8.500  0.6138  0.4049 -1.0764
   75SLPC  H17R 6736   3.708   5.969   8.564  2.7457  1.3412 -2.0654
   75SLPC  H17S 6737   3.550   6.052   8.552  0.7081 -0.1321 -0.7084
   75SLPC  C218 6738   3.715   6.167   8.471 -0.2572  0.6287  0.1305
   75SLPC  H18R 6739   3.659   6.235   8.403  0.8171  0.6595 -0.7474
   75SLPC  H18S 6740   3.809   6.146   8.416 -0.9811 -0.2457 -0.8029
   75SLPC  H18T 6741   3.746   6.228   8.559  1.4086  0.1773 -0.1105
   75SLPC   C33 6742   4.315   6.435   7.267  0.2988 -0.0317  0.6392
   75SLPC   H3X 6743   4.390   6.415   7.347  1.7262 -1.3364 -0.9573
   75SLPC   H3Y 6744   4.350   6.525   7.211  0.2439  1.1452  2.4013
   75SLPC   C34 6745   4.184   6.457   7.341 -0.4981 -0.0118  0.6848
   75SLPC   H4X 6746   4.105   6.487   7.269  0.3063  0.5090  0.0066
   75SLPC   H4Y 6747   4.190   6.554   7.394  4.0069  0.6444 -0.5908
   75SLPC   C35 6748   4.120   6.340   7.421  0.2381  0.8686 -0.2508
   75SLPC   H5X 6749   4.084   6.380   7.518 -0.1143  0.8827 -0.3858
   75SLPC   H5Y 6750   4.196   6.263   7.447  0.6334  0.5539 -2.1475
   75SLPC   C36 6751   4.005   6.264   7.345 -0.1033  0.0940 -0.6995
   75SLPC   H6X 6752   4.050   6.204   7.262 -0.1255 -1.3936  0.3217
   75SLPC   H6Y 6753   3.942   6.338   7.291  0.8520 -1.1989 -3.8398
   75SLPC   C37 6754   3.922   6.166   7.433  0.4108 -0.1210 -0.0513
   75SLPC   H7X 6755   3.989   6.080   7.456 -1.4835 -1.1203  2.0502
   75SLPC   H7Y 6756   3.831   6.146   7.373 -0.1460  2.2356 -0.0763
   75SLPC   C38 6757   3.874   6.228   7.564  0.2175  0.5770 -0.4732
   75SLPC   H8X 6758   3.763   6.223   7.569  0.2898 -0.5629  0.1498
   75SLPC   H8Y 6759   3.901   6.336   7.568  1.4052  0.2465  1.7777
   75SLPC   C39 6760   3.942   6.192   7.697  0.6557  0.6119 -0.6915
   75SLPC   H9X 6761   4.040   6.243   7.700  1.7389 -1.0964 -3.3152
   75SLPC   H9Y 6762   3.969   6.084   7.700  2.2605  0.9715  2.7131
   75SLPC  C310 6763   3.863   6.226   7.820 -0.2474  0.2665  0.0836
   75SLPC  H10X 6764   3.854   6.135   7.884 -1.5353  0.4157  0.1448
   75SLPC  H10Y 6765   3.761   6.261   7.792  0.0760  0.7954 -0.4549
   75SLPC  C311 6766   3.913   6.343   7.902  0.1086 -0.1185 -0.2057
   75SLPC  H11X 6767   3.908   6.431   7.834  2.2531 -0.2982 -0.6904
   75SLPC  H11Y 6768   4.022   6.335   7.926  0.4893  1.9745 -1.0187
   75SLPC  C312 6769   3.834   6.351   8.031 -0.0151 -0.0951  0.2675
   75SLPC  H12X 6770   3.840   6.260   8.095  1.7155  0.6546  1.2321
   75SLPC  H12Y 6771   3.725   6.362   8.013 -0.4476 -2.0966  1.3262
   75SLPC  C313 6772   3.874   6.475   8.116  0.0536  0.4090 -0.3425
   75SLPC  H13X 6773   3.844   6.573   8.074 -0.7965  0.8657  1.2258
   75SLPC  H13Y 6774   3.985   6.475   8.119  0.0486  1.2210  1.8378
   75SLPC  C314 6775   3.820   6.485   8.259 -0.4328  0.5443 -0.7712
   75SLPC  H14X 6776   3.897   6.547   8.310 -0.9890  0.5373  0.0940
   75SLPC  H14Y 6777   3.812   6.387   8.309 -1.0553  1.5428  1.1904
   75SLPC  C315 6778   3.682   6.549   8.265  0.5272  0.6758 -0.4321
   75SLPC  H15X 6779   3.615   6.473   8.218  2.7805 -1.9311  0.3267
   75SLPC  H15Y 6780   3.676   6.635   8.194  1.1445 -0.0652 -1.4135
   75SLPC  C316 6781   3.632   6.570   8.409  0.4377 -0.1572  0.0706
   75SLPC  H16X 6782   3.626   6.466   8.447 -0.9417 -0.9171 -2.0730
   75SLPC  H16Y 6783   3.524   6.595   8.402  0.7689  1.4507  0.2898
   75SLPC  C317 6784   3.708   6.671   8.502  0.0334  0.0158 -0.2145
   75SLPC  H17X 6785   3.690   6.771   8.457  1.2185  0.7530  0.8658
   75SLPC  H17Y 6786   3.817   6.649   8.500  0.5463  2.3032 -1.1638
   75SLPC  C318 6787   3.654   6.672   8.642  0.4608 -0.3701 -0.7581
   75SLPC  H18X 6788   3.704   6.757   8.695  2.6076 -2.0231  0.0279
   75SLPC  H18Y 6789   3.669   6.586   8.710  0.0186  2.3683  3.1282
   75SLPC  H18Z 6790   3.546   6.696   8.641  0.4980 -0.1956 -1.5448
   76SLPC     N 6791   6.342   4.322   6.123 -0.0871 -0.3224  0.1069
   76SLPC   C13 6792   6.478   4.291   6.171 -0.0251  0.5286  0.4200
   76SLPC  H13A 6793   6.511   4.188   6.178 -0.9549  0.1654 -0.3103
   76SLPC  H13B 6794   6.550   4.346   6.112 -1.2669 -1.2603 -3.0423
   76SLPC  H13C 6795   6.484   4.333   6.270  0.1935 -0.3738  0.8058
   76SLPC   C14 6796   6.337   4.280   5.982  0.4878 -0.1503  0.2172
   76SLPC  H14A 6797   6.349   4.174   5.967 -0.6390  0.0093 -2.3756
   76SLPC  H14B 6798   6.244   4.317   5.941  0.7154 -0.3346 -0.4784
   76SLPC  H14C 6799   6.416   4.320   5.920  1.2901 -1.2624  0.4874
   76SLPC   C15 6800   6.324   4.471   6.142 -0.2182  0.3208  0.6671
   76SLPC  H15A 6801   6.398   4.534   6.094  0.5686 -0.9533  0.1523
   76SLPC  H15B 6802   6.225   4.500   6.112 -0.3939 -0.6544  0.2766
   76SLPC  H15C 6803   6.336   4.497   6.246  1.7083  0.8919  0.3487
   76SLPC   C12 6804   6.241   4.249   6.207 -0.3207  0.1202  0.4403
   76SLPC  H12A 6805   6.262   4.144   6.196 -3.3038 -0.6942  1.6115
   76SLPC  H12B 6806   6.139   4.270   6.179 -0.5470 -2.1964 -0.6900
   76SLPC   C11 6807   6.250   4.274   6.359 -0.0221  0.2174  0.2880
   76SLPC  H11A 6808   6.349   4.265   6.409  0.0169  1.1532  0.3877
   76SLPC  H11B 6809   6.174   4.209   6.408 -1.9103  2.2787  0.2131
   76SLPC     P 6810   6.053   4.451   6.405 -0.9065 -0.1284  0.2659
   76SLPC   O13 6811   6.044   4.598   6.428  0.6335  0.2283  0.2074
   76SLPC   O14 6812   5.974   4.396   6.290 -0.4799 -0.3852 -0.6210
   76SLPC   O12 6813   6.208   4.403   6.391  0.1218 -0.3082 -0.8477
   76SLPC   O11 6814   6.003   4.375   6.532  0.9295 -0.3150  0.2238
   76SLPC    C1 6815   5.864   4.391   6.571  0.5347 -0.2271  0.2064
   76SLPC    HA 6816   5.827   4.495   6.581 -2.5076 -1.2979  1.1592
   76SLPC    HB 6817   5.794   4.336   6.504  0.5948 -1.7568  1.3540
   76SLPC    C2 6818   5.845   4.329   6.722 -0.4842  0.1439  0.4903
   76SLPC    HS 6819   5.743   4.356   6.758 -0.3097  0.4381  0.7692
   76SLPC   O21 6820   5.927   4.390   6.826 -0.7875 -0.2626  0.0129
   76SLPC   C21 6821   5.920   4.520   6.855 -0.4542 -0.7856  0.2242
   76SLPC   O22 6822   5.853   4.600   6.788  0.1393 -0.1849 -0.1584
   76SLPC   C22 6823   5.996   4.549   6.984  0.2001 -0.0694 -0.1337
   76SLPC   H2R 6824   5.915   4.573   7.056  1.1926  1.9979  0.3709
   76SLPC   H2S 6825   6.048   4.453   7.006 -0.4407 -0.3070  0.3748
   76SLPC    C3 6826   5.867   4.177   6.715  0.0097 -0.7839 -0.2856
   76SLPC    HX 6827   5.964   4.156   6.664  0.4629  0.2943  0.1041
   76SLPC    HY 6828   5.785   4.150   6.645  0.4933  2.4586 -2.3269
   76SLPC   O31 6829   5.862   4.113   6.841  0.7161  0.0557  0.0396
   76SLPC   C31 6830   5.739   4.059   6.874 -1.0301  0.4582 -0.1432
   76SLPC   O32 6831   5.640   4.058   6.810 -0.3745  0.5330  0.1674
   76SLPC   C32 6832   5.746   3.990   7.004  0.3472  0.4861  0.3034
   76SLPC   H2X 6833   5.848   4.005   7.046  1.3139  0.2348 -1.8119
   76SLPC   H2Y 6834   5.733   3.881   6.987 -3.6052  0.7592  0.6713
   76SLPC   C23 6835   6.109   4.657   6.979 -0.2995  0.0558  0.0326
   76SLPC   H3R 6836   6.155   4.678   7.078  2.1633 -2.6786 -0.3948
   76SLPC   H3S 6837   6.058   4.742   6.928  2.2581 -0.8715 -4.6392
   76SLPC   C24 6838   6.228   4.616   6.895 -0.5501  0.0827 -0.1680
   76SLPC   H4R 6839   6.189   4.576   6.799 -2.4490 -0.6286  0.8438
   76SLPC   H4S 6840   6.290   4.538   6.944 -0.6574 -0.3887 -0.7664
   76SLPC   C25 6841   6.319   4.741   6.866  0.8014 -0.4279 -0.4587
   76SLPC   H5R 6842   6.248   4.823   6.839  2.2835  1.0265 -0.1253
   76SLPC   H5S 6843   6.383   4.727   6.776  1.3722  0.7329 -0.2559
   76SLPC   C26 6844   6.417   4.772   6.984  0.4083  0.1916  0.7094
   76SLPC   H6R 6845   6.455   4.675   7.023  1.0762  0.5320  0.9248
   76SLPC   H6S 6846   6.370   4.826   7.069 -0.5520  0.9232 -0.2519
   76SLPC   C27 6847   6.528   4.862   6.946  0.2132 -0.8035  0.3166
   76SLPC   H7R 6848   6.487   4.948   6.889 -0.6619 -2.1430 -1.1488
   76SLPC   H7S 6849   6.594   4.814   6.871 -0.1593 -0.3007 -0.3447
   76SLPC   C28 6850   6.615   4.907   7.063 -0.1984 -0.1068 -0.0211
   76SLPC   H8R 6851   6.686   4.977   7.013 -1.3125 -1.5151 -3.8706
   76SLPC   H8S 6852   6.548   4.960   7.133 -0.6548 -0.0728 -0.4782
   76SLPC   C29 6853   6.694   4.803   7.134 -0.9941  0.3717  0.1537
   76SLPC   H9R 6854   6.775   4.768   7.069 -1.5269  0.3111 -0.4943
   76SLPC  C210 6855   6.668   4.749   7.254 -0.4025  0.2132 -0.1893
   76SLPC  H10R 6856   6.735   4.670   7.291 -0.8850 -1.0682 -1.9399
   76SLPC  C211 6857   6.566   4.806   7.356 -0.4887  0.8565  0.2320
   76SLPC  H11R 6858   6.469   4.806   7.301 -0.7758 -0.7368  0.6968
   76SLPC  H11S 6859   6.588   4.913   7.375  3.4136  0.2985 -0.4234
   76SLPC  C212 6860   6.563   4.725   7.486 -0.5729 -0.1248 -0.0878
   76SLPC  H12R 6861   6.653   4.739   7.547  0.4602 -0.5005 -1.4753
   76SLPC  C213 6862   6.463   4.647   7.524 -0.4439 -0.0156  0.0193
   76SLPC  H13R 6863   6.477   4.599   7.622 -1.3404  0.1882  0.2536
   76SLPC  C214 6864   6.339   4.615   7.457 -0.0977  0.9401  0.4258
   76SLPC  H14R 6865   6.331   4.505   7.449  0.6526  1.0088 -2.3862
   76SLPC  H14S 6866   6.359   4.644   7.351 -0.5194 -0.8422 -0.1661
   76SLPC  C215 6867   6.205   4.656   7.508  0.0357 -0.2240 -0.8118
   76SLPC  H15R 6868   6.205   4.767   7.512 -1.0820 -0.2504  1.4135
   76SLPC  H15S 6869   6.195   4.622   7.613 -0.7792 -1.7234 -1.3584
   76SLPC  C216 6870   6.093   4.609   7.416  0.3592  0.2230 -0.2510
   76SLPC  H16R 6871   6.096   4.498   7.404 -1.2109 -0.2175  2.4841
   76SLPC  H16S 6872   6.106   4.641   7.310  2.2128  0.3042 -0.0365
   76SLPC  C217 6873   5.960   4.660   7.470  0.0135 -0.4621 -0.3393
   76SLPC  H17R 6874   5.974   4.764   7.506  0.9873 -0.3118 -1.0853
   76SLPC  H17S 6875   5.928   4.598   7.556 -1.8479 -0.1033 -0.7362
   76SLPC  C218 6876   5.852   4.654   7.352  0.8520 -0.3928 -0.0488
   76SLPC  H18R 6877   5.758   4.705   7.384  0.9556  1.1636 -2.0418
   76SLPC  H18S 6878   5.822   4.549   7.335 -0.0528  0.1767 -2.3306
   76SLPC  H18T 6879   5.888   4.706   7.260 -2.9678  1.7649 -0.5287
   76SLPC   C33 6880   5.642   4.056   7.098  0.4151  0.2354 -0.0653
   76SLPC   H3X 6881   5.537   4.060   7.062 -0.3727  0.5675  2.1105
   76SLPC   H3Y 6882   5.673   4.161   7.111  1.2087  0.0246 -0.2036
   76SLPC   C34 6883   5.649   4.005   7.240 -0.0418  0.4092  0.4045
   76SLPC   H4X 6884   5.758   3.999   7.261 -0.0629  0.7409  0.6115
   76SLPC   H4Y 6885   5.617   3.898   7.242  0.6217  0.2076  0.5038
   76SLPC   C35 6886   5.584   4.094   7.334 -0.4034 -0.1342 -0.9499
   76SLPC   H5X 6887   5.483   4.109   7.291  0.4777  4.0346 -2.0659
   76SLPC   H5Y 6888   5.625   4.196   7.319 -2.1778  0.7031 -0.4061
   76SLPC   C36 6889   5.581   4.047   7.481  0.3725  0.1360 -0.8168
   76SLPC   H6X 6890   5.551   3.940   7.487  3.0172 -0.6389 -0.2024
   76SLPC   H6Y 6891   5.512   4.116   7.534  2.7398  2.2348 -0.2878
   76SLPC   C37 6892   5.716   4.061   7.560 -0.0622  0.4885  0.0552
   76SLPC   H7X 6893   5.748   4.167   7.556  2.2400 -0.0050  2.4439
   76SLPC   H7Y 6894   5.803   4.008   7.515  0.1119 -0.0432  0.9874
   76SLPC   C38 6895   5.705   4.008   7.707  0.0232 -0.4644 -0.0809
   76SLPC   H8X 6896   5.691   3.899   7.718  1.7535 -0.6800  0.2188
   76SLPC   H8Y 6897   5.625   4.063   7.760  0.4997 -0.4733  0.6610
   76SLPC   C39 6898   5.838   4.033   7.780 -0.1655 -0.2023  0.3521
   76SLPC   H9X 6899   5.860   4.141   7.794  1.5937 -0.4685 -0.1293
   76SLPC   H9Y 6900   5.922   3.990   7.722  1.6850  1.9929  1.2468
   76SLPC  C310 6901   5.832   3.963   7.927  0.0738 -0.1602  0.2697
   76SLPC  H10X 6902   5.938   3.930   7.937 -0.8225 -3.3034  0.7858
   76SLPC  H10Y 6903   5.776   3.866   7.929  0.6901 -0.5132  1.3100
   76SLPC  C311 6904   5.780   4.057   8.040 -0.1705  0.5838  0.2087
   76SLPC  H11X 6905   5.810   4.162   8.020 -1.2810  0.9508  0.3922
   76SLPC  H11Y 6906   5.827   4.025   8.136  2.0023  1.9517 -0.3302
   76SLPC  C312 6907   5.633   4.036   8.062  0.3141 -0.0817 -0.4769
   76SLPC  H12X 6908   5.622   3.925   8.067  2.8814 -0.4283 -1.3022
   76SLPC  H12Y 6909   5.570   4.056   7.972 -1.4849 -0.2076  0.6947
   76SLPC  C313 6910   5.570   4.104   8.189  0.2188  0.4114 -0.5705
   76SLPC  H13X 6911   5.588   4.063   8.290 -1.2146  2.6290  0.6655
   76SLPC  H13Y 6912   5.460   4.093   8.173  0.0809  0.7916  0.1270
   76SLPC  C314 6913   5.586   4.261   8.188 -0.5309  0.4072 -0.5472
   76SLPC  H14X 6914   5.575   4.300   8.084 -0.5107 -1.7212 -1.3948
   76SLPC  H14Y 6915   5.692   4.285   8.210  0.0815 -1.9702 -0.6056
   76SLPC  C315 6916   5.483   4.335   8.279 -0.3798  0.1414  0.3668
   76SLPC  H15X 6917   5.521   4.320   8.382  0.6843 -0.7208 -0.1328
   76SLPC  H15Y 6918   5.379   4.296   8.276  0.4075 -2.1522  0.9282
   76SLPC  C316 6919   5.469   4.487   8.263 -0.2521  0.3884  0.7744
   76SLPC  H16X 6920   5.395   4.509   8.342 -0.3500 -1.4650  1.2434
   76SLPC  H16Y 6921   5.414   4.509   8.169  0.1048 -0.0698  0.4507
   76SLPC  C317 6922   5.606   4.561   8.272 -0.5429 -0.7486  0.7311
   76SLPC  H17X 6923   5.596   4.669   8.249  0.9585 -0.4151  1.5417
   76SLPC  H17Y 6924   5.670   4.531   8.186  0.0726  2.3624 -0.0071
   76SLPC  C318 6925   5.685   4.539   8.399  0.2298 -0.9594  0.2278
   76SLPC  H18X 6926   5.613   4.550   8.484 -0.5631 -0.5594 -0.4773
   76SLPC  H18Y 6927   5.766   4.614   8.411  0.5816 -1.3665  0.4224
   76SLPC  H18Z 6928   5.741   4.444   8.403 -3.1293 -3.1783 -0.9064
   77SLPC     N 6929   1.092   5.134   6.563  0.4152 -0.0426 -0.0608
   77SLPC   C13 6930   0.952   5.088   6.563  0.3234 -0.1140 -0.0273
   77SLPC  H13A 6931   0.933   5.016   6.641 -1.0284  0.1292 -0.1038
   77SLPC  H13B 6932   0.882   5.168   6.583  1.8895  1.8504 -1.8783
   77SLPC  H13C 6933   0.919   5.048   6.468 -1.2720  1.0397 -0.0114
   77SLPC   C14 6934   1.122   5.216   6.684  0.3552  0.1301 -1.0823
   77SLPC  H14A 6935   1.101   5.159   6.773 -0.5167 -0.4275 -1.6245
   77SLPC  H14B 6936   1.227   5.240   6.691  0.0461  1.1376  1.0436
   77SLPC  H14C 6937   1.066   5.308   6.687  2.0987  1.2211 -1.0505
   77SLPC   C15 6938   1.116   5.218   6.441 -0.2558  0.9976  0.4240
   77SLPC  H15A 6939   1.213   5.264   6.449  0.1322  0.1558  0.7121
   77SLPC  H15B 6940   1.115   5.173   6.342 -0.8425  1.1964  0.3342
   77SLPC  H15C 6941   1.056   5.307   6.450 -1.3402  0.3661 -0.2233
   77SLPC   C12 6942   1.191   5.022   6.558  0.9531 -0.0741  0.3157
   77SLPC  H12A 6943   1.295   5.049   6.547  1.4606 -2.2820 -0.9731
   77SLPC  H12B 6944   1.166   4.963   6.470  0.6001 -1.7943  1.5187
   77SLPC   C11 6945   1.184   4.912   6.662  0.3579  0.0205 -0.5136
   77SLPC  H11A 6946   1.185   4.968   6.758 -1.5956 -2.3857  1.0291
   77SLPC  H11B 6947   1.272   4.844   6.653  1.8353  1.8422 -0.4384
   77SLPC     P 6948   1.051   4.728   6.534  0.5247  0.3620 -0.2963
   77SLPC   O13 6949   0.909   4.730   6.497  0.1754 -0.0616 -0.3387
   77SLPC   O14 6950   1.149   4.745   6.427  0.5481 -0.4845  0.7259
   77SLPC   O12 6951   1.068   4.834   6.650  0.7044  0.2510  0.8906
   77SLPC   O11 6952   1.079   4.597   6.612 -0.1152  0.2440 -1.1445
   77SLPC    C1 6953   1.208   4.550   6.653  0.1400 -0.1382  0.1563
   77SLPC    HA 6954   1.248   4.471   6.585  2.9565  0.6999  0.6911
   77SLPC    HB 6955   1.280   4.633   6.637  0.1870  0.0219  1.1219
   77SLPC    C2 6956   1.207   4.487   6.793  0.1392  0.4113 -0.2292
   77SLPC    HS 6957   1.314   4.477   6.819  0.9478  2.4814 -2.3283
   77SLPC   O21 6958   1.127   4.371   6.801  0.1028  0.3684 -0.2664
   77SLPC   C21 6959   1.190   4.265   6.767 -0.0337  1.1320 -0.0105
   77SLPC   O22 6960   1.312   4.263   6.740  0.6340 -0.0107 -0.2517
   77SLPC   C22 6961   1.091   4.142   6.740 -0.8515  0.0108 -0.6170
   77SLPC   H2R 6962   1.012   4.184   6.674 -0.3299 -0.0591 -1.2957
   77SLPC   H2S 6963   1.141   4.065   6.677  0.3646 -0.5263  0.9367
   77SLPC    C3 6964   1.151   4.593   6.900 -0.0831  0.0586  0.5256
   77SLPC    HX 6965   1.048   4.624   6.873 -0.9034 -1.7842  1.3257
   77SLPC    HY 6966   1.222   4.676   6.882  1.1394 -0.7713  1.2969
   77SLPC   O31 6967   1.169   4.553   7.044 -0.5313 -0.2339  0.7287
   77SLPC   C31 6968   1.067   4.493   7.091 -0.2217 -0.1100  0.2052
   77SLPC   O32 6969   0.964   4.457   7.033 -0.3998 -0.3490 -0.2948
   77SLPC   C32 6970   1.102   4.470   7.242 -0.0056  0.1226  0.2333
   77SLPC   H2X 6971   1.119   4.564   7.297  1.7980  0.4764 -0.8543
   77SLPC   H2Y 6972   1.198   4.414   7.242  0.1682  0.2754  3.1016
   77SLPC   C23 6973   1.030   4.077   6.879 -0.0614  0.2420  0.3568
   77SLPC   H3R 6974   0.947   4.011   6.845 -0.8050  1.2927  0.0770
   77SLPC   H3S 6975   0.990   4.163   6.937 -0.3065 -0.3923  1.1471
   77SLPC   C24 6976   1.131   3.993   6.960  0.2583 -0.6008 -0.0716
   77SLPC   H4R 6977   1.110   4.016   7.067 -1.3402  0.6977 -0.6175
   77SLPC   H4S 6978   1.230   4.041   6.948 -0.3383  0.5547 -0.5603
   77SLPC   C25 6979   1.143   3.846   6.914  0.1557  0.3239 -0.7904
   77SLPC   H5R 6980   1.148   3.833   6.804  0.7744  1.6441 -0.9342
   77SLPC   H5S 6981   1.048   3.800   6.949 -0.7691  2.8002  0.1496
   77SLPC   C26 6982   1.277   3.782   6.968  0.8899 -0.5839  0.2426
   77SLPC   H6R 6983   1.287   3.798   7.078  1.0696  0.2933  0.1029
   77SLPC   H6S 6984   1.362   3.833   6.918  0.0063  0.7534  0.0712
   77SLPC   C27 6985   1.273   3.628   6.942 -0.3725 -0.5800 -1.1946
   77SLPC   H7R 6986   1.279   3.616   6.832  1.7858 -1.1975 -1.0429
   77SLPC   H7S 6987   1.175   3.588   6.976  0.3367 -0.1621  1.6305
   77SLPC   C28 6988   1.383   3.558   7.012  0.0442  1.1099 -0.4908
   77SLPC   H8R 6989   1.394   3.578   7.121  1.8733 -1.3088 -0.1368
   77SLPC   H8S 6990   1.483   3.592   6.976  0.7111  0.5660  0.7411
   77SLPC   C29 6991   1.387   3.408   6.988  0.4597 -0.2969 -0.3690
   77SLPC   H9R 6992   1.416   3.375   6.887 -1.6076  0.2907 -1.2009
   77SLPC  C210 6993   1.387   3.308   7.080 -0.2046 -0.0249 -0.0272
   77SLPC  H10R 6994   1.387   3.202   7.052  2.7391 -0.3048  0.7735
   77SLPC  C211 6995   1.366   3.326   7.232  0.4466  0.2423  0.1506
   77SLPC  H11R 6996   1.262   3.356   7.257 -0.4587 -0.8276 -2.1178
   77SLPC  H11S 6997   1.421   3.419   7.257  1.6420 -0.2929 -0.4275
   77SLPC  C212 6998   1.407   3.213   7.313  1.1469  0.7414  0.2702
   77SLPC  H12R 6999   1.385   3.110   7.283  0.1577  0.3181  2.2481
   77SLPC  C213 7000   1.497   3.220   7.406 -0.1743 -0.6358  0.1690
   77SLPC  H13R 7001   1.519   3.124   7.455  0.3212 -0.0461  1.1245
   77SLPC  C214 7002   1.572   3.347   7.456  0.6599  0.4522  0.5822
   77SLPC  H14R 7003   1.494   3.418   7.490  0.1210  0.4877 -0.6935
   77SLPC  H14S 7004   1.616   3.403   7.371 -1.3757  1.2786  0.0229
   77SLPC  C215 7005   1.667   3.319   7.569 -0.0265 -0.3753  0.9507
   77SLPC  H15R 7006   1.758   3.277   7.520 -0.6541 -0.2164 -0.3717
   77SLPC  H15S 7007   1.624   3.236   7.630  0.3931 -0.5248  1.0482
   77SLPC  C216 7008   1.705   3.438   7.655 -0.2978  0.7910  0.4091
   77SLPC  H16R 7009   1.622   3.504   7.686 -1.0151  1.0833 -1.9869
   77SLPC  H16S 7010   1.768   3.499   7.587 -0.0457  1.4039  1.1766
   77SLPC  C217 7011   1.785   3.408   7.780  0.6086 -0.0777  0.0890
   77SLPC  H17R 7012   1.851   3.322   7.757  1.2061 -0.5604  3.1220
   77SLPC  H17S 7013   1.712   3.367   7.853  0.8844  0.2397  0.5549
   77SLPC  C218 7014   1.863   3.519   7.850 -0.1263 -0.2919  0.8087
   77SLPC  H18R 7015   1.924   3.580   7.780 -0.7965  0.0686  0.5316
   77SLPC  H18S 7016   1.928   3.481   7.932  1.4491 -0.3160 -0.4193
   77SLPC  H18T 7017   1.797   3.601   7.887  1.9231  1.4675  0.7296
   77SLPC   C33 7018   0.994   4.384   7.308  0.3197 -0.4774  0.5022
   77SLPC   H3X 7019   0.972   4.301   7.238  3.0805  0.4203 -1.6030
   77SLPC   H3Y 7020   0.899   4.442   7.311 -0.0439 -0.9497 -1.0802
   77SLPC   C34 7021   1.029   4.340   7.443 -0.5400  0.3405 -0.3100
   77SLPC   H4X 7022   1.080   4.406   7.517 -2.0635 -0.4120  1.4879
   77SLPC   H4Y 7023   1.103   4.259   7.431  0.5949  1.2860  0.0848
   77SLPC   C35 7024   0.921   4.266   7.523  0.2532 -0.0818 -0.2714
   77SLPC   H5X 7025   0.876   4.180   7.469 -4.4854  2.2740 -0.6203
   77SLPC   H5Y 7026   0.833   4.331   7.541  0.0569  0.0696 -1.7226
   77SLPC   C36 7027   0.973   4.215   7.663 -0.1130 -0.4736 -0.5022
   77SLPC   H6X 7028   1.025   4.295   7.720  0.5346  1.0272 -3.0334
   77SLPC   H6Y 7029   1.057   4.145   7.641  1.2976  1.6721 -2.3255
   77SLPC   C37 7030   0.868   4.152   7.742  0.3982 -0.4019 -0.3951
   77SLPC   H7X 7031   0.928   4.090   7.813  1.0073 -1.4116 -1.7351
   77SLPC   H7Y 7032   0.815   4.074   7.684  0.3352 -0.4941 -0.2132
   77SLPC   C38 7033   0.767   4.247   7.806  0.7369 -0.6812 -0.2314
   77SLPC   H8X 7034   0.697   4.289   7.732  0.2423  1.3362  1.2836
   77SLPC   H8Y 7035   0.826   4.331   7.850  0.1590  0.3963 -1.4660
   77SLPC   C39 7036   0.703   4.179   7.925 -0.2522 -0.7547  0.2961
   77SLPC   H9X 7037   0.776   4.153   8.004  2.7154  2.4972 -1.1325
   77SLPC   H9Y 7038   0.649   4.086   7.897 -2.7077  0.8475 -0.6886
   77SLPC  C310 7039   0.597   4.274   7.994 -0.1492 -0.2276  0.1878
   77SLPC  H10X 7040   0.553   4.217   8.078 -2.0247  0.6188 -0.1511
   77SLPC  H10Y 7041   0.524   4.303   7.915  0.9316 -2.0152 -1.5366
   77SLPC  C311 7042   0.657   4.416   8.042  0.0384  0.0514 -0.4205
   77SLPC  H11X 7043   0.689   4.477   7.955  1.2802  1.2054  0.7913
   77SLPC  H11Y 7044   0.751   4.385   8.092  0.2941 -2.9990 -2.5207
   77SLPC  C312 7045   0.566   4.496   8.135 -0.0027  0.5602  0.5209
   77SLPC  H12X 7046   0.474   4.531   8.083 -0.6186  1.4930  2.1404
   77SLPC  H12Y 7047   0.623   4.585   8.170  3.1026 -0.9191 -0.3851
   77SLPC  C313 7048   0.516   4.409   8.255 -0.6082  0.0113  0.4168
   77SLPC  H13X 7049   0.599   4.352   8.302 -0.9837 -2.2006 -1.3698
   77SLPC  H13Y 7050   0.441   4.328   8.238  0.1197 -0.5578 -0.1755
   77SLPC  C314 7051   0.452   4.497   8.365 -0.3427 -0.1838 -0.1682
   77SLPC  H14X 7052   0.410   4.423   8.436  1.0308  0.0053  0.9075
   77SLPC  H14Y 7053   0.387   4.574   8.320 -2.7213 -2.0459 -0.0796
   77SLPC  C315 7054   0.563   4.570   8.445  0.7120 -0.3708 -0.6195
   77SLPC  H15X 7055   0.597   4.661   8.392  0.4522 -0.1563 -0.4154
   77SLPC  H15Y 7056   0.646   4.495   8.452  0.8166 -0.1205  2.1316
   77SLPC  C316 7057   0.529   4.606   8.587  0.1590  0.5152 -0.1161
   77SLPC  H16X 7058   0.467   4.523   8.628 -1.4649  1.8085  0.1754
   77SLPC  H16Y 7059   0.459   4.692   8.591  1.0224  1.1945  1.8381
   77SLPC  C317 7060   0.643   4.636   8.676 -0.0991 -0.4259 -0.1904
   77SLPC  H17X 7061   0.616   4.687   8.771 -2.4544 -2.0397  0.0805
   77SLPC  H17Y 7062   0.715   4.696   8.616 -1.0710  1.2892  0.2793
   77SLPC  C318 7063   0.728   4.517   8.718 -0.3590 -0.1946  0.8887
   77SLPC  H18X 7064   0.827   4.561   8.742 -0.2155 -0.3433  0.5728
   77SLPC  H18Y 7065   0.751   4.439   8.643  3.6253  0.5052  1.1605
   77SLPC  H18Z 7066   0.682   4.469   8.807  1.2845 -1.1761  1.2337
   78SLPC     N 7067   4.062   5.803   6.250 -0.0029 -1.0558  0.0333
   78SLPC   C13 7068   4.048   5.728   6.117  0.0004 -0.7890 -0.0285
   78SLPC  H13A 7069   4.144   5.736   6.067 -0.2086 -2.9031 -0.8725
   78SLPC  H13B 7070   4.042   5.621   6.118 -0.9154 -0.7484 -0.1520
   78SLPC  H13C 7071   3.969   5.761   6.051  0.5317 -0.1145 -0.3425
   78SLPC   C14 7072   3.933   5.786   6.325 -0.4343 -0.3349  0.0786
   78SLPC  H14A 7073   3.909   5.685   6.356 -0.5147  0.0685  1.3881
   78SLPC  H14B 7074   3.938   5.829   6.423  0.3893  2.3195 -1.0487
   78SLPC  H14C 7075   3.844   5.813   6.271  0.7986 -1.2723 -2.6242
   78SLPC   C15 7076   4.098   5.944   6.223  0.3243  0.0235 -0.3288
   78SLPC  H15A 7077   4.131   5.998   6.310 -0.8872 -0.4898  0.4712
   78SLPC  H15B 7078   4.180   5.949   6.153 -0.8886 -0.0506 -1.8116
   78SLPC  H15C 7079   4.006   5.987   6.186 -0.1770 -0.8620 -0.1556
   78SLPC   C12 7080   4.181   5.743   6.327 -0.1890 -0.1231  0.1136
   78SLPC  H12A 7081   4.267   5.748   6.262  0.6440 -1.6344  1.0473
   78SLPC  H12B 7082   4.153   5.640   6.341 -1.6845  0.0550 -1.2580
   78SLPC   C11 7083   4.226   5.798   6.469  0.8103 -0.1351 -0.2623
   78SLPC  H11A 7084   4.274   5.727   6.540  0.6448  0.7857  0.8088
   78SLPC  H11B 7085   4.123   5.803   6.511  1.0942  0.8442  0.3588
   78SLPC     P 7086   4.432   5.951   6.430  0.4036  0.0060  0.0377
   78SLPC   O13 7087   4.508   5.829   6.432 -0.7326  0.7384  0.2372
   78SLPC   O14 7088   4.435   6.033   6.305 -0.2412  0.0428 -0.4872
   78SLPC   O12 7089   4.282   5.930   6.475 -0.0048  0.3845 -0.0893
   78SLPC   O11 7090   4.484   6.038   6.546 -0.5783  0.0582 -0.0290
   78SLPC    C1 7091   4.566   6.011   6.661 -0.0017 -0.7581 -0.2194
   78SLPC    HA 7092   4.671   6.016   6.625  0.0409  0.6190  0.0140
   78SLPC    HB 7093   4.551   6.097   6.731  2.4610  0.5133 -1.1123
   78SLPC    C2 7094   4.549   5.883   6.737  0.0768 -0.3136 -0.3072
   78SLPC    HS 7095   4.578   5.802   6.667 -0.1779 -0.6297 -0.0489
   78SLPC   O21 7096   4.420   5.868   6.794 -0.0806  0.1518 -0.6948
   78SLPC   C21 7097   4.384   5.744   6.820  0.0926 -0.3233 -0.6225
   78SLPC   O22 7098   4.444   5.641   6.793 -0.1405  0.1716 -0.4316
   78SLPC   C22 7099   4.245   5.739   6.892  0.0533  0.3253  0.1474
   78SLPC   H2R 7100   4.175   5.767   6.810 -1.8268  1.6519  2.1033
   78SLPC   H2S 7101   4.224   5.634   6.922 -1.2924  0.7397  0.7527
   78SLPC    C3 7102   4.659   5.872   6.839  0.5046  0.5755 -0.6118
   78SLPC    HX 7103   4.754   5.893   6.786  1.3437 -0.0423  0.6054
   78SLPC    HY 7104   4.656   5.763   6.859 -0.7444  0.3811 -1.6689
   78SLPC   O31 7105   4.641   5.955   6.950 -0.4573 -0.1189  0.5142
   78SLPC   C31 7106   4.599   5.909   7.061  0.3059 -0.5122 -0.2101
   78SLPC   O32 7107   4.555   5.794   7.077  0.4512  0.0134  0.1333
   78SLPC   C32 7108   4.589   6.019   7.175 -0.4951 -0.1172  0.5886
   78SLPC   H2X 7109   4.502   6.081   7.143 -0.6702 -1.2684 -1.3113
   78SLPC   H2Y 7110   4.687   6.071   7.166 -0.7962  0.4642  0.6085
   78SLPC   C23 7111   4.222   5.837   7.007  0.9323  0.9085  0.3636
   78SLPC   H3R 7112   4.131   5.899   6.991 -1.2034 -2.1119  0.0869
   78SLPC   H3S 7113   4.312   5.902   7.020  1.2706  0.2781  1.2987
   78SLPC   C24 7114   4.193   5.753   7.129 -0.5770  0.3443  0.7596
   78SLPC   H4R 7115   4.286   5.695   7.149 -0.5109 -0.0380 -0.5830
   78SLPC   H4S 7116   4.110   5.679   7.131 -1.3717  1.1771 -0.4311
   78SLPC   C25 7117   4.176   5.845   7.248 -0.1153 -0.4225 -0.6808
   78SLPC   H5R 7118   4.069   5.874   7.252  0.0021 -0.1507  1.2818
   78SLPC   H5S 7119   4.234   5.940   7.237 -2.0722  0.8294 -0.6804
   78SLPC   C26 7120   4.219   5.784   7.383  0.2148  0.0960 -0.0029
   78SLPC   H6R 7121   4.318   5.734   7.394 -0.1742 -0.1652  3.0779
   78SLPC   H6S 7122   4.157   5.692   7.396  1.2948 -0.6333  0.1832
   78SLPC   C27 7123   4.205   5.890   7.495  0.2944 -0.7838 -0.4064
   78SLPC   H7R 7124   4.095   5.910   7.500  0.6454  1.0355  0.7681
   78SLPC   H7S 7125   4.260   5.978   7.456 -0.3193  0.5828  1.6565
   78SLPC   C28 7126   4.274   5.850   7.628  0.8000 -0.4873 -0.3727
   78SLPC   H8R 7127   4.305   5.937   7.690 -1.8522 -0.4199  1.0198
   78SLPC   H8S 7128   4.360   5.784   7.607 -0.4153 -1.6413 -2.0316
   78SLPC   C29 7129   4.183   5.765   7.719 -0.7006 -0.4690 -0.3769
   78SLPC   H9R 7130   4.142   5.672   7.678  2.9008 -2.5074  0.1576
   78SLPC  C210 7131   4.147   5.791   7.842  0.4173  0.3212 -0.8497
   78SLPC  H10R 7132   4.079   5.714   7.880 -0.1482  0.5768 -1.3207
   78SLPC  C211 7133   4.172   5.910   7.930 -0.1265 -0.1414  0.4088
   78SLPC  H11R 7134   4.193   5.996   7.864  0.4577  0.6586  1.6123
   78SLPC  H11S 7135   4.272   5.909   7.978 -0.7936  1.5288  1.9402
   78SLPC  C212 7136   4.066   5.955   8.028  0.2303  1.2895 -0.2396
   78SLPC  H12R 7137   3.983   5.884   8.036  2.2124 -1.4005 -1.9868
   78SLPC  C213 7138   4.076   6.055   8.120  0.3675  0.0294  0.3896
   78SLPC  H13R 7139   4.000   6.072   8.197 -0.7625  1.8858 -1.0523
   78SLPC  C214 7140   4.208   6.130   8.140  0.0721 -0.3960  0.1255
   78SLPC  H14R 7141   4.180   6.237   8.154  0.1625 -0.4061  0.3998
   78SLPC  H14S 7142   4.272   6.114   8.051 -0.1930 -1.0830  0.0492
   78SLPC  C215 7143   4.276   6.075   8.264 -0.1947 -0.0838 -0.1241
   78SLPC  H15R 7144   4.354   6.147   8.297 -0.3136  0.2938 -0.6677
   78SLPC  H15S 7145   4.329   5.982   8.235 -0.3806 -0.8410  1.7714
   78SLPC  C216 7146   4.191   6.034   8.383 -0.2031 -0.0204  0.7079
   78SLPC  H16R 7147   4.259   5.980   8.452  0.0160 -1.1979 -0.3885
   78SLPC  H16S 7148   4.111   5.963   8.352 -0.5775  0.2304  1.0790
   78SLPC  C217 7149   4.134   6.155   8.461  0.8814  0.4114 -0.3520
   78SLPC  H17R 7150   4.053   6.210   8.410 -0.9029 -0.7577  1.0668
   78SLPC  H17S 7151   4.215   6.230   8.473  1.1840  0.1382 -0.6688
   78SLPC  C218 7152   4.084   6.106   8.593 -0.0129 -0.1147  0.5048
   78SLPC  H18R 7153   4.158   6.042   8.646  1.1108  0.8737  0.1697
   78SLPC  H18S 7154   3.992   6.047   8.578  0.4952 -1.2546  1.6586
   78SLPC  H18T 7155   4.046   6.192   8.652  1.2277  1.3734 -0.7786
   78SLPC   C33 7156   4.586   5.979   7.322 -0.3261  0.3282  0.0593
   78SLPC   H3X 7157   4.662   5.899   7.333 -0.9880 -0.4428 -0.8120
   78SLPC   H3Y 7158   4.484   5.944   7.348  0.2185 -1.0065  0.4920
   78SLPC   C34 7159   4.620   6.087   7.429 -0.4294  0.0595 -0.2604
   78SLPC   H4X 7160   4.526   6.147   7.428 -0.4563  0.0995  1.6886
   78SLPC   H4Y 7161   4.703   6.157   7.408 -0.1291 -0.2744 -0.1869
   78SLPC   C35 7162   4.645   6.027   7.569  0.0319  0.4712 -0.0680
   78SLPC   H5X 7163   4.731   5.957   7.572  0.0147  0.4637  0.2039
   78SLPC   H5Y 7164   4.556   5.961   7.581 -0.2882  0.8263 -0.4543
   78SLPC   C36 7165   4.642   6.143   7.666 -0.4318 -0.4108  0.6750
   78SLPC   H6X 7166   4.549   6.201   7.650  0.4558  0.6461 -1.0144
   78SLPC   H6Y 7167   4.727   6.213   7.650 -0.1078 -0.7032  1.0833
   78SLPC   C37 7168   4.642   6.085   7.803 -0.4741  0.0825 -0.4264
   78SLPC   H7X 7169   4.743   6.051   7.833  0.5171  2.8183 -0.4105
   78SLPC   H7Y 7170   4.576   5.996   7.815 -2.8157  1.9141  1.3046
   78SLPC   C38 7171   4.604   6.190   7.910  0.5652  0.0529 -0.4563
   78SLPC   H8X 7172   4.502   6.230   7.889 -0.2026 -1.0716  1.0108
   78SLPC   H8Y 7173   4.684   6.267   7.905  1.6673 -0.9685  0.6589
   78SLPC   C39 7174   4.592   6.154   8.058 -0.2100  0.0995  1.1855
   78SLPC   H9X 7175   4.508   6.084   8.074 -0.2422 -0.6065 -1.6921
   78SLPC   H9Y 7176   4.570   6.249   8.111 -0.9717  1.1460 -0.8962
   78SLPC  C310 7177   4.721   6.093   8.111  0.4765 -0.5478 -0.4636
   78SLPC  H10X 7178   4.811   6.146   8.074 -0.2722  0.9109 -0.2362
   78SLPC  H10Y 7179   4.740   5.991   8.070 -1.2451 -1.7675  1.5652
   78SLPC  C311 7180   4.718   6.087   8.266 -0.2273  0.4408  0.2461
   78SLPC  H11X 7181   4.644   6.008   8.291  1.2738 -1.4892 -1.1714
   78SLPC  H11Y 7182   4.682   6.186   8.303 -2.4049 -0.4766  0.7503
   78SLPC  C312 7183   4.846   6.060   8.343  0.4923 -0.1737 -0.1414
   78SLPC  H12X 7184   4.889   6.162   8.342  1.6175 -0.5892 -3.2001
   78SLPC  H12Y 7185   4.912   5.991   8.287  2.6697  1.0163  0.8474
   78SLPC  C313 7186   4.824   6.011   8.484  0.2029 -0.1001 -0.4418
   78SLPC  H13X 7187   4.779   5.910   8.469  0.6006  0.1625 -4.5737
   78SLPC  H13Y 7188   4.742   6.069   8.531 -0.0373 -1.3008  0.7016
   78SLPC  C314 7189   4.947   6.018   8.577  0.7141  0.3726  0.3313
   78SLPC  H14X 7190   4.998   6.117   8.579 -1.6987  1.7617 -1.3041
   78SLPC  H14Y 7191   5.012   5.952   8.518 -0.7075  0.5533 -1.5201
   78SLPC  C315 7192   4.937   5.962   8.718 -0.2236  0.4734  0.3350
   78SLPC  H15X 7193   4.912   5.854   8.715 -1.3748  0.7423 -0.0907
   78SLPC  H15Y 7194   4.848   6.009   8.766 -2.5627 -2.2794 -1.0385
   78SLPC  C316 7195   5.069   5.987   8.789  0.1783 -0.1823  0.2299
   78SLPC  H16X 7196   5.094   6.093   8.811 -0.5181 -0.1494  0.9091
   78SLPC  H16Y 7197   5.142   5.944   8.717  0.2403 -0.1456  0.2700
   78SLPC  C317 7198   5.071   5.915   8.925 -0.0379 -0.0101  0.1256
   78SLPC  H17X 7199   5.092   5.807   8.915 -1.2739 -0.2806  0.3147
   78SLPC  H17Y 7200   4.964   5.926   8.953 -0.6856 -1.8301 -1.3954
   78SLPC  C318 7201   5.161   5.971   9.032  0.3113 -0.6758  0.5269
   78SLPC  H18X 7202   5.130   6.072   9.065  2.4061  0.1180  0.1726
   78SLPC  H18Y 7203   5.262   5.976   8.986 -0.0476 -2.9496 -0.6709
   78SLPC  H18Z 7204   5.164   5.899   9.117  1.7610 -0.5349  0.6190
   79SLPC     N 7205   0.769   0.165   6.070 -0.8185  0.9569 -0.0895
   79SLPC   C13 7206   0.692   0.069   5.993  0.0134  0.4702  0.2922
   79SLPC  H13A 7207   0.679  -0.023   6.049  1.2070 -0.2258 -0.5443
   79SLPC  H13B 7208   0.597   0.110   5.962  0.5693  2.5134  1.1693
   79SLPC  H13C 7209   0.731   0.032   5.899  0.4959 -0.0399  0.6870
   79SLPC   C14 7210   0.784   0.302   6.000  0.7550  0.1371 -0.4622
   79SLPC  H14A 7211   0.696   0.336   5.947 -0.6827 -1.6478  0.6326
   79SLPC  H14B 7212   0.805   0.379   6.073 -0.3185  1.0788 -1.1014
   79SLPC  H14C 7213   0.862   0.301   5.926 -0.0672  2.1584 -1.4406
   79SLPC   C15 7214   0.912   0.120   6.060 -0.2080  0.0246 -0.1913
   79SLPC  H15A 7215   0.976   0.170   6.131 -0.3476  1.5465 -1.1050
   79SLPC  H15B 7216   0.911   0.012   6.073 -1.3017 -0.4785 -3.5621
   79SLPC  H15C 7217   0.947   0.142   5.961 -0.9224 -0.8878 -0.6685
   79SLPC   C12 7218   0.719   0.167   6.213  0.5699  0.2085  0.7287
   79SLPC  H12A 7219   0.730   0.069   6.257 -2.3628 -1.4955 -1.8986
   79SLPC  H12B 7220   0.612   0.182   6.211  0.6320  0.8401  1.4907
   79SLPC   C11 7221   0.775   0.260   6.322  0.7661 -0.2176 -1.0294
   79SLPC  H11A 7222   0.714   0.254   6.414  1.9451  1.0781 -0.1095
   79SLPC  H11B 7223   0.751   0.360   6.280  1.1399  0.9501  1.4025
   79SLPC     P 7224   0.970   0.120   6.434 -0.1407 -0.1321  0.4596
   79SLPC   O13 7225   0.863   0.079   6.529  0.3208 -0.1448  0.4602
   79SLPC   O14 7226   1.015   0.027   6.330 -0.1663  0.3605 -0.5605
   79SLPC   O12 7227   0.915   0.246   6.352  0.4121 -0.3751 -0.0243
   79SLPC   O11 7228   1.090   0.181   6.499 -0.7174 -0.2688  0.0952
   79SLPC    C1 7229   1.131   0.170   6.635 -0.3167 -0.5028 -0.3536
   79SLPC    HA 7230   1.072   0.092   6.689  0.5092 -0.4341  0.6652
   79SLPC    HB 7231   1.234   0.128   6.635  0.6163  1.6775 -0.4953
   79SLPC    C2 7232   1.156   0.304   6.709  0.2849  0.1154  0.7876
   79SLPC    HS 7233   1.163   0.286   6.819  0.9384  1.8116  1.0602
   79SLPC   O21 7234   1.060   0.403   6.680  0.6619 -0.5760  0.0024
   79SLPC   C21 7235   0.937   0.385   6.734 -1.1554 -0.9063 -0.1694
   79SLPC   O22 7236   0.896   0.289   6.796 -0.0726 -0.2451  0.3444
   79SLPC   C22 7237   0.855   0.516   6.706  0.1790 -0.3285 -0.3474
   79SLPC   H2R 7238   0.891   0.602   6.767 -0.4437 -1.1746  1.2696
   79SLPC   H2S 7239   0.874   0.536   6.598  1.3588  1.1866  0.0887
   79SLPC    C3 7240   1.292   0.367   6.669 -0.1531 -0.2210  0.5215
   79SLPC    HX 7241   1.298   0.370   6.558 -1.5005 -0.2707  0.4300
   79SLPC    HY 7242   1.375   0.301   6.701  1.8372  0.8004 -2.1590
   79SLPC   O31 7243   1.319   0.491   6.739  0.3331 -0.4296  0.5551
   79SLPC   C31 7244   1.280   0.602   6.680  0.4365  0.1666  0.4152
   79SLPC   O32 7245   1.241   0.614   6.561 -0.3003 -0.3969  0.2883
   79SLPC   C32 7246   1.290   0.729   6.764  0.0684  0.3179 -0.0375
   79SLPC   H2X 7247   1.297   0.824   6.707  1.5444  1.1370  1.4000
   79SLPC   H2Y 7248   1.390   0.715   6.812  1.3950  1.3162 -2.3179
   79SLPC   C23 7249   0.697   0.508   6.721 -0.3901 -0.2301 -0.1615
   79SLPC   H3R 7250   0.664   0.408   6.685  0.1020  0.1232 -1.6504
   79SLPC   H3S 7251   0.658   0.581   6.647  0.6560  0.2238 -0.2869
   79SLPC   C24 7252   0.647   0.548   6.857 -0.2303 -0.2366  0.0565
   79SLPC   H4R 7253   0.540   0.519   6.863  0.1842 -1.8215  0.4812
   79SLPC   H4S 7254   0.663   0.658   6.860  1.7491 -0.3923 -2.0756
   79SLPC   C25 7255   0.700   0.472   6.985 -0.5794 -0.1917  0.1881
   79SLPC   H5R 7256   0.675   0.533   7.074  2.1068 -0.6702  1.3715
   79SLPC   H5S 7257   0.811   0.468   6.988 -0.3262  3.3050 -0.2635
   79SLPC   C26 7258   0.633   0.337   6.998  0.4266  0.4644 -0.2125
   79SLPC   H6R 7259   0.668   0.284   6.907 -0.9013 -1.8522  0.5530
   79SLPC   H6S 7260   0.522   0.336   6.992  0.3085 -0.5097  1.4424
   79SLPC   C27 7261   0.665   0.253   7.122 -0.7360 -0.2325 -0.4245
   79SLPC   H7R 7262   0.775   0.260   7.133 -0.6354 -1.9897 -0.0286
   79SLPC   H7S 7263   0.634   0.147   7.115  2.5147 -1.2593 -0.7629
   79SLPC   C28 7264   0.592   0.307   7.254 -0.5474 -0.4588  0.3220
   79SLPC   H8R 7265   0.484   0.304   7.230 -0.5256  1.7782 -0.2819
   79SLPC   H8S 7266   0.616   0.414   7.272 -1.9455 -0.1280  0.3046
   79SLPC   C29 7267   0.620   0.245   7.385 -0.5823 -0.2169 -0.2292
   79SLPC   H9R 7268   0.687   0.158   7.382 -1.1527 -0.7073  0.7405
   79SLPC  C210 7269   0.574   0.282   7.505  0.5419 -0.1213 -0.2868
   79SLPC  H10R 7270   0.602   0.224   7.595 -1.6505 -0.7778  0.0323
   79SLPC  C211 7271   0.472   0.391   7.532  0.2782  0.0657  0.3210
   79SLPC  H11R 7272   0.417   0.414   7.438  3.2193 -3.3077 -2.5388
   79SLPC  H11S 7273   0.521   0.488   7.558 -0.2244  0.2768  0.4927
   79SLPC  C212 7274   0.363   0.350   7.627 -0.9571  0.2966  0.5334
   79SLPC  H12R 7275   0.301   0.265   7.595 -0.4685 -0.2049  0.9126
   79SLPC  C213 7276   0.339   0.411   7.743 -0.1499  1.4092 -0.5790
   79SLPC  H13R 7277   0.253   0.387   7.807 -0.3751  0.0775 -1.3438
   79SLPC  C214 7278   0.410   0.530   7.801 -0.7672  0.5023 -0.2146
   79SLPC  H14R 7279   0.376   0.622   7.748  0.5813  0.7562 -0.6784
   79SLPC  H14S 7280   0.517   0.507   7.784 -1.0081 -1.7157  0.8619
   79SLPC  C215 7281   0.385   0.549   7.950 -0.2797 -0.1004  0.5157
   79SLPC  H15R 7282   0.282   0.585   7.968  0.2666  0.9996  1.6223
   79SLPC  H15S 7283   0.438   0.638   7.990  1.7442 -0.9084 -0.1999
   79SLPC  C216 7284   0.409   0.424   8.043 -0.1724 -0.6319 -0.4475
   79SLPC  H16R 7285   0.512   0.392   8.016  1.2137  2.0711  1.1303
   79SLPC  H16S 7286   0.327   0.358   8.009 -0.4135  0.6339 -2.5189
   79SLPC  C217 7287   0.394   0.450   8.190  0.2479 -0.5766  0.2095
   79SLPC  H17R 7288   0.451   0.545   8.203 -0.8087  0.5062 -2.2937
   79SLPC  H17S 7289   0.432   0.364   8.250 -2.7341 -0.9247  1.7755
   79SLPC  C218 7290   0.241   0.458   8.231 -0.9212  0.4755 -0.3938
   79SLPC  H18R 7291   0.201   0.356   8.252 -0.3613  0.5239  1.0493
   79SLPC  H18S 7292   0.176   0.504   8.153 -2.1752  0.8360  0.8225
   79SLPC  H18T 7293   0.238   0.510   8.329 -0.7004 -0.2348 -0.0020
   79SLPC   C33 7294   1.183   0.743   6.879 -0.2483  0.3926 -0.6088
   79SLPC   H3X 7295   1.083   0.764   6.835 -0.2155  0.9605 -0.4162
   79SLPC   H3Y 7296   1.215   0.829   6.941 -1.1508  1.2243 -1.2520
   79SLPC   C34 7297   1.161   0.611   6.960  0.2363 -0.1035 -0.4503
   79SLPC   H4X 7298   1.257   0.580   7.008 -0.3652  0.4027  1.1574
   79SLPC   H4Y 7299   1.126   0.523   6.902  1.9950 -0.2632 -1.3366
   79SLPC   C35 7300   1.072   0.623   7.082 -0.2021 -0.3596  0.0752
   79SLPC   H5X 7301   0.969   0.635   7.043  0.2080  1.1972 -0.6185
   79SLPC   H5Y 7302   1.101   0.721   7.126 -0.8194  0.9204 -2.1544
   79SLPC   C36 7303   1.082   0.500   7.176 -0.1172 -0.2429 -0.8547
   79SLPC   H6X 7304   1.188   0.468   7.175  0.2054  0.7898 -1.9361
   79SLPC   H6Y 7305   1.023   0.421   7.126  2.2574 -3.0311  0.4740
   79SLPC   C37 7306   1.020   0.542   7.311  0.3604  0.1586  0.1236
   79SLPC   H7X 7307   0.920   0.576   7.278  0.1114 -1.6692 -1.1435
   79SLPC   H7Y 7308   1.079   0.628   7.348  1.0523 -1.4085  2.9915
   79SLPC   C38 7309   1.007   0.428   7.406 -0.2183  0.1737  0.3560
   79SLPC   H8X 7310   1.107   0.384   7.430 -1.1679 -0.5275  3.4481
   79SLPC   H8Y 7311   0.970   0.341   7.347  3.4494  0.9632 -3.6666
   79SLPC   C39 7312   0.931   0.445   7.540 -0.4297 -0.5121  0.2822
   79SLPC   H9X 7313   0.823   0.454   7.516 -0.5285 -1.9725  0.0947
   79SLPC   H9Y 7314   0.964   0.537   7.592 -0.8302 -1.0899  1.6123
   79SLPC  C310 7315   0.940   0.331   7.639 -0.9085  0.0269 -0.0378
   79SLPC  H10X 7316   1.048   0.308   7.639 -0.5486  1.5332  0.9112
   79SLPC  H10Y 7317   0.890   0.237   7.608  0.2968 -0.8970  0.7390
   79SLPC  C311 7318   0.895   0.372   7.781 -0.2557 -0.5875  0.0044
   79SLPC  H11X 7319   0.789   0.405   7.770 -0.3383 -0.4116  1.2111
   79SLPC  H11Y 7320   0.931   0.474   7.805 -2.8285  0.3371  0.2687
   79SLPC  C312 7321   0.913   0.275   7.901  0.0007 -0.1916 -0.2472
   79SLPC  H12X 7322   1.010   0.294   7.951 -0.5596  0.4402  0.6456
   79SLPC  H12Y 7323   0.899   0.168   7.876 -2.0783 -0.0278  0.0100
   79SLPC  C313 7324   0.809   0.302   8.008  0.2184 -0.4181 -0.5412
   79SLPC  H13X 7325   0.714   0.269   7.959 -0.5096  2.8344 -1.6001
   79SLPC  H13Y 7326   0.798   0.412   8.026 -1.2393 -0.8098  1.2602
   79SLPC  C314 7327   0.840   0.247   8.147  0.7094  0.4302  0.5137
   79SLPC  H14X 7328   0.927   0.302   8.188  1.2507  0.6722 -0.8852
   79SLPC  H14Y 7329   0.871   0.140   8.148  0.7288  0.4377  0.6424
   79SLPC  C315 7330   0.715   0.244   8.240 -0.0771  0.7042  0.4418
   79SLPC  H15X 7331   0.629   0.203   8.183 -0.4623  2.5718 -0.4042
   79SLPC  H15Y 7332   0.698   0.351   8.266 -4.2097 -0.2299  2.3310
   79SLPC  C316 7333   0.751   0.172   8.372  0.1580 -0.1784  0.2561
   79SLPC  H16X 7334   0.691   0.224   8.450  1.3644  3.3995 -1.0015
   79SLPC  H16Y 7335   0.852   0.209   8.399  0.0982 -1.5511  2.6801
   79SLPC  C317 7336   0.723   0.022   8.367 -0.1323 -0.5971  0.2667
   79SLPC  H17X 7337   0.753  -0.020   8.465 -0.6437 -2.4653 -0.3178
   79SLPC  H17Y 7338   0.794  -0.024   8.295  1.2130  0.8499  0.6312
   79SLPC  C318 7339   0.584  -0.028   8.343 -0.0896  0.2294 -0.2641
   79SLPC  H18X 7340   0.541   0.005   8.246 -0.5479  1.5267  0.3624
   79SLPC  H18Y 7341   0.515   0.001   8.425  0.4646 -1.2268  0.7596
   79SLPC  H18Z 7342   0.589  -0.139   8.336  2.3394  0.2412  0.4196
   80SLPC     N 7343   2.546   4.457   6.300  0.3615  0.2200 -0.3791
   80SLPC   C13 7344   2.455   4.364   6.227 -0.5847  0.3611  0.3526
   80SLPC  H13A 7345   2.352   4.390   6.246 -1.6224 -0.8342 -2.9805
   80SLPC  H13B 7346   2.467   4.382   6.122 -1.1352 -1.0250  0.0365
   80SLPC  H13C 7347   2.469   4.260   6.249  0.8034  0.0528 -1.8037
   80SLPC   C14 7348   2.688   4.409   6.256 -0.4829 -0.1173  0.9302
   80SLPC  H14A 7349   2.720   4.312   6.291  0.2254 -0.1037  0.3618
   80SLPC  H14B 7350   2.691   4.416   6.149 -0.8974  0.5590  0.9576
   80SLPC  H14C 7351   2.766   4.472   6.299  1.5448 -2.1954  0.5043
   80SLPC   C15 7352   2.524   4.432   6.445 -0.0692  0.4897  0.6102
   80SLPC  H15A 7353   2.542   4.326   6.461 -0.6301  0.6269  2.3690
   80SLPC  H15B 7354   2.595   4.482   6.510  0.2782 -0.6470  1.1530
   80SLPC  H15C 7355   2.424   4.460   6.475 -0.2737  0.5922 -0.1495
   80SLPC   C12 7356   2.505   4.590   6.258 -0.2130  0.0294  0.2298
   80SLPC  H12A 7357   2.530   4.599   6.153 -1.5321 -1.3975 -0.2423
   80SLPC  H12B 7358   2.576   4.652   6.312 -0.0972  0.7657 -0.7405
   80SLPC   C11 7359   2.363   4.644   6.295  0.3388 -0.5090  0.1342
   80SLPC  H11A 7360   2.292   4.596   6.224  0.4907 -0.0723 -0.3142
   80SLPC  H11B 7361   2.372   4.749   6.261  2.6606 -0.2056  1.4772
   80SLPC     P 7362   2.218   4.724   6.503 -0.4769  0.0730 -0.2159
   80SLPC   O13 7363   2.153   4.804   6.397 -0.0131 -0.2671  0.8539
   80SLPC   O14 7364   2.137   4.634   6.589  0.7430 -0.4825 -0.5128
   80SLPC   O12 7365   2.324   4.633   6.438 -0.5095  0.4747 -0.4864
   80SLPC   O11 7366   2.307   4.828   6.579  0.1753  0.3257  0.2184
   80SLPC    C1 7367   2.437   4.786   6.632 -0.5021 -1.4388 -0.5859
   80SLPC    HA 7368   2.505   4.742   6.556  1.3684 -1.8127  1.2272
   80SLPC    HB 7369   2.501   4.870   6.667 -1.3208 -0.0957 -2.1418
   80SLPC    C2 7370   2.429   4.686   6.752  0.3572  0.7252 -0.1210
   80SLPC    HS 7371   2.386   4.587   6.729  0.6834  0.5470  0.0252
   80SLPC   O21 7372   2.347   4.749   6.854  0.0454  0.2370  0.0254
   80SLPC   C21 7373   2.304   4.661   6.947 -0.1623  0.3950 -0.1743
   80SLPC   O22 7374   2.321   4.537   6.936  0.2385 -0.1340  0.4009
   80SLPC   C22 7375   2.233   4.727   7.069  0.0988  0.7554 -0.4437
   80SLPC   H2R 7376   2.286   4.815   7.110 -0.9646  0.1184  2.5416
   80SLPC   H2S 7377   2.133   4.762   7.036  0.0523  1.3829  0.3380
   80SLPC    C3 7378   2.576   4.659   6.799 -0.3174 -0.4170 -0.1481
   80SLPC    HX 7379   2.638   4.751   6.798  0.7905 -1.1440 -0.8303
   80SLPC    HY 7380   2.629   4.611   6.714 -0.1008  1.4840 -1.1464
   80SLPC   O31 7381   2.597   4.599   6.929 -0.4842  0.0404 -0.0621
   80SLPC   C31 7382   2.612   4.470   6.918 -0.5503  0.6505 -0.3013
   80SLPC   O32 7383   2.591   4.409   6.812  0.3573  0.2849 -0.3258
   80SLPC   C32 7384   2.643   4.393   7.050  0.0624 -0.9117  0.2668
   80SLPC   H2X 7385   2.728   4.445   7.099  0.2151 -0.3889 -0.5361
   80SLPC   H2Y 7386   2.672   4.286   7.040  1.3435 -0.4709 -1.2656
   80SLPC   C23 7387   2.199   4.639   7.194 -0.0475  0.1890 -0.1361
   80SLPC   H3R 7388   2.298   4.607   7.234  1.0634  3.0541 -0.3443
   80SLPC   H3S 7389   2.140   4.553   7.156 -0.4189  0.3492  0.0784
   80SLPC   C24 7390   2.116   4.715   7.303 -0.8372 -0.1294  0.2073
   80SLPC   H4R 7391   2.013   4.744   7.273  0.1380  2.1620 -1.1332
   80SLPC   H4S 7392   2.172   4.810   7.312  0.6166 -0.5820 -2.7594
   80SLPC   C25 7393   2.110   4.634   7.434  0.0766 -0.2843 -0.7954
   80SLPC   H5R 7394   2.209   4.618   7.482  0.8404  2.0768 -1.4413
   80SLPC   H5S 7395   2.068   4.535   7.407  0.7310 -0.7502 -0.1506
   80SLPC   C26 7396   2.011   4.702   7.535 -0.0966  0.2064 -0.0725
   80SLPC   H6R 7397   1.909   4.697   7.491  0.9344  2.0674 -2.8988
   80SLPC   H6S 7398   2.029   4.808   7.560  0.5767 -0.0527  0.5752
   80SLPC   C27 7399   2.011   4.628   7.664  0.4864  0.2508  0.3008
   80SLPC   H7R 7400   2.024   4.519   7.648 -2.2102 -0.2123  0.6991
   80SLPC   H7S 7401   1.909   4.646   7.705  0.8890  3.1434  0.2043
   80SLPC   C28 7402   2.111   4.677   7.773 -0.0607 -0.4443  0.7315
   80SLPC   H8R 7403   2.088   4.783   7.794  0.5248 -0.4730  1.6267
   80SLPC   H8S 7404   2.213   4.687   7.729 -0.0376  1.0025  1.0729
   80SLPC   C29 7405   2.118   4.579   7.887 -0.2317  0.4166 -0.0077
   80SLPC   H9R 7406   2.178   4.488   7.873 -1.3558 -0.3679  0.1396
   80SLPC  C210 7407   2.048   4.589   7.998  0.0594 -0.7433 -0.0406
   80SLPC  H10R 7408   2.056   4.509   8.073 -2.1039  0.5886  1.7658
   80SLPC  C211 7409   1.955   4.708   8.022 -0.2170 -0.5853 -0.4628
   80SLPC  H11R 7410   1.975   4.803   7.969  1.6464 -0.7567 -0.1430
   80SLPC  H11S 7411   1.986   4.745   8.122  0.0728 -1.5418 -0.1877
   80SLPC  C212 7412   1.813   4.662   8.028  0.2137 -0.9636  0.0966
   80SLPC  H12R 7413   1.761   4.634   7.935  0.3037 -1.5525  0.2224
   80SLPC  C213 7414   1.731   4.667   8.138 -0.2269  0.2589 -0.0784
   80SLPC  H13R 7415   1.629   4.626   8.142 -0.6430  1.3118  0.4020
   80SLPC  C214 7416   1.769   4.710   8.283 -0.7680  0.5824 -0.4087
   80SLPC  H14R 7417   1.852   4.783   8.270  1.5460 -1.7388  0.4605
   80SLPC  H14S 7418   1.812   4.616   8.324 -2.4989 -0.0956 -0.0660
   80SLPC  C215 7419   1.653   4.769   8.367  0.1847  0.1583  0.4171
   80SLPC  H15R 7420   1.616   4.857   8.310  0.3216  0.7755  1.2689
   80SLPC  H15S 7421   1.699   4.803   8.462 -0.6411  3.9837 -0.3575
   80SLPC  C216 7422   1.532   4.676   8.405 -0.4359 -0.3375  0.4437
   80SLPC  H16R 7423   1.468   4.665   8.314  0.6888 -6.0201 -0.0634
   80SLPC  H16S 7424   1.485   4.726   8.491 -2.4541 -2.5240  0.7182
   80SLPC  C217 7425   1.577   4.540   8.452  0.3764  0.2268 -0.2717
   80SLPC  H17R 7426   1.632   4.551   8.547 -1.7614 -2.8473  1.5440
   80SLPC  H17S 7427   1.629   4.484   8.371 -1.3458 -0.2492 -1.1111
   80SLPC  C218 7428   1.458   4.443   8.480 -0.0852  0.4807 -0.5652
   80SLPC  H18R 7429   1.364   4.489   8.516 -1.4572 -1.6209 -1.3256
   80SLPC  H18S 7430   1.479   4.354   8.544 -5.3097 -0.0447  0.8829
   80SLPC  H18T 7431   1.434   4.400   8.381 -1.1759  1.2572 -0.6546
   80SLPC   C33 7432   2.516   4.401   7.144 -0.2859 -0.2547  0.0972
   80SLPC   H3X 7433   2.434   4.346   7.092  0.4352  0.0840 -1.4805
   80SLPC   H3Y 7434   2.472   4.503   7.158  1.3825  1.0372 -3.0200
   80SLPC   C34 7435   2.547   4.354   7.287 -0.1007 -0.1796  0.6219
   80SLPC   H4X 7436   2.636   4.410   7.322  0.3092 -0.2103 -0.3276
   80SLPC   H4Y 7437   2.583   4.249   7.285  1.5264  0.3333 -1.1127
   80SLPC   C35 7438   2.435   4.393   7.380  0.1605  0.5182 -0.0155
   80SLPC   H5X 7439   2.342   4.343   7.344  1.3650 -1.1470 -0.9429
   80SLPC   H5Y 7440   2.427   4.504   7.377 -1.3993  0.4147 -0.7489
   80SLPC   C36 7441   2.452   4.330   7.524 -0.0829  0.1352  0.0376
   80SLPC   H6X 7442   2.530   4.380   7.586  1.0930 -2.9977  1.2755
   80SLPC   H6Y 7443   2.491   4.227   7.512 -0.9705 -0.1374 -0.6260
   80SLPC   C37 7444   2.319   4.333   7.614 -0.5284  0.1459  1.1200
   80SLPC   H7X 7445   2.237   4.295   7.550  0.6762 -1.2317  0.3207
   80SLPC   H7Y 7446   2.298   4.439   7.640 -0.8829  1.2104 -2.8460
   80SLPC   C38 7447   2.335   4.245   7.739  0.8051  0.1014 -0.1490
   80SLPC   H8X 7448   2.364   4.142   7.709 -0.4624 -0.1479 -0.5786
   80SLPC   H8Y 7449   2.233   4.240   7.783  0.6029  3.0511 -0.0724
   80SLPC   C39 7450   2.440   4.299   7.841 -0.7194 -0.6819  0.6484
   80SLPC   H9X 7451   2.421   4.407   7.860 -3.1669 -0.9813  0.3274
   80SLPC   H9Y 7452   2.541   4.294   7.795 -1.3187  0.7141 -0.9238
   80SLPC  C310 7453   2.435   4.241   7.986  0.1930 -0.9468  0.0378
   80SLPC  H10X 7454   2.427   4.130   7.981 -0.3302 -0.9084 -0.0469
   80SLPC  H10Y 7455   2.343   4.275   8.039  0.2748 -1.2309  0.3715
   80SLPC  C311 7456   2.554   4.277   8.073  0.2899 -0.2312  0.7548
   80SLPC  H11X 7457   2.548   4.388   8.082 -1.0094 -0.0223 -1.7135
   80SLPC  H11Y 7458   2.650   4.263   8.017  0.5098 -1.4079  1.4089
   80SLPC  C312 7459   2.546   4.207   8.208 -0.0491 -0.1136  0.1114
   80SLPC  H12X 7460   2.554   4.098   8.190  0.1219  0.1883 -1.8603
   80SLPC  H12Y 7461   2.445   4.218   8.252 -0.2779  0.1987 -0.4852
   80SLPC  C313 7462   2.655   4.250   8.306 -0.7527  0.2858  0.5252
   80SLPC  H13X 7463   2.659   4.361   8.303  0.4983  0.2320 -2.1138
   80SLPC  H13Y 7464   2.753   4.220   8.263 -1.3456 -0.7622 -0.1292
   80SLPC  C314 7465   2.652   4.189   8.443 -0.1093  0.6341 -0.0854
   80SLPC  H14X 7466   2.647   4.078   8.450 -0.9695  0.6864  0.2884
   80SLPC  H14Y 7467   2.563   4.225   8.499  1.1059  1.3571  1.4517
   80SLPC  C315 7468   2.764   4.238   8.536 -1.0252 -0.0908 -0.7325
   80SLPC  H15X 7469   2.790   4.344   8.518  1.3042 -0.4963 -0.1039
   80SLPC  H15Y 7470   2.863   4.190   8.518 -1.6402 -1.1775 -1.3759
   80SLPC  C316 7471   2.733   4.222   8.681  0.1220  0.4200 -0.9645
   80SLPC  H16X 7472   2.753   4.120   8.721 -0.0736  0.7773  0.0696
   80SLPC  H16Y 7473   2.631   4.237   8.722  0.3593  0.6808 -0.4687
   80SLPC  C317 7474   2.839   4.312   8.765  0.2982  0.2945  0.3767
   80SLPC  H17X 7475   2.806   4.417   8.750  0.2573  0.7408  3.0829
   80SLPC  H17Y 7476   2.942   4.303   8.723  0.6398 -0.5192  1.3562
   80SLPC  C318 7477   2.844   4.271   8.913 -0.1554  0.0975 -0.2426
   80SLPC  H18X 7478   2.741   4.274   8.957  0.5053  2.4040  1.3462
   80SLPC  H18Y 7479   2.912   4.332   8.976  0.9855 -0.8118 -0.5778
   80SLPC  H18Z 7480   2.883   4.168   8.926 -1.7964 -0.5648 -0.2577
   81SAPS     N 7481   2.236   6.435  11.215 -0.0409 -0.2330  0.0815
   81SAPS   HN1 7482   2.291   6.379  11.146  0.1544 -1.1577  0.9556
   81SAPS   HN2 7483   2.173   6.369  11.265 -0.8704  1.2678  1.1025
   81SAPS   HN3 7484   2.185   6.503  11.156  2.0996  1.4668  0.0633
   81SAPS   C12 7485   2.342   6.497  11.303 -0.9157  0.2450  0.3080
   81SAPS  H12A 7486   2.290   6.567  11.367  1.8022  2.1860  0.5702
   81SAPS   C13 7487   2.407   6.390  11.393 -0.4969  0.6388 -0.1012
   81SAPS  O13A 7488   2.375   6.268  11.384 -0.0488  0.2710 -0.5056
   81SAPS  O13B 7489   2.482   6.435  11.489  0.1997  0.2501 -0.1516
   81SAPS   C11 7490   2.452   6.575  11.224  0.4994  0.2070 -0.0950
   81SAPS  H11A 7491   2.507   6.511  11.152  1.4058  1.0070 -0.1349
   81SAPS  H11B 7492   2.532   6.610  11.292 -0.8610  0.2132  1.5737
   81SAPS     P 7493   2.391   6.823  11.183 -0.2985 -0.0259 -0.2634
   81SAPS   O13 7494   2.274   6.837  11.266  0.6021 -0.4174  0.6167
   81SAPS   O14 7495   2.518   6.864  11.240  0.5330 -0.4327 -0.1338
   81SAPS   O12 7496   2.393   6.676  11.142 -0.2451  0.1518  0.2079
   81SAPS   O11 7497   2.366   6.900  11.049 -0.2730  0.5764 -0.0976
   81SAPS    C1 7498   2.245   6.898  10.970 -0.7191 -0.2747  0.1147
   81SAPS    HA 7499   2.164   6.843  11.022 -1.4366  0.5014 -0.1671
   81SAPS    HB 7500   2.202   7.000  10.958  0.4236  0.7826  3.7247
   81SAPS    C2 7501   2.261   6.830  10.830  0.3908  0.2848 -0.5776
   81SAPS    HS 7502   2.301   6.728  10.851  0.7639  0.4595 -0.4405
   81SAPS   O21 7503   2.351   6.906  10.748 -0.0374  0.5165  0.1946
   81SAPS   C21 7504   2.434   6.839  10.676 -0.6436 -0.1471  0.4224
   81SAPS   O22 7505   2.458   6.718  10.684 -0.4748 -0.0831 -0.2223
   81SAPS   C22 7506   2.514   6.941  10.594  0.9742 -0.0333 -0.2828
   81SAPS   H2R 7507   2.442   6.993  10.528  1.8389  1.5266 -0.0399
   81SAPS   H2S 7508   2.560   7.015  10.663 -1.9013  0.0291  1.7290
   81SAPS    C3 7509   2.121   6.820  10.761 -0.2185 -0.0141 -0.5179
   81SAPS    HX 7510   2.098   6.919  10.716  0.8835  0.3580 -0.3004
   81SAPS    HY 7511   2.038   6.820  10.836  0.3044  1.5569  0.1096
   81SAPS   O31 7512   2.101   6.711  10.668  0.2288  0.0599  0.0967
   81SAPS   C31 7513   2.072   6.592  10.713 -0.2668  0.5552 -0.3259
   81SAPS   O32 7514   2.059   6.564  10.831  0.2615 -0.5806  0.1648
   81SAPS   C32 7515   2.093   6.494  10.600  0.6863  0.0365  0.6625
   81SAPS   H2X 7516   1.998   6.490  10.543  1.6136 -0.6344 -0.9119
   81SAPS   H2Y 7517   2.117   6.394  10.643  0.0240 -0.5484 -0.2891
   81SAPS   C23 7518   2.617   6.869  10.506  0.2657 -0.3604 -0.8116
   81SAPS   H3R 7519   2.565   6.795  10.442  0.4882 -1.3134  0.0780
   81SAPS   H3S 7520   2.698   6.825  10.568  0.3103  0.7764 -0.0331
   81SAPS   C24 7521   2.684   6.970  10.402  0.0204 -0.2916 -0.2944
   81SAPS   H4R 7522   2.609   7.010  10.330  0.9346  0.0482 -1.0706
   81SAPS   H4S 7523   2.750   6.905  10.342 -0.3096  0.7526 -1.8578
   81SAPS   C25 7524   2.771   7.076  10.468  1.1722  0.4123 -0.4400
   81SAPS   H5R 7525   2.724   7.139  10.545  0.4772  1.4422 -1.6686
   81SAPS   C26 7526   2.896   7.114  10.442 -0.1500  0.0920 -0.7439
   81SAPS   H6R 7527   2.928   7.205  10.494 -0.8567 -0.0975  0.0419
   81SAPS   C27 7528   2.997   7.061  10.337  0.2239  0.2641  0.1279
   81SAPS   H7R 7529   2.948   6.979  10.279  0.5638  0.5572 -0.5905
   81SAPS   H7S 7530   3.080   7.011  10.389  1.1580 -2.8191 -3.8128
   81SAPS   C28 7531   3.062   7.164  10.248  0.0074 -0.2825  0.2133
   81SAPS   H8R 7532   3.076   7.267  10.286  0.7346 -0.8197  1.4686
   81SAPS   C29 7533   3.089   7.132  10.119  0.0301  0.6636 -0.5473
   81SAPS   H9R 7534   3.146   7.205  10.059  0.0310  0.1266 -1.2149
   81SAPS  C210 7535   3.080   6.998  10.049 -0.1418  0.3344  0.5749
   81SAPS  H10R 7536   3.091   6.915  10.122  3.5199  1.3688  1.4268
   81SAPS  H10S 7537   3.172   6.996   9.986 -0.4242  1.1429  0.1212
   81SAPS  C211 7538   2.956   7.010   9.961  0.1377 -0.1044  0.1252
   81SAPS  H11R 7539   2.861   7.033  10.011  0.0854 -0.1197  0.0329
   81SAPS  C212 7540   2.955   7.012   9.822  0.1280  0.9111 -0.7474
   81SAPS  H12R 7541   2.859   7.037   9.773 -0.0815 -1.7328 -1.8096
   81SAPS  C213 7542   3.076   6.990   9.725  0.1013 -0.0822  0.2343
   81SAPS  H13R 7543   3.175   7.015   9.768  0.8498  0.6030 -1.7519
   81SAPS  H13S 7544   3.058   7.063   9.643 -1.5146 -0.6609  0.0352
   81SAPS  C214 7545   3.073   6.853   9.650 -0.2962 -0.4659 -0.2583
   81SAPS  H14R 7546   3.135   6.777   9.700  0.2459  1.2931  1.8943
   81SAPS  C215 7547   2.985   6.813   9.560  0.7259  0.0727 -0.8169
   81SAPS  H15R 7548   2.987   6.707   9.530  1.3519 -0.5717  1.3089
   81SAPS  C216 7549   2.871   6.892   9.505 -0.1575 -0.5492  0.2626
   81SAPS  H16R 7550   2.866   6.996   9.544 -2.0565 -0.6524  0.3779
   81SAPS  H16S 7551   2.781   6.835   9.535  0.7424 -2.5933 -0.7390
   81SAPS  C217 7552   2.868   6.897   9.353  0.2308 -0.5134  0.0075
   81SAPS  H17R 7553   2.776   6.951   9.322  0.4771  0.5285  1.0218
   81SAPS  H17S 7554   2.870   6.790   9.323  2.7215 -0.2758 -0.9504
   81SAPS  C218 7555   2.991   6.975   9.302  0.5228 -0.3223  0.2048
   81SAPS  H18R 7556   3.082   6.918   9.332  0.9344 -1.4496 -2.8375
   81SAPS  H18S 7557   3.003   7.082   9.330  1.4462 -1.1226  3.2828
   81SAPS  C219 7558   3.010   6.956   9.142  0.2820 -0.2381  0.1192
   81SAPS  H19R 7559   3.050   6.854   9.126 -1.2693 -0.9929  0.8115
   81SAPS  H19S 7560   3.087   7.034   9.123  0.4481 -0.5260 -0.4198
   81SAPS  C220 7561   2.886   6.978   9.065  0.0706  0.1146  0.1470
   81SAPS  H20R 7562   2.807   6.911   9.106  1.4026 -1.2256  0.6274
   81SAPS  H20S 7563   2.888   6.961   8.955 -1.4574  2.6058 -0.3485
   81SAPS  H20T 7564   2.848   7.082   9.078 -1.9449 -0.7055  1.4207
   81SAPS   C33 7565   2.203   6.540  10.501 -0.6367 -0.6137  0.6046
   81SAPS   H3X 7566   2.299   6.502  10.543 -1.5507 -1.5353  1.9128
   81SAPS   H3Y 7567   2.215   6.650  10.488 -0.2671 -0.7849 -0.6950
   81SAPS   C34 7568   2.179   6.486  10.355 -0.0345  0.4734  0.0213
   81SAPS   H4X 7569   2.080   6.523  10.321  0.3736  1.1224 -0.4927
   81SAPS   H4Y 7570   2.174   6.376  10.362 -0.3120  0.5911  2.5399
   81SAPS   C35 7571   2.271   6.531  10.240 -0.3867 -0.3576  0.3311
   81SAPS   H5X 7572   2.345   6.455  10.207 -1.9461 -1.1656 -1.5094
   81SAPS   H5Y 7573   2.313   6.626  10.281  0.2337  0.1376 -1.3568
   81SAPS   C36 7574   2.196   6.562  10.109  0.1400 -0.0721 -0.1902
   81SAPS   H6X 7575   2.118   6.638  10.129  0.0715 -0.3275  0.5461
   81SAPS   H6Y 7576   2.146   6.473  10.067 -1.0637 -0.6481  2.2993
   81SAPS   C37 7577   2.282   6.622   9.996 -0.0354  0.1525  0.6084
   81SAPS   H7X 7578   2.359   6.552   9.959  0.8488  0.9557  0.8807
   81SAPS   H7Y 7579   2.337   6.714  10.027 -0.5743 -0.4163  3.5350
   81SAPS   C38 7580   2.193   6.654   9.868 -0.2308 -0.5455 -0.0841
   81SAPS   H8X 7581   2.119   6.731   9.898 -0.9822 -0.9415 -0.8800
   81SAPS   H8Y 7582   2.152   6.554   9.842 -3.5195  0.7682 -0.4333
   81SAPS   C39 7583   2.273   6.707   9.751  0.0153  0.2285  0.1392
   81SAPS   H9X 7584   2.347   6.632   9.716 -0.0545  1.1233 -2.0517
   81SAPS   H9Y 7585   2.328   6.795   9.791  0.3363 -0.0395  0.2908
   81SAPS  C310 7586   2.181   6.760   9.643  0.2857 -0.7984 -0.3801
   81SAPS  H10X 7587   2.105   6.828   9.686  0.7084 -0.2762 -0.4428
   81SAPS  H10Y 7588   2.122   6.674   9.604 -1.3655 -0.1961  0.6739
   81SAPS  C311 7589   2.256   6.844   9.539 -0.0949 -0.0455  0.2171
   81SAPS  H11X 7590   2.324   6.910   9.597  2.2263 -0.7135 -1.6161
   81SAPS  H11Y 7591   2.185   6.901   9.475 -0.4317 -2.4842 -1.7217
   81SAPS  C312 7592   2.346   6.758   9.451  0.0079  0.8981 -0.4537
   81SAPS  H12X 7593   2.401   6.685   9.513 -1.4903 -0.5934 -0.8169
   81SAPS  H12Y 7594   2.421   6.818   9.396 -0.1443 -0.4508 -2.1839
   81SAPS  C313 7595   2.275   6.688   9.342  0.0991 -0.1935 -0.2882
   81SAPS  H13X 7596   2.221   6.763   9.281  2.3973  1.1509 -0.7837
   81SAPS  H13Y 7597   2.212   6.606   9.383  0.3439  0.0753  0.6308
   81SAPS  C314 7598   2.368   6.620   9.239  0.3344  0.4950  0.3396
   81SAPS  H14X 7599   2.452   6.565   9.287 -0.0545 -0.6733 -0.2671
   81SAPS  H14Y 7600   2.408   6.704   9.178  0.6178  1.5541  1.9304
   81SAPS  C315 7601   2.298   6.531   9.131 -0.5131  0.3885 -0.2841
   81SAPS  H15X 7602   2.370   6.496   9.054  0.1013 -0.9167  0.8559
   81SAPS  H15Y 7603   2.215   6.592   9.088 -2.8866 -0.7631  2.3338
   81SAPS  C316 7604   2.230   6.407   9.198  0.9712 -0.4666 -0.8922
   81SAPS  H16X 7605   2.185   6.433   9.296 -0.4248  0.4675 -1.7470
   81SAPS  H16Y 7606   2.301   6.329   9.232  2.1303  1.3762  1.2450
   81SAPS  C317 7607   2.134   6.322   9.110  0.1084 -0.2523 -0.4173
   81SAPS  H17X 7608   2.044   6.387   9.102  0.5944  0.6024  0.7802
   81SAPS  H17Y 7609   2.106   6.233   9.170 -1.0263 -0.0737 -0.6572
   81SAPS  C318 7610   2.187   6.285   8.974  0.4566 -0.3651 -0.4302
   81SAPS  H18X 7611   2.288   6.238   8.975  0.9236  0.6085 -0.5659
   81SAPS  H18Y 7612   2.200   6.377   8.913 -1.8336  1.0628  1.0874
   81SAPS  H18Z 7613   2.118   6.216   8.922  0.9937 -1.9980  0.9302
   82SAPS     N 7614   1.055   0.043  11.072  0.1478  0.3052 -0.1076
   82SAPS   HN1 7615   0.953   0.060  11.076  0.2304  0.8194  0.0019
   82SAPS   HN2 7616   1.094   0.136  11.045  1.2621 -0.2957 -0.6409
   82SAPS   HN3 7617   1.078  -0.025  10.997  1.5865  1.0521 -0.3882
   82SAPS   C12 7618   1.099  -0.003  11.208  0.3991 -0.5552 -0.3030
   82SAPS  H12A 7619   1.189  -0.061  11.192  1.4184  1.5689 -3.2294
   82SAPS   C13 7620   1.122   0.118  11.302 -0.2565 -0.3192 -0.1096
   82SAPS  O13A 7621   1.108   0.236  11.259 -0.2846 -0.2753 -0.2906
   82SAPS  O13B 7622   1.155   0.087  11.422  0.4637 -0.5382  0.2349
   82SAPS   C11 7623   0.995  -0.103  11.264  0.1656 -0.6689  0.3377
   82SAPS  H11A 7624   0.907  -0.044  11.300  0.0549 -1.2447  1.0492
   82SAPS  H11B 7625   1.035  -0.158  11.352  0.9474 -1.1167 -0.2941
   82SAPS     P 7626   0.917  -0.347  11.177  0.3269  0.3827 -0.1863
   82SAPS   O13 7627   1.025  -0.423  11.127  0.3205 -0.0126  0.3185
   82SAPS   O14 7628   0.862  -0.386  11.312 -0.2770 -0.2807 -0.1133
   82SAPS   O12 7629   0.952  -0.195  11.164  0.1835 -1.0589 -0.1108
   82SAPS   O11 7630   0.792  -0.366  11.086  0.5073 -0.4150  0.1126
   82SAPS    C1 7631   0.697  -0.270  11.040  0.1217 -0.1032 -0.7481
   82SAPS    HA 7632   0.594  -0.309  11.049 -0.6775  1.8648 -0.8043
   82SAPS    HB 7633   0.704  -0.172  11.091 -4.1187  0.2898 -0.5499
   82SAPS    C2 7634   0.712  -0.224  10.891 -1.1273  0.1397  0.4953
   82SAPS    HS 7635   0.667  -0.122  10.893  0.9013  1.0720  1.1673
   82SAPS   O21 7636   0.645  -0.317  10.805  0.0313  0.5110 -0.3012
   82SAPS   C21 7637   0.515  -0.306  10.781 -0.2128  0.3999  0.0870
   82SAPS   O22 7638   0.446  -0.209  10.805 -0.5216 -0.2327  0.2428
   82SAPS   C22 7639   0.469  -0.419  10.690  0.1358  0.6226  0.6320
   82SAPS   H2R 7640   0.537  -0.504  10.713 -0.6247  0.1716  1.3009
   82SAPS   H2S 7641   0.373  -0.463  10.725  0.2984 -0.1711  0.0928
   82SAPS    C3 7642   0.867  -0.223  10.847  0.7365 -0.1179  0.7891
   82SAPS    HX 7643   0.898  -0.329  10.844  0.6736 -0.1017 -1.1843
   82SAPS    HY 7644   0.929  -0.181  10.929  3.0164 -2.7088  0.5179
   82SAPS   O31 7645   0.891  -0.159  10.716  0.1147 -0.3717 -0.0863
   82SAPS   C31 7646   0.948  -0.226  10.627 -0.6168  0.0385  0.0173
   82SAPS   O32 7647   1.002  -0.337  10.642  0.5907  0.2620 -0.3675
   82SAPS   C32 7648   0.954  -0.148  10.492 -0.0325  0.2853 -0.8700
   82SAPS   H2X 7649   1.004  -0.050  10.507  2.5128 -0.9260 -0.8671
   82SAPS   H2Y 7650   0.853  -0.129  10.451  1.9330  3.6182 -4.9375
   82SAPS   C23 7651   0.458  -0.379  10.537 -0.8601 -0.6547 -0.1333
   82SAPS   H3R 7652   0.374  -0.309  10.517 -1.0362 -0.5776  0.8459
   82SAPS   H3S 7653   0.436  -0.481  10.497  0.4614 -1.2413  0.5608
   82SAPS   C24 7654   0.596  -0.336  10.480  0.2836 -0.3586  0.3413
   82SAPS   H4R 7655   0.627  -0.233  10.508  0.7399  0.1431 -1.8514
   82SAPS   H4S 7656   0.592  -0.323  10.370  0.5570  1.7826  0.5356
   82SAPS   C25 7657   0.702  -0.441  10.508 -0.5673 -0.9340  0.0003
   82SAPS   H5R 7658   0.731  -0.458  10.612  1.0241 -0.4965 -0.3517
   82SAPS   C26 7659   0.765  -0.508  10.407  0.5775 -0.0177  0.5009
   82SAPS   H6R 7660   0.846  -0.578  10.432 -1.2852 -2.3421  0.3326
   82SAPS   C27 7661   0.756  -0.484  10.260  0.0452 -0.2069  0.3378
   82SAPS   H7R 7662   0.851  -0.527  10.222  0.7720  1.0838  0.6424
   82SAPS   H7S 7663   0.756  -0.377  10.231  1.3855  0.1685  1.5779
   82SAPS   C28 7664   0.641  -0.574  10.206 -0.3763 -0.7159  0.1818
   82SAPS   H8R 7665   0.555  -0.580  10.275 -0.8583  3.5861  0.1909
   82SAPS   C29 7666   0.622  -0.611  10.078 -0.2686  0.5089  0.3318
   82SAPS   H9R 7667   0.540  -0.682  10.057  0.1507  0.4993 -1.3532
   82SAPS  C210 7668   0.731  -0.597   9.977 -0.1074  0.1142  0.2811
   82SAPS  H10R 7669   0.806  -0.678   9.991  0.9658  1.0907  0.3578
   82SAPS  H10S 7670   0.791  -0.504   9.985  0.9729 -0.3767 -1.6102
   82SAPS  C211 7671   0.678  -0.585   9.838  0.0990  0.1411 -0.2790
   82SAPS  H11R 7672   0.597  -0.512   9.823 -0.2763 -0.1169  0.4882
   82SAPS  C212 7673   0.718  -0.655   9.729  0.1691  0.2853  0.1079
   82SAPS  H12R 7674   0.666  -0.645   9.633  0.3309 -0.7246 -0.0994
   82SAPS  C213 7675   0.829  -0.760   9.723  0.0379  0.4887 -0.1783
   82SAPS  H13R 7676   0.917  -0.731   9.785  0.4438 -2.0502  0.5433
   82SAPS  H13S 7677   0.867  -0.762   9.618  0.6545  0.4278  0.0410
   82SAPS  C214 7678   0.779  -0.896   9.773  0.3206 -0.5915 -0.0557
   82SAPS  H14R 7679   0.712  -0.887   9.860  1.0818  1.0327  0.4042
   82SAPS  C215 7680   0.824  -1.018   9.737 -0.1010 -0.1015  0.2762
   82SAPS  H15R 7681   0.751  -1.091   9.775 -0.1556 -0.4865 -0.5454
   82SAPS  C216 7682   0.923  -1.055   9.633 -0.1071 -0.6769  0.3537
   82SAPS  H16R 7683   0.976  -1.150   9.650  1.5564  0.1198 -0.1697
   82SAPS  H16S 7684   0.994  -0.970   9.623 -0.9813 -0.1191 -1.8063
   82SAPS  C217 7685   0.852  -1.076   9.492  0.0121 -0.0578 -0.1064
   82SAPS  H17R 7686   0.779  -1.160   9.497 -0.3927  0.3088  0.2201
   82SAPS  H17S 7687   0.931  -1.107   9.420  1.4542  0.8548  1.0117
   82SAPS  C218 7688   0.799  -0.940   9.435  0.2189  0.3737 -0.1799
   82SAPS  H18R 7689   0.876  -0.859   9.438  1.9270 -1.1974  1.2292
   82SAPS  H18S 7690   0.713  -0.909   9.499  0.3151  0.2899 -0.0068
   82SAPS  C219 7691   0.755  -0.952   9.285  0.1189 -0.4328 -0.3744
   82SAPS  H19R 7692   0.674  -1.027   9.268 -0.4394 -0.4095  1.9525
   82SAPS  H19S 7693   0.846  -0.975   9.225  0.8243 -2.6459  1.4230
   82SAPS  C220 7694   0.689  -0.824   9.214 -0.0134 -0.2175  0.6539
   82SAPS  H20R 7695   0.682  -0.850   9.107  0.4689  0.5305  0.4322
   82SAPS  H20S 7696   0.759  -0.740   9.234  0.0745 -0.7055  2.5840
   82SAPS  H20T 7697   0.590  -0.803   9.260  0.0293 -2.4830  1.9177
   82SAPS   C33 7698   1.034  -0.208  10.378 -0.0153 -0.4180 -0.2474
   82SAPS   H3X 7699   1.022  -0.319  10.382  1.0898 -0.5063  1.4685
   82SAPS   H3Y 7700   1.142  -0.189  10.393  0.2376 -1.1786 -1.0219
   82SAPS   C34 7701   0.992  -0.156  10.242  0.6038  0.1388  0.3575
   82SAPS   H4X 7702   0.995  -0.046  10.227  0.3320  0.0852 -0.0928
   82SAPS   H4Y 7703   0.890  -0.192  10.218  1.2838 -1.8782  0.2781
   82SAPS   C35 7704   1.084  -0.209  10.125 -0.0313  0.4293 -1.2753
   82SAPS   H5X 7705   1.098  -0.319  10.134 -0.7747  0.5170  3.0806
   82SAPS   H5Y 7706   1.183  -0.161  10.142 -1.4179  2.4930  1.8697
   82SAPS   C36 7707   1.031  -0.182   9.988 -0.0298  0.3148  0.2213
   82SAPS   H6X 7708   1.005  -0.076   9.971  1.5474  0.6744 -0.0763
   82SAPS   H6Y 7709   0.935  -0.236   9.977 -0.5638  1.3954 -0.6288
   82SAPS   C37 7710   1.135  -0.224   9.876 -0.5741 -0.3279 -0.1147
   82SAPS   H7X 7711   1.167  -0.331   9.876  0.7132  0.0424 -0.3005
   82SAPS   H7Y 7712   1.225  -0.161   9.884 -1.1438  0.4430  0.2892
   82SAPS   C38 7713   1.094  -0.206   9.729  0.6417  1.0992 -0.0751
   82SAPS   H8X 7714   1.184  -0.171   9.674  1.9801 -1.4618  0.3273
   82SAPS   H8Y 7715   1.019  -0.124   9.735 -0.7693 -0.2739  2.1822
   82SAPS   C39 7716   1.019  -0.326   9.658  0.0692 -0.4092 -0.3122
   82SAPS   H9X 7717   0.916  -0.328   9.700  0.6194  1.5532  1.3046
   82SAPS   H9Y 7718   1.073  -0.421   9.678  1.6423  0.0994 -1.8912
   82SAPS  C310 7719   1.028  -0.326   9.505 -0.1853 -0.4234  0.5144
   82SAPS  H10X 7720   1.132  -0.315   9.467 -0.2275  1.7184  0.8584
   82SAPS  H10Y 7721   0.978  -0.230   9.480  2.4477  0.8441 -0.3545
   82SAPS  C311 7722   0.957  -0.439   9.431  0.1816  0.4967  0.1998
   82SAPS  H11X 7723   0.851  -0.438   9.466  0.6685  1.2659  1.7513
   82SAPS  H11Y 7724   0.998  -0.538   9.458 -1.6605 -0.9940 -2.1227
   82SAPS  C312 7725   0.965  -0.410   9.279  0.2302  0.1431 -0.2699
   82SAPS  H12X 7726   1.072  -0.399   9.250 -0.0482  1.5511 -0.8531
   82SAPS  H12Y 7727   0.917  -0.311   9.265 -0.9613 -0.2599  0.8098
   82SAPS  C313 7728   0.902  -0.513   9.184 -0.4335  0.0913 -0.3638
   82SAPS  H13X 7729   0.793  -0.513   9.202 -0.1522  0.3854  1.5178
   82SAPS  H13Y 7730   0.943  -0.615   9.199  1.9500  0.6061 -2.5596
   82SAPS  C314 7731   0.926  -0.469   9.040  0.9553 -0.1350  0.2088
   82SAPS  H14X 7732   1.036  -0.453   9.040  0.9840 -0.0810  2.1423
   82SAPS  H14Y 7733   0.872  -0.374   9.020 -2.0968 -2.0021 -1.1030
   82SAPS  C315 7734   0.884  -0.577   8.941 -0.1297 -0.5624  0.4954
   82SAPS  H15X 7735   0.778  -0.603   8.961 -0.4228  0.3759  0.2054
   82SAPS  H15Y 7736   0.939  -0.669   8.972  1.1409  0.1321  0.3540
   82SAPS  C316 7737   0.921  -0.544   8.794 -0.2720  0.1476  0.4359
   82SAPS  H16X 7738   0.895  -0.636   8.738 -1.6837 -1.0330  2.8916
   82SAPS  H16Y 7739   1.029  -0.524   8.776  0.5094 -0.9406  3.3926
   82SAPS  C317 7740   0.835  -0.422   8.743  0.7559  0.3636 -0.4614
   82SAPS  H17X 7741   0.866  -0.325   8.789 -0.6223  0.8951 -0.6229
   82SAPS  H17Y 7742   0.734  -0.450   8.779 -0.4779  1.5037 -2.8187
   82SAPS  C318 7743   0.817  -0.401   8.591 -0.3311 -0.0817  0.1844
   82SAPS  H18X 7744   0.900  -0.345   8.543 -0.0126  0.0730  0.9066
   82SAPS  H18Y 7745   0.723  -0.352   8.559 -0.6670 -1.7718 -1.6111
   82SAPS  H18Z 7746   0.817  -0.497   8.534  1.0152  0.2832 -0.4530
   83SAPS     N 7747   2.898   1.493  11.450 -0.0245  0.8421  0.5073
   83SAPS   HN1 7748   2.814   1.533  11.497 -1.4194  0.3980 -1.4667
   83SAPS   HN2 7749   2.977   1.535  11.502 -1.5788  3.6898  0.7664
   83SAPS   HN3 7750   2.891   1.527  11.352 -1.7467  1.2515  0.7295
   83SAPS   C12 7751   2.910   1.346  11.450 -0.0659  0.3449 -0.3673
   83SAPS  H12A 7752   3.016   1.332  11.437  0.1677 -0.2824  1.8547
   83SAPS   C13 7753   2.881   1.287  11.590 -0.2794 -0.3703 -0.6224
   83SAPS  O13A 7754   2.871   1.366  11.691 -0.1748 -0.2975 -0.6392
   83SAPS  O13B 7755   2.883   1.167  11.606 -0.6947 -0.5151  0.0235
   83SAPS   C11 7756   2.813   1.291  11.341 -0.5332  0.0383  0.4453
   83SAPS  H11A 7757   2.704   1.311  11.349 -0.0884  1.9472  3.6215
   83SAPS  H11B 7758   2.819   1.181  11.357  0.2357 -0.3340 -2.0302
   83SAPS     P 7759   2.872   1.231  11.090  0.0589  0.0062 -0.5775
   83SAPS   O13 7760   2.968   1.121  11.125  0.0836  0.1218  0.0460
   83SAPS   O14 7761   2.742   1.184  11.054  0.1566 -0.0749  0.4165
   83SAPS   O12 7762   2.859   1.335  11.212 -0.0506 -0.6083  0.5084
   83SAPS   O11 7763   2.925   1.327  10.975  0.1606  0.1053 -0.6922
   83SAPS    C1 7764   2.901   1.464  10.976 -0.2421  1.3440 -0.0981
   83SAPS    HA 7765   2.802   1.486  11.021 -0.0559 -0.5208  1.3414
   83SAPS    HB 7766   2.988   1.503  11.033  0.7242 -0.4085 -0.2944
   83SAPS    C2 7767   2.891   1.520  10.831  0.6721 -0.4510 -0.2667
   83SAPS    HS 7768   2.786   1.551  10.812  0.6097  0.4705  1.4481
   83SAPS   O21 7769   2.931   1.423  10.733 -0.1008 -0.2687 -0.2279
   83SAPS   C21 7770   2.875   1.435  10.616 -1.3612  0.5098 -0.3042
   83SAPS   O22 7771   2.801   1.521  10.576  0.1790  0.4024  0.1210
   83SAPS   C22 7772   2.948   1.325  10.534  0.5446  0.1927  0.8987
   83SAPS   H2R 7773   3.058   1.337  10.545  0.4668  0.8099  1.0318
   83SAPS   H2S 7774   2.920   1.229  10.582  3.7638 -1.1664  0.3023
   83SAPS    C3 7775   2.977   1.655  10.820 -0.4987  1.1332  0.0692
   83SAPS    HX 7776   3.084   1.627  10.836 -1.0172 -1.5633 -0.6438
   83SAPS    HY 7777   2.947   1.714  10.909  1.5325 -2.4406  3.4284
   83SAPS   O31 7778   2.960   1.722  10.698  0.3058 -0.0573 -0.3929
   83SAPS   C31 7779   3.064   1.800  10.655  0.6827  0.3019  0.0273
   83SAPS   O32 7780   3.168   1.821  10.716  0.0928 -0.1173  0.7514
   83SAPS   C32 7781   3.035   1.841  10.504  0.1176  0.3668 -0.6230
   83SAPS   H2X 7782   3.006   1.948  10.512  2.0663  1.0893 -2.3158
   83SAPS   H2Y 7783   2.949   1.779  10.471  0.2128 -0.0337 -0.1313
   83SAPS   C23 7784   2.900   1.319  10.386  0.8968  0.2067  0.3535
   83SAPS   H3R 7785   2.790   1.307  10.390  0.6080  2.4995  0.4683
   83SAPS   H3S 7786   2.941   1.224  10.345 -0.5437 -0.9478  1.4887
   83SAPS   C24 7787   2.933   1.437  10.290 -0.0934  0.3058  0.2907
   83SAPS   H4R 7788   3.036   1.471  10.314  0.6152 -0.9726 -0.7921
   83SAPS   H4S 7789   2.869   1.522  10.323  1.5505  2.0485 -0.7866
   83SAPS   C25 7790   2.911   1.398  10.147 -0.2476 -0.3304  1.2032
   83SAPS   H5R 7791   2.807   1.399  10.112  0.4441 -0.0399 -1.0411
   83SAPS   C26 7792   2.998   1.381  10.044  0.3090 -0.6140 -0.0700
   83SAPS   H6R 7793   2.965   1.351   9.944  0.6974  0.4089 -0.5192
   83SAPS   C27 7794   3.146   1.395  10.065  0.3709  0.1534 -0.1099
   83SAPS   H7R 7795   3.175   1.351  10.163 -0.3226 -0.9035 -0.3662
   83SAPS   H7S 7796   3.176   1.500  10.082  1.5586 -0.1969  0.0688
   83SAPS   C28 7797   3.228   1.331   9.947 -0.0929  0.0683  0.6591
   83SAPS   H8R 7798   3.290   1.242   9.965  0.4399  0.9732  3.8396
   83SAPS   C29 7799   3.238   1.383   9.826  0.8154  0.0037 -0.1981
   83SAPS   H9R 7800   3.319   1.343   9.763  0.6948 -0.0125 -0.3424
   83SAPS  C210 7801   3.170   1.506   9.777  0.5352 -0.0109  0.3506
   83SAPS  H10R 7802   3.114   1.559   9.857 -1.1742 -0.0473 -0.7553
   83SAPS  H10S 7803   3.092   1.476   9.703  1.1402  0.9548 -0.7079
   83SAPS  C211 7804   3.235   1.620   9.712 -0.2360 -0.2849  0.4732
   83SAPS  H11R 7805   3.256   1.711   9.770  0.8218 -0.7658  0.8779
   83SAPS  C212 7806   3.263   1.622   9.577  0.3499  0.0124 -0.1154
   83SAPS  H12R 7807   3.295   1.720   9.538 -1.4531  0.4057 -0.6850
   83SAPS  C213 7808   3.242   1.507   9.485 -0.8869 -0.7893 -0.0132
   83SAPS  H13R 7809   3.149   1.535   9.433 -2.0245 -2.0095  1.2598
   83SAPS  H13S 7810   3.223   1.413   9.542  1.1785 -1.2055  0.0893
   83SAPS  C214 7811   3.368   1.477   9.400  0.0522  0.2882  0.1036
   83SAPS  H14R 7812   3.439   1.403   9.440 -0.2658 -0.3620 -0.4973
   83SAPS  C215 7813   3.402   1.544   9.289  0.5561 -0.3073  0.5483
   83SAPS  H15R 7814   3.493   1.516   9.233 -0.5069 -0.0961 -1.3699
   83SAPS  C216 7815   3.321   1.659   9.229  0.2403  0.2142 -1.0275
   83SAPS  H16R 7816   3.387   1.748   9.220  0.7699 -0.2770 -2.2917
   83SAPS  H16S 7817   3.250   1.686   9.310  0.6974 -4.5703  1.3015
   83SAPS  C217 7818   3.248   1.622   9.100 -0.0188  0.4802  0.4866
   83SAPS  H17R 7819   3.200   1.709   9.052 -0.0485  0.2196  0.0357
   83SAPS  H17S 7820   3.177   1.539   9.123  2.2920 -2.1907 -1.3588
   83SAPS  C218 7821   3.352   1.577   8.986  0.1272  0.1690 -0.2366
   83SAPS  H18R 7822   3.411   1.490   9.023 -1.1940 -0.5110  0.3502
   83SAPS  H18S 7823   3.411   1.669   8.967 -1.5530  1.3403 -0.0030
   83SAPS  C219 7824   3.274   1.518   8.865 -0.3435 -0.6240 -0.1534
   83SAPS  H19R 7825   3.335   1.516   8.771 -2.8789  0.5212 -1.9349
   83SAPS  H19S 7826   3.183   1.576   8.841 -0.0381 -1.0705 -2.7082
   83SAPS  C220 7827   3.221   1.375   8.902 -0.1569  0.5155  0.3113
   83SAPS  H20R 7828   3.298   1.295   8.907 -0.4044  0.1458 -1.4343
   83SAPS  H20S 7829   3.153   1.339   8.822  1.3786  3.6428 -2.6380
   83SAPS  H20T 7830   3.160   1.380   8.995  1.3336  2.7791  1.2468
   83SAPS   C33 7831   3.143   1.816  10.391  1.2415 -0.6147 -0.4069
   83SAPS   H3X 7832   3.143   1.707  10.371 -0.4233 -0.7544  0.1890
   83SAPS   H3Y 7833   3.240   1.849  10.435  1.8014 -1.8911 -0.6430
   83SAPS   C34 7834   3.115   1.903  10.261 -0.1109 -0.2490  0.3035
   83SAPS   H4X 7835   3.193   1.895  10.182 -1.1208  0.4577 -0.7968
   83SAPS   H4Y 7836   3.098   2.010  10.285 -0.3494 -0.2498  0.1376
   83SAPS   C35 7837   2.990   1.850  10.191 -0.0589 -0.5208 -0.5489
   83SAPS   H5X 7838   2.898   1.856  10.253  0.8704 -0.6632  0.8690
   83SAPS   H5Y 7839   3.015   1.744  10.172  3.3229  0.1861 -0.7377
   83SAPS   C36 7840   2.951   1.902  10.051 -0.4659  0.3287  0.1881
   83SAPS   H6X 7841   3.021   1.983  10.021  0.7598 -0.4086  0.9396
   83SAPS   H6Y 7842   2.852   1.950  10.062 -1.1921 -0.5076 -2.1337
   83SAPS   C37 7843   2.937   1.795   9.945  0.1744 -0.2485  0.2152
   83SAPS   H7X 7844   2.869   1.715   9.982  1.1202 -0.5413  1.4144
   83SAPS   H7Y 7845   3.033   1.741   9.928  0.5623  0.3528  0.4403
   83SAPS   C38 7846   2.878   1.860   9.813  0.1834 -0.7961 -0.6165
   83SAPS   H8X 7847   2.937   1.944   9.773 -1.1982  0.3948 -0.2268
   83SAPS   H8Y 7848   2.789   1.914   9.850 -0.1703 -1.3163 -0.6873
   83SAPS   C39 7849   2.824   1.754   9.714 -1.0940  0.2405  0.0885
   83SAPS   H9X 7850   2.741   1.695   9.758 -0.4534 -0.6640  0.1281
   83SAPS   H9Y 7851   2.904   1.677   9.700 -2.3278 -1.0834  0.0851
   83SAPS  C310 7852   2.779   1.817   9.580  0.5669  0.3667 -1.1069
   83SAPS  H10X 7853   2.725   1.910   9.610  1.2914  1.6992 -3.6521
   83SAPS  H10Y 7854   2.705   1.744   9.539 -1.1840  1.0865  0.5990
   83SAPS  C311 7855   2.895   1.849   9.477 -0.8517 -0.7406  0.4952
   83SAPS  H11X 7856   2.963   1.761   9.473  1.7790  1.1911 -0.4354
   83SAPS  H11Y 7857   2.959   1.935   9.504 -1.6031 -0.4121  1.2877
   83SAPS  C312 7858   2.835   1.887   9.339 -0.4113  0.5086  0.4153
   83SAPS  H12X 7859   2.910   1.931   9.268 -0.6672  0.9774  0.4298
   83SAPS  H12Y 7860   2.781   1.982   9.362 -0.9692  0.2880  0.0334
   83SAPS  C313 7861   2.749   1.786   9.261  0.1287  0.2435  0.1792
   83SAPS  H13X 7862   2.651   1.781   9.314 -0.3692 -0.9020 -0.8037
   83SAPS  H13Y 7863   2.795   1.685   9.269 -1.1565 -0.3822 -0.1266
   83SAPS  C314 7864   2.715   1.818   9.108  0.5684 -0.4815 -0.2660
   83SAPS  H14X 7865   2.803   1.793   9.044  0.6732  0.8569 -0.6581
   83SAPS  H14Y 7866   2.703   1.928   9.106  0.1096 -0.4852  1.0999
   83SAPS  C315 7867   2.595   1.739   9.057 -1.0627 -0.7343 -0.1694
   83SAPS  H15X 7868   2.513   1.768   9.126  0.3620  1.6908  0.6597
   83SAPS  H15Y 7869   2.619   1.632   9.074 -0.7411 -0.8087 -1.0336
   83SAPS  C316 7870   2.577   1.750   8.901  0.1312  0.2424 -0.0981
   83SAPS  H16X 7871   2.673   1.730   8.848 -0.1780  0.7110 -0.8635
   83SAPS  H16Y 7872   2.541   1.850   8.868 -1.9426  0.3046  2.1779
   83SAPS  C317 7873   2.501   1.623   8.848 -0.4285  0.6105 -0.7093
   83SAPS  H17X 7874   2.405   1.612   8.903  0.9419  1.1612  2.0235
   83SAPS  H17Y 7875   2.573   1.543   8.876 -0.2093  1.2387  0.6536
   83SAPS  C318 7876   2.489   1.619   8.697 -0.2379 -0.6261  0.2164
   83SAPS  H18X 7877   2.582   1.665   8.657 -0.2656 -1.0288 -0.3226
   83SAPS  H18Y 7878   2.404   1.678   8.659  0.4168 -0.3742 -0.9083
   83SAPS  H18Z 7879   2.497   1.513   8.663  2.8159 -0.3394 -0.2319
   84SAPS     N 7880   3.988   1.586  11.372  0.1288 -0.1694  0.0090
   84SAPS   HN1 7881   3.940   1.642  11.299 -1.2835 -1.0692  0.2090
   84SAPS   HN2 7882   3.963   1.485  11.367  0.7070 -0.4525  1.9502
   84SAPS   HN3 7883   3.980   1.622  11.469 -1.5056 -3.5464  1.3020
   84SAPS   C12 7884   4.140   1.586  11.349  0.4868  0.3338  0.3475
   84SAPS  H12A 7885   4.166   1.681  11.305 -1.2079 -0.5144 -2.8108
   84SAPS   C13 7886   4.218   1.550  11.475 -0.0358 -0.2961  0.7278
   84SAPS  O13A 7887   4.155   1.535  11.582  0.6051  0.5041 -0.8340
   84SAPS  O13B 7888   4.344   1.545  11.480  0.5419  0.3883  0.9291
   84SAPS   C11 7889   4.162   1.475  11.240 -0.5635  0.2861  0.6006
   84SAPS  H11A 7890   4.269   1.490  11.214 -1.4189  3.1470 -1.7811
   84SAPS  H11B 7891   4.101   1.509  11.154  1.8224  0.2402 -1.2311
   84SAPS     P 7892   4.024   1.257  11.233  0.1651  0.5745  0.1632
   84SAPS   O13 7893   4.052   1.115  11.269 -0.3381  0.5651 -0.3621
   84SAPS   O14 7894   3.906   1.327  11.286 -0.4135  0.0194 -0.4028
   84SAPS   O12 7895   4.135   1.343  11.286 -0.5871  0.0447 -0.5224
   84SAPS   O11 7896   4.039   1.271  11.079  0.2317  0.2172  0.0344
   84SAPS    C1 7897   4.115   1.180  11.001  0.4252 -0.4637 -0.6893
   84SAPS    HA 7898   4.208   1.157  11.058 -0.2502 -0.4433  0.4471
   84SAPS    HB 7899   4.051   1.091  10.985 -1.2619  0.3239  1.2993
   84SAPS    C2 7900   4.162   1.231  10.864 -0.5921 -0.3869  0.2066
   84SAPS    HS 7901   4.073   1.277  10.816 -1.1142 -0.1350  1.3653
   84SAPS   O21 7902   4.227   1.126  10.786 -0.5132 -0.4113 -0.3142
   84SAPS   C21 7903   4.137   1.061  10.716 -0.4974 -0.2555 -0.0187
   84SAPS   O22 7904   4.016   1.092  10.714  0.3570  0.5700 -0.4925
   84SAPS   C22 7905   4.212   0.955  10.631  0.0377 -0.3136 -0.0597
   84SAPS   H2R 7906   4.316   0.944  10.667  0.5695  0.1317 -1.3772
   84SAPS   H2S 7907   4.160   0.858  10.651  0.0505 -0.6675 -1.5639
   84SAPS    C3 7908   4.264   1.347  10.884 -0.4350  0.0074 -0.0989
   84SAPS    HX 7909   4.361   1.325  10.933 -1.1508 -0.0476  1.3218
   84SAPS    HY 7910   4.220   1.421  10.955 -0.9241  0.4793 -0.8754
   84SAPS   O31 7911   4.287   1.419  10.761 -0.5128  0.0803 -0.4262
   84SAPS   C31 7912   4.370   1.523  10.775  0.1762 -0.9063 -0.0096
   84SAPS   O32 7913   4.420   1.557  10.881  0.3423  0.1437  0.2129
   84SAPS   C32 7914   4.400   1.590  10.641 -0.4689  0.2176 -0.2708
   84SAPS   H2X 7915   4.342   1.540  10.561  1.5567 -1.5101 -0.7180
   84SAPS   H2Y 7916   4.507   1.565  10.629 -1.1388 -2.4297 -1.4309
   84SAPS   C23 7917   4.205   0.997  10.480 -0.6989  0.7024 -0.0352
   84SAPS   H3R 7918   4.107   1.036  10.446 -0.6971  1.5196  0.8749
   84SAPS   H3S 7919   4.230   0.903  10.426 -1.5339  0.2769  0.3013
   84SAPS   C24 7920   4.311   1.100  10.453 -0.1324  0.3382 -0.8396
   84SAPS   H4R 7921   4.327   1.104  10.343  2.5900  1.6293 -0.4865
   84SAPS   H4S 7922   4.414   1.074  10.487 -1.0711 -1.6116  0.7501
   84SAPS   C25 7923   4.263   1.233  10.493 -0.1927 -0.8540 -0.2742
   84SAPS   H5R 7924   4.292   1.270  10.592 -2.7180  0.7690 -0.0394
   84SAPS   C26 7925   4.179   1.318  10.424  0.3620  0.6317 -0.0788
   84SAPS   H6R 7926   4.169   1.422  10.459 -1.9010  0.1446  0.9059
   84SAPS   C27 7927   4.125   1.296  10.285  0.0644  0.5888 -0.0894
   84SAPS   H7R 7928   4.015   1.302  10.275 -0.0274 -1.3052 -0.5478
   84SAPS   H7S 7929   4.147   1.191  10.254  0.8274  0.6637  0.1650
   84SAPS   C28 7930   4.175   1.384  10.182  0.7358 -0.6814 -0.1429
   84SAPS   H8R 7931   4.197   1.487  10.216  1.0398 -0.5967 -0.5947
   84SAPS   C29 7932   4.182   1.355  10.044  0.0476 -0.8560 -1.1052
   84SAPS   H9R 7933   4.230   1.427   9.977  0.6015  0.9389  1.1013
   84SAPS  C210 7934   4.145   1.223   9.987  0.4326  0.4530  0.2382
   84SAPS  H10R 7935   4.068   1.239   9.909  1.3275  0.6074 -0.6333
   84SAPS  H10S 7936   4.089   1.170  10.067  0.1695 -0.4209 -0.5154
   84SAPS  C211 7937   4.255   1.127   9.931 -0.5930 -0.8309  0.4751
   84SAPS  H11R 7938   4.322   1.093  10.011  1.0457  1.4522  0.1933
   84SAPS  C212 7939   4.282   1.089   9.804 -0.4317 -0.5627  0.3577
   84SAPS  H12R 7940   4.351   1.004   9.795 -1.2423 -1.1293 -0.8645
   84SAPS  C213 7941   4.207   1.130   9.676 -0.0488  0.8799 -0.3710
   84SAPS  H13R 7942   4.149   1.223   9.695 -2.7630 -0.5671 -1.1143
   84SAPS  H13S 7943   4.141   1.042   9.662  1.0435  0.1651 -1.1938
   84SAPS  C214 7944   4.288   1.154   9.548  0.7477  0.2905 -0.7030
   84SAPS  H14R 7945   4.331   1.255   9.547  0.6576  0.5088  3.1675
   84SAPS  C215 7946   4.292   1.084   9.434  0.1458 -0.0418 -0.2364
   84SAPS  H15R 7947   4.361   1.116   9.355 -1.2212  1.6848 -0.7858
   84SAPS  C216 7948   4.223   0.953   9.416  0.2038  0.7759 -0.5139
   84SAPS  H16R 7949   4.157   0.932   9.503  0.4469  0.4352 -0.4100
   84SAPS  H16S 7950   4.303   0.877   9.416 -0.3557  0.1583 -1.7037
   84SAPS  C217 7951   4.127   0.934   9.290 -0.0172  0.5188  0.1479
   84SAPS  H17R 7952   4.048   1.011   9.283  1.4947  2.0154 -1.3587
   84SAPS  H17S 7953   4.073   0.838   9.302 -0.0089  0.7699  2.6625
   84SAPS  C218 7954   4.200   0.909   9.155 -0.1911 -0.4357  0.6822
   84SAPS  H18R 7955   4.297   0.855   9.155  0.5733  0.8914  1.1979
   84SAPS  H18S 7956   4.221   1.016   9.132 -1.7524  0.3824  2.7889
   84SAPS  C219 7957   4.112   0.840   9.052  0.4060 -0.2483 -0.1042
   84SAPS  H19R 7958   4.118   0.735   9.087  2.9350  0.1436  0.7931
   84SAPS  H19S 7959   4.162   0.850   8.953  0.0874 -0.0865 -0.2535
   84SAPS  C220 7960   3.965   0.882   9.054 -0.0827  0.0299 -0.1779
   84SAPS  H20R 7961   3.912   0.863   9.150 -1.5548 -0.7880 -1.1126
   84SAPS  H20S 7962   3.914   0.826   8.972  1.8554 -1.6589 -0.3037
   84SAPS  H20T 7963   3.956   0.989   9.027 -1.4088  0.3195  1.3170
   84SAPS   C33 7964   4.377   1.744  10.639  0.1741  0.0426 -0.2293
   84SAPS   H3X 7965   4.434   1.800  10.716 -0.0424  2.0865 -1.4865
   84SAPS   H3Y 7966   4.269   1.765  10.657  0.2885  0.4758 -0.0224
   84SAPS   C34 7967   4.410   1.810  10.505  0.4664  0.4303  0.3539
   84SAPS   H4X 7968   4.520   1.810  10.488  0.7163  0.7811  1.8002
   84SAPS   H4Y 7969   4.377   1.915  10.513  0.6089  0.8933 -3.2719
   84SAPS   C35 7970   4.341   1.757  10.372 -0.0382 -0.4618 -0.3351
   84SAPS   H5X 7971   4.231   1.778  10.369 -0.1361 -0.8026  0.5774
   84SAPS   H5Y 7972   4.362   1.650  10.351  2.2914 -0.0369 -0.4120
   84SAPS   C36 7973   4.400   1.838  10.251 -0.5415 -0.3822  0.3521
   84SAPS   H6X 7974   4.506   1.816  10.228  1.0796  4.4525  2.0184
   84SAPS   H6Y 7975   4.393   1.948  10.263  1.6060 -0.1426 -0.0991
   84SAPS   C37 7976   4.315   1.813  10.125  0.3501  0.4156  0.0935
   84SAPS   H7X 7977   4.214   1.857  10.134 -0.0642 -0.5820  0.4499
   84SAPS   H7Y 7978   4.298   1.703  10.126 -0.9903  0.6078  0.1237
   84SAPS   C38 7979   4.365   1.862   9.990  0.1764 -0.4767 -0.4845
   84SAPS   H8X 7980   4.462   1.825   9.953 -0.8082  0.4919 -4.5520
   84SAPS   H8Y 7981   4.382   1.971  10.001  1.1396 -0.6300 -0.3793
   84SAPS   C39 7982   4.259   1.840   9.876  0.1301  0.0480 -0.2985
   84SAPS   H9X 7983   4.155   1.864   9.909  0.2271  1.9112 -1.2174
   84SAPS   H9Y 7984   4.263   1.732   9.850  3.9814 -0.0335  0.0967
   84SAPS  C310 7985   4.274   1.921   9.743 -0.5035 -0.1945 -0.1174
   84SAPS  H10X 7986   4.298   2.029   9.756  2.8977 -0.8913  0.2309
   84SAPS  H10Y 7987   4.182   1.916   9.680  0.6069 -0.1410 -1.8084
   84SAPS  C311 7988   4.386   1.865   9.656 -0.2484  0.0630 -0.1521
   84SAPS  H11X 7989   4.367   1.759   9.628 -1.2144  0.1827  0.0088
   84SAPS  H11Y 7990   4.480   1.875   9.714  0.8796  0.7972 -2.0241
   84SAPS  C312 7991   4.396   1.942   9.525  0.3783  0.4537  0.4755
   84SAPS  H12X 7992   4.490   1.921   9.470 -0.1422 -1.2413  0.1745
   84SAPS  H12Y 7993   4.403   2.052   9.538 -1.5648  0.6478  0.1602
   84SAPS  C313 7994   4.283   1.901   9.428  0.6387  0.1660 -0.0955
   84SAPS  H13X 7995   4.187   1.950   9.457  1.0965  0.0705  1.7198
   84SAPS  H13Y 7996   4.267   1.791   9.437 -2.2001  0.5281  0.3015
   84SAPS  C314 7997   4.315   1.934   9.285 -0.0310  0.3311  0.0693
   84SAPS  H14X 7998   4.416   1.890   9.272  0.3928  1.0083  0.9448
   84SAPS  H14Y 7999   4.324   2.043   9.269 -0.5130  0.3032 -0.4071
   84SAPS  C315 8000   4.223   1.860   9.182  0.1749 -0.4229 -0.5127
   84SAPS  H15X 8001   4.120   1.900   9.192 -0.0445 -1.0114 -0.3483
   84SAPS  H15Y 8002   4.223   1.751   9.204  1.5570 -0.8654 -2.4202
   84SAPS  C316 8003   4.257   1.883   9.035  0.2587  0.0489 -0.3207
   84SAPS  H16X 8004   4.363   1.862   9.010  0.4411 -3.1679  2.4244
   84SAPS  H16Y 8005   4.230   1.990   9.025 -0.5940 -0.2124 -1.0038
   84SAPS  C317 8006   4.163   1.810   8.938  0.3389  0.0113 -0.0896
   84SAPS  H17X 8007   4.061   1.844   8.967  0.0325 -1.0000  0.0593
   84SAPS  H17Y 8008   4.163   1.702   8.964 -0.7810 -0.1664 -0.7655
   84SAPS  C318 8009   4.194   1.806   8.786 -0.1338  0.3083  0.1336
   84SAPS  H18X 8010   4.249   1.719   8.746  0.0618  0.6856 -0.4421
   84SAPS  H18Y 8011   4.252   1.897   8.757  1.7568 -1.1825 -0.9450
   84SAPS  H18Z 8012   4.097   1.808   8.733 -1.5617  1.6636  2.6258
   85SAPS     N 8013   2.136   2.709  11.291 -0.6086 -0.0126 -0.6181
   85SAPS   HN1 8014   2.063   2.707  11.366  0.1013 -3.1530  0.1293
   85SAPS   HN2 8015   2.130   2.621  11.236 -2.0703  0.0427 -0.5741
   85SAPS   HN3 8016   2.230   2.703  11.336 -1.3860  1.2631  1.3273
   85SAPS   C12 8017   2.134   2.822  11.203  0.2920 -0.6307 -0.3755
   85SAPS  H12A 8018   2.041   2.823  11.149  0.8718 -0.8294 -1.3913
   85SAPS   C13 8019   2.138   2.963  11.265  0.0775 -0.3088  0.0260
   85SAPS  O13A 8020   2.179   2.984  11.386 -0.0235  0.1884 -0.0444
   85SAPS  O13B 8021   2.117   3.063  11.193 -0.7456  0.2409  0.1794
   85SAPS   C11 8022   2.257   2.810  11.114 -0.6791 -0.1434 -0.1790
   85SAPS  H11A 8023   2.246   2.889  11.037  0.3316 -0.3771 -0.5695
   85SAPS  H11B 8024   2.242   2.717  11.055  0.2981 -1.5688  1.7052
   85SAPS     P 8025   2.507   2.895  11.099  0.2176  0.3083  0.2324
   85SAPS   O13 8026   2.462   3.027  11.060  0.3189  0.5598  0.2065
   85SAPS   O14 8027   2.618   2.894  11.194 -0.1675 -0.6916  0.1808
   85SAPS   O12 8028   2.390   2.807  11.171  0.0169 -0.7544 -0.0555
   85SAPS   O11 8029   2.542   2.817  10.969 -0.0070  0.2368  0.8098
   85SAPS    C1 8030   2.476   2.858  10.848  0.9648 -0.0229 -0.3431
   85SAPS    HA 8031   2.368   2.878  10.863  0.5439 -2.8888  1.2837
   85SAPS    HB 8032   2.525   2.949  10.807  1.8906 -0.4395 -0.1822
   85SAPS    C2 8033   2.483   2.763  10.726 -0.4812  0.0251 -0.5629
   85SAPS    HS 8034   2.451   2.662  10.761 -0.4701  0.0846 -0.3786
   85SAPS   O21 8035   2.615   2.776  10.673  0.5185  0.0653 -0.1869
   85SAPS   C21 8036   2.668   2.662  10.648 -0.1701  0.2252 -0.7161
   85SAPS   O22 8037   2.611   2.552  10.666  0.0902  0.2449  0.6019
   85SAPS   C22 8038   2.807   2.677  10.587 -0.1629 -0.1734 -0.0688
   85SAPS   H2R 8039   2.824   2.595  10.513  0.5927 -2.3934  2.4132
   85SAPS   H2S 8040   2.798   2.768  10.524 -2.8242 -0.2914  0.0138
   85SAPS    C3 8041   2.382   2.807  10.618  0.0423 -0.2176  0.1133
   85SAPS    HX 8042   2.409   2.913  10.597 -0.0976  0.0772  1.3304
   85SAPS    HY 8043   2.281   2.806  10.665 -0.1827  0.4716 -0.3341
   85SAPS   O31 8044   2.394   2.727  10.496  0.5441  0.7048  0.3331
   85SAPS   C31 8045   2.310   2.619  10.488 -0.4138 -0.1302 -0.2896
   85SAPS   O32 8046   2.246   2.571  10.580  0.1038 -0.2434  0.2058
   85SAPS   C32 8047   2.314   2.571  10.343 -0.5770  0.5651  0.3477
   85SAPS   H2X 8048   2.420   2.545  10.322 -0.8598 -1.3390  1.1115
   85SAPS   H2Y 8049   2.287   2.653  10.273 -0.4736  0.3003 -0.0042
   85SAPS   C23 8050   2.931   2.677  10.686 -0.1598 -0.6531 -0.0255
   85SAPS   H3R 8051   2.927   2.593  10.759 -2.1002 -0.1002  0.5708
   85SAPS   H3S 8052   2.921   2.765  10.753  0.4531 -0.2309 -0.4853
   85SAPS   C24 8053   3.069   2.694  10.618  0.2340  0.1562 -0.1407
   85SAPS   H4R 8054   3.141   2.707  10.702  0.6072  1.0033 -0.5689
   85SAPS   H4S 8055   3.065   2.791  10.563 -0.3717 -0.3561 -1.0152
   85SAPS   C25 8056   3.089   2.571  10.525 -0.0176 -0.4011 -0.0133
   85SAPS   H5R 8057   3.104   2.476  10.579  0.0889 -0.3826 -0.0101
   85SAPS   C26 8058   3.096   2.566  10.389 -0.0690 -0.4562 -0.4394
   85SAPS   H6R 8059   3.119   2.468  10.344  1.7004 -1.4440  2.3597
   85SAPS   C27 8060   3.077   2.691  10.305  0.2548  0.2422  0.1494
   85SAPS   H7R 8061   3.157   2.767  10.321 -0.9827  1.3793  1.1468
   85SAPS   H7S 8062   2.981   2.733  10.341 -0.9103 -1.6104 -0.6577
   85SAPS   C28 8063   3.066   2.672  10.157 -0.2546  0.4277 -0.0988
   85SAPS   H8R 8064   3.089   2.569  10.127  0.7666  0.1452  1.5586
   85SAPS   C29 8065   3.014   2.761  10.073  0.3682  0.0120  0.7849
   85SAPS   H9R 8066   2.996   2.731   9.969 -1.4811  0.9408  0.7860
   85SAPS  C210 8067   2.976   2.895  10.111  0.2466  0.4829 -0.1932
   85SAPS  H10R 8068   3.015   2.928  10.209 -0.1793  1.2067 -0.2639
   85SAPS  H10S 8069   2.866   2.900  10.120  0.2137 -0.3345 -0.0594
   85SAPS  C211 8070   3.012   2.995  10.008  0.2308 -0.5000  0.2127
   85SAPS  H11R 8071   3.087   3.063  10.052  0.1236 -0.1177 -0.1856
   85SAPS  C212 8072   2.967   3.022   9.881  0.1895 -0.8249  0.1719
   85SAPS  H12R 8073   3.019   3.099   9.823 -0.9994  0.5541  0.8788
   85SAPS  C213 8074   2.855   2.949   9.800  0.4393 -0.6408 -0.5797
   85SAPS  H13R 8075   2.797   3.033   9.758  0.1589 -0.0642  0.8953
   85SAPS  H13S 8076   2.791   2.884   9.863 -0.0322  0.0115 -0.3797
   85SAPS  C214 8077   2.909   2.860   9.699 -0.5125  0.0602  0.4858
   85SAPS  H14R 8078   2.997   2.801   9.730  0.3841  0.5955 -0.9563
   85SAPS  C215 8079   2.874   2.839   9.573 -0.0919 -0.4510  0.4516
   85SAPS  H15R 8080   2.924   2.773   9.501 -0.9168 -0.2592 -0.3263
   85SAPS  C216 8081   2.757   2.909   9.506 -0.2017 -0.2898 -0.4201
   85SAPS  H16R 8082   2.727   3.000   9.562 -3.4732  0.9279 -3.7486
   85SAPS  H16S 8083   2.666   2.845   9.508  0.3981 -1.1802  1.9764
   85SAPS  C217 8084   2.804   2.956   9.365 -0.2377  0.0462  0.1831
   85SAPS  H17R 8085   2.894   3.022   9.373 -0.7436  0.6431  1.1119
   85SAPS  H17S 8086   2.708   3.002   9.334 -1.0570 -0.0089  2.4688
   85SAPS  C218 8087   2.847   2.836   9.276 -0.7498 -0.4225  0.6460
   85SAPS  H18R 8088   2.766   2.761   9.291 -3.7007  1.9151 -2.0493
   85SAPS  H18S 8089   2.943   2.789   9.304  1.1784  2.1208 -1.2245
   85SAPS  C219 8090   2.848   2.869   9.123  0.2170 -0.5007 -0.8095
   85SAPS  H19R 8091   2.742   2.894   9.100 -0.9107 -1.4808  2.6168
   85SAPS  H19S 8092   2.882   2.772   9.082  1.6423 -1.2049  1.8173
   85SAPS  C220 8093   2.941   2.990   9.087 -0.1623  0.1019  0.4897
   85SAPS  H20R 8094   2.903   3.090   9.118 -0.7078 -0.0993  0.4694
   85SAPS  H20S 8095   2.956   2.991   8.977 -1.2454  0.8718  0.3278
   85SAPS  H20T 8096   3.035   2.979   9.146  0.4694  1.1064 -0.2868
   85SAPS   C33 8097   2.233   2.437  10.332  0.5126 -0.4860 -0.9268
   85SAPS   H3X 8098   2.125   2.461  10.347  0.6559 -0.8520  0.8341
   85SAPS   H3Y 8099   2.256   2.367  10.414  0.2769  2.3568  1.7375
   85SAPS   C34 8100   2.260   2.369  10.204 -0.3763  0.0658  0.7858
   85SAPS   H4X 8101   2.237   2.261  10.223 -0.5650 -0.0040  0.1704
   85SAPS   H4Y 8102   2.365   2.387  10.174 -0.7194  1.4031  0.3387
   85SAPS   C35 8103   2.175   2.425  10.085  0.1946 -0.3070  0.2065
   85SAPS   H5X 8104   2.196   2.534  10.090  0.2111 -0.2560 -0.7555
   85SAPS   H5Y 8105   2.065   2.409  10.089  0.1192 -0.3444 -1.2575
   85SAPS   C36 8106   2.225   2.375   9.953  1.2604  0.1931 -0.3348
   85SAPS   H6X 8107   2.228   2.264   9.965  0.1653  0.2962  1.2358
   85SAPS   H6Y 8108   2.329   2.412   9.947  1.3745 -0.1744 -0.6441
   85SAPS   C37 8109   2.135   2.417   9.830 -0.4477  0.5553 -0.5578
   85SAPS   H7X 8110   2.165   2.522   9.807  0.4627  0.1055 -1.4797
   85SAPS   H7Y 8111   2.029   2.410   9.864  0.2519  2.2927  2.3439
   85SAPS   C38 8112   2.167   2.338   9.703  0.3705 -0.5156  0.6518
   85SAPS   H8X 8113   2.158   2.229   9.726  0.0915 -0.5220  0.5142
   85SAPS   H8Y 8114   2.269   2.369   9.671 -0.5568 -0.6787 -2.8587
   85SAPS   C39 8115   2.065   2.367   9.593  0.0207  0.1346 -0.6911
   85SAPS   H9X 8116   2.065   2.478   9.580  1.5561  0.4735  1.6278
   85SAPS   H9Y 8117   1.965   2.324   9.615  0.9784 -2.6642 -1.3769
   85SAPS  C310 8118   2.112   2.304   9.459  0.1014 -0.1026  0.1570
   85SAPS  H10X 8119   2.106   2.195   9.476 -5.0284 -0.2468 -1.0370
   85SAPS  H10Y 8120   2.212   2.343   9.428 -0.0881  2.9189  2.8016
   85SAPS  C311 8121   2.007   2.325   9.349  1.0726  0.1508  0.1661
   85SAPS  H11X 8122   1.987   2.433   9.334 -0.4495 -0.1975 -0.5300
   85SAPS  H11Y 8123   1.908   2.281   9.373  1.3291 -1.1371 -0.9811
   85SAPS  C312 8124   2.033   2.266   9.210 -0.0861  0.4632  0.1801
   85SAPS  H12X 8125   2.023   2.156   9.218 -3.2103  0.6900  0.5731
   85SAPS  H12Y 8126   2.134   2.295   9.174  0.8694 -0.2297  2.1846
   85SAPS  C313 8127   1.932   2.307   9.102  0.6320 -0.4384  0.1187
   85SAPS  H13X 8128   1.977   2.389   9.041  0.1683  0.7583  1.3537
   85SAPS  H13Y 8129   1.840   2.348   9.148  0.3546 -0.8033 -0.0992
   85SAPS  C314 8130   1.878   2.191   9.014  0.6898 -0.1775  0.5678
   85SAPS  H14X 8131   1.798   2.139   9.072 -1.3022  1.3554 -0.6797
   85SAPS  H14Y 8132   1.969   2.130   8.995 -0.0979 -1.6409  1.3313
   85SAPS  C315 8133   1.802   2.226   8.877 -0.5664 -0.3748  0.4678
   85SAPS  H15X 8134   1.851   2.311   8.824  0.5289 -1.3424 -0.1337
   85SAPS  H15Y 8135   1.701   2.260   8.905  0.3222  1.2661  1.8619
   85SAPS  C316 8136   1.793   2.104   8.774 -0.2919 -0.6029 -0.6171
   85SAPS  H16X 8137   1.725   2.127   8.689 -0.2254  1.8509 -0.0979
   85SAPS  H16Y 8138   1.751   2.016   8.827  1.1623 -1.1789 -0.3939
   85SAPS  C317 8139   1.930   2.059   8.723 -0.1083  0.1830 -0.4410
   85SAPS  H17X 8140   1.986   2.007   8.804 -3.7196 -2.1405  0.7740
   85SAPS  H17Y 8141   1.984   2.144   8.675 -1.7585  1.8229  0.4489
   85SAPS  C318 8142   1.913   1.959   8.605 -0.2089  0.2487 -0.2660
   85SAPS  H18X 8143   1.856   1.990   8.515 -0.3708  0.2479 -0.1653
   85SAPS  H18Y 8144   1.853   1.875   8.649 -1.2117  0.2911 -1.5141
   85SAPS  H18Z 8145   2.014   1.926   8.574 -0.5429  0.7326 -1.9229
   86SAPS     N 8146   5.086   2.482  10.800  0.3916  0.1293 -0.4154
   86SAPS   HN1 8147   5.149   2.454  10.722  1.6766  0.7529  0.3577
   86SAPS   HN2 8148   5.002   2.421  10.800  1.5893 -1.6446  1.4633
   86SAPS   HN3 8149   5.056   2.578  10.772 -2.8717 -0.5399  0.3968
   86SAPS   C12 8150   5.157   2.487  10.931 -0.1042  0.0939 -0.0742
   86SAPS  H12A 8151   5.248   2.544  10.920  0.6354 -1.4019 -2.3507
   86SAPS   C13 8152   5.072   2.547  11.039  1.2103 -0.3152 -0.4265
   86SAPS  O13A 8153   4.951   2.571  11.015 -0.2430 -0.7076 -0.5403
   86SAPS  O13B 8154   5.117   2.559  11.156 -0.6654  0.4359  0.1985
   86SAPS   C11 8155   5.190   2.340  10.982 -0.2586  0.3141  0.1204
   86SAPS  H11A 8156   5.241   2.351  11.080 -0.4576  0.9118  0.1661
   86SAPS  H11B 8157   5.269   2.313  10.909 -0.8673  0.8853 -0.7709
   86SAPS     P 8158   5.083   2.116  11.051 -0.0459 -0.0973  0.1051
   86SAPS   O13 8159   5.152   2.130  11.182  0.0657  0.0544  0.2087
   86SAPS   O14 8160   4.951   2.057  11.052  0.1798 -0.1286 -0.8711
   86SAPS   O12 8161   5.078   2.258  10.985 -0.0241  1.1130  0.4001
   86SAPS   O11 8162   5.169   2.030  10.952 -0.3041  0.0818 -0.0881
   86SAPS    C1 8163   5.175   2.044  10.812  0.3004  0.4848  0.9647
   86SAPS    HA 8164   5.194   2.150  10.785 -0.9324 -0.1966 -3.2491
   86SAPS    HB 8165   5.264   1.988  10.775 -0.0936 -0.1920  1.0216
   86SAPS    C2 8166   5.048   2.010  10.724  0.1980 -0.3468  0.0281
   86SAPS    HS 8167   4.962   2.076  10.751  0.1874  0.1585 -1.1564
   86SAPS   O21 8168   5.025   1.870  10.752  0.1519  0.9202  0.4898
   86SAPS   C21 8169   4.900   1.839  10.766 -0.4604  0.0543  0.1462
   86SAPS   O22 8170   4.803   1.905  10.735  0.6727  0.0694 -0.3754
   86SAPS   C22 8171   4.887   1.692  10.807  0.0694  0.1578 -0.2318
   86SAPS   H2R 8172   4.940   1.678  10.904  0.1688 -0.1130 -0.3239
   86SAPS   H2S 8173   4.781   1.664  10.829 -0.1582 -1.6270 -3.1080
   86SAPS    C3 8174   5.079   2.017  10.569 -0.1111 -0.0945  0.1879
   86SAPS    HX 8175   5.170   1.959  10.543 -0.4531 -0.0534 -1.1832
   86SAPS    HY 8176   5.101   2.122  10.544 -0.4820 -0.1353 -0.3387
   86SAPS   O31 8177   4.986   1.964  10.474  0.1602  0.3324 -1.3514
   86SAPS   C31 8178   4.873   2.030  10.465  1.2309  0.6828 -0.0294
   86SAPS   O32 8179   4.848   2.138  10.522 -0.1426 -0.3020 -0.6053
   86SAPS   C32 8180   4.766   1.955  10.379 -0.2239  0.1016  0.3937
   86SAPS   H2X 8181   4.686   2.031  10.363  0.4046  0.7884  0.4696
   86SAPS   H2Y 8182   4.732   1.873  10.445  0.2538  1.0443  1.8567
   86SAPS   C23 8183   4.939   1.599  10.691 -0.2757 -0.0078  0.3886
   86SAPS   H3R 8184   4.922   1.496  10.729  1.2803 -0.8379 -1.0242
   86SAPS   H3S 8185   5.047   1.611  10.668 -0.2621 -0.0439  0.4332
   86SAPS   C24 8186   4.848   1.606  10.567 -0.2888  0.1497  0.6066
   86SAPS   H4R 8187   4.856   1.698  10.504 -1.9567  0.4623  0.8107
   86SAPS   H4S 8188   4.742   1.609  10.601 -0.6781  1.9962 -0.6224
   86SAPS   C25 8189   4.869   1.492  10.479  0.4098 -0.0296  0.2630
   86SAPS   H5R 8190   4.960   1.432  10.483  0.0125 -0.6375  0.3156
   86SAPS   C26 8191   4.786   1.452  10.385 -1.1665 -0.0651  0.7656
   86SAPS   H6R 8192   4.809   1.357  10.335 -0.2693  0.2002  0.6641
   86SAPS   C27 8193   4.661   1.516  10.344  0.3263  0.1809 -0.3760
   86SAPS   H7R 8194   4.686   1.590  10.265  1.0752  0.5787  0.2268
   86SAPS   H7S 8195   4.612   1.570  10.428  2.9567 -0.5438  1.7695
   86SAPS   C28 8196   4.553   1.423  10.302 -0.2862  0.4475 -0.0202
   86SAPS   H8R 8197   4.484   1.389  10.380 -0.6527 -0.0502 -0.5626
   86SAPS   C29 8198   4.539   1.366  10.183  1.5350 -0.3566  0.8119
   86SAPS   H9R 8199   4.458   1.292  10.173  1.1858  0.1422 -0.1176
   86SAPS  C210 8200   4.629   1.385  10.059  0.5728 -0.3248 -0.7397
   86SAPS  H10R 8201   4.600   1.308   9.985  0.8232  0.0501 -1.2356
   86SAPS  H10S 8202   4.737   1.377  10.087  0.2814 -1.2071  0.2108
   86SAPS  C211 8203   4.602   1.520   9.991 -0.3030  0.2028 -0.0887
   86SAPS  H11R 8204   4.594   1.610  10.053 -0.4104  0.0413  0.1309
   86SAPS  C212 8205   4.620   1.545   9.855  0.5837  0.3719 -0.4835
   86SAPS  H12R 8206   4.598   1.642   9.807 -0.6030 -0.5394 -1.8609
   86SAPS  C213 8207   4.662   1.455   9.744  0.1939  0.2690 -0.4952
   86SAPS  H13R 8208   4.714   1.368   9.789 -1.2915  0.0614  0.8956
   86SAPS  H13S 8209   4.736   1.506   9.679  0.6369  1.5744  0.9846
   86SAPS  C214 8210   4.552   1.414   9.656  0.0905 -0.6166  0.2087
   86SAPS  H14R 8211   4.504   1.324   9.698 -2.1671  1.3703  2.1996
   86SAPS  C215 8212   4.503   1.476   9.547 -0.1239 -0.1019 -0.3168
   86SAPS  H15R 8213   4.424   1.423   9.493 -0.5386  0.4962 -0.2982
   86SAPS  C216 8214   4.565   1.594   9.475 -0.1920 -0.5021 -0.0272
   86SAPS  H16R 8215   4.660   1.637   9.512 -0.6938  1.7388 -1.2064
   86SAPS  H16S 8216   4.502   1.684   9.462  2.9554  1.9704  0.7534
   86SAPS  C217 8217   4.600   1.537   9.339 -0.2454 -0.0059 -0.5920
   86SAPS  H17R 8218   4.654   1.440   9.347  0.0578  0.2660  0.8283
   86SAPS  H17S 8219   4.674   1.606   9.294 -0.5308 -0.1498 -1.3077
   86SAPS  C218 8220   4.483   1.527   9.236  0.0870  0.0079  0.0989
   86SAPS  H18R 8221   4.424   1.619   9.218 -1.5288 -1.2722 -1.4526
   86SAPS  H18S 8222   4.418   1.450   9.281 -0.2079  0.1113 -0.1458
   86SAPS  C219 8223   4.531   1.500   9.091 -0.1529 -0.4752 -0.9695
   86SAPS  H19R 8224   4.573   1.398   9.083 -1.1776 -0.9637 -0.2452
   86SAPS  H19S 8225   4.610   1.576   9.071  2.4184 -2.9536 -0.8671
   86SAPS  C220 8226   4.416   1.512   8.989 -0.0906 -0.0559 -0.8756
   86SAPS  H20R 8227   4.341   1.432   9.006  3.7610 -3.6966  0.8592
   86SAPS  H20S 8228   4.446   1.513   8.882  0.8757 -2.9835 -0.7092
   86SAPS  H20T 8229   4.370   1.612   9.004  2.8384  1.3138 -0.1939
   86SAPS   C33 8230   4.822   1.900  10.244 -0.8544 -0.2955  0.4690
   86SAPS   H3X 8231   4.745   1.846  10.185  0.6837 -0.3493 -1.5910
   86SAPS   H3Y 8232   4.889   1.814  10.264 -1.1518 -0.9708 -1.2754
   86SAPS   C34 8233   4.886   2.009  10.153 -0.4374 -0.3820  0.1695
   86SAPS   H4X 8234   4.958   1.959  10.086  0.0694 -0.1898  0.5668
   86SAPS   H4Y 8235   4.943   2.081  10.215 -1.2341  1.8628 -1.6029
   86SAPS   C35 8236   4.778   2.082  10.080 -0.2286  0.0008  0.3362
   86SAPS   H5X 8237   4.716   2.135  10.155 -0.0860 -0.8148  1.0504
   86SAPS   H5Y 8238   4.707   2.009  10.037  1.9467 -2.1637  0.2276
   86SAPS   C36 8239   4.834   2.177   9.964  0.1456 -0.1417 -0.4991
   86SAPS   H6X 8240   4.922   2.129   9.916  1.1122  0.7115  0.3658
   86SAPS   H6Y 8241   4.871   2.273  10.005 -0.0640 -0.2398 -0.0746
   86SAPS   C37 8242   4.719   2.190   9.861 -0.6071  0.0557  1.1336
   86SAPS   H7X 8243   4.642   2.255   9.906  0.7896  0.5663  2.9105
   86SAPS   H7Y 8244   4.678   2.087   9.850 -0.5397  0.0680  0.7568
   86SAPS   C38 8245   4.759   2.253   9.723 -0.2678  0.0751 -0.1788
   86SAPS   H8X 8246   4.852   2.209   9.682 -0.7015 -0.1642 -0.9376
   86SAPS   H8Y 8247   4.786   2.358   9.746  3.4535 -0.6228 -0.7784
   86SAPS   C39 8248   4.650   2.240   9.622  0.1901 -0.1935 -0.3773
   86SAPS   H9X 8249   4.558   2.288   9.661  1.2829 -0.2577  2.5141
   86SAPS   H9Y 8250   4.630   2.131   9.612 -0.8909 -0.2700  1.9585
   86SAPS  C310 8251   4.685   2.295   9.483  0.1384  0.2344  0.1201
   86SAPS  H10X 8252   4.778   2.251   9.441 -1.2183 -1.0788 -1.7145
   86SAPS  H10Y 8253   4.700   2.405   9.478  2.7318 -0.1042 -1.0700
   86SAPS  C311 8254   4.574   2.268   9.386  0.2483 -0.1661 -0.0298
   86SAPS  H11X 8255   4.485   2.316   9.432  0.0438 -0.5556 -0.0153
   86SAPS  H11Y 8256   4.552   2.159   9.388  1.0797 -0.3327  0.5691
   86SAPS  C312 8257   4.607   2.314   9.246 -0.4307  0.0253  0.6193
   86SAPS  H12X 8258   4.658   2.234   9.189 -1.2703 -0.4545  0.5232
   86SAPS  H12Y 8259   4.669   2.406   9.238  1.9326 -1.3938  1.5170
   86SAPS  C313 8260   4.477   2.359   9.172  0.1622  0.4264  0.0044
   86SAPS  H13X 8261   4.415   2.427   9.234 -3.9755 -0.1826 -3.0196
   86SAPS  H13Y 8262   4.413   2.268   9.165 -0.6548  0.8181  1.8860
   86SAPS  C314 8263   4.499   2.423   9.036  0.4919 -0.6449 -0.5253
   86SAPS  H14X 8264   4.570   2.509   9.038 -1.9798  1.5201  0.7498
   86SAPS  H14Y 8265   4.402   2.467   9.002  0.1836 -0.0402  1.0316
   86SAPS  C315 8266   4.538   2.329   8.929  0.5637  0.1115 -0.3903
   86SAPS  H15X 8267   4.464   2.246   8.925  1.9114 -1.3758  2.5083
   86SAPS  H15Y 8268   4.636   2.277   8.942 -0.1615 -1.1951  0.0719
   86SAPS  C316 8269   4.550   2.403   8.797  0.6753  0.2956 -0.0095
   86SAPS  H16X 8270   4.612   2.352   8.720 -1.3572  0.9811 -2.2196
   86SAPS  H16Y 8271   4.607   2.496   8.814  0.7822  0.4347 -1.0958
   86SAPS  C317 8272   4.417   2.433   8.722 -0.4442  0.7046  0.5480
   86SAPS  H17X 8273   4.337   2.419   8.797  0.4942 -2.1619  1.1449
   86SAPS  H17Y 8274   4.392   2.347   8.657 -1.0882 -0.0809  1.8041
   86SAPS  C318 8275   4.416   2.566   8.649  0.1050  0.6594  0.3217
   86SAPS  H18X 8276   4.415   2.657   8.712  1.8643  1.6552 -0.9997
   86SAPS  H18Y 8277   4.333   2.561   8.576 -0.2900 -2.0840  0.8587
   86SAPS  H18Z 8278   4.519   2.568   8.606 -0.5250 -0.4631 -1.3395
   87SAPS     N 8279   5.136   3.360  10.901  0.3270 -0.1301 -0.0162
   87SAPS   HN1 8280   5.187   3.406  10.823  2.3026  1.6816  2.1621
   87SAPS   HN2 8281   5.203   3.300  10.953 -2.0186 -2.6240  0.3437
   87SAPS   HN3 8282   5.065   3.294  10.864 -0.1636  0.8218 -0.8137
   87SAPS   C12 8283   5.076   3.442  11.007  0.1649  0.2317 -0.3355
   87SAPS  H12A 8284   5.028   3.384  11.085 -0.6593  0.5194 -0.6214
   87SAPS   C13 8285   5.178   3.526  11.089  0.2209 -0.3367  0.4530
   87SAPS  O13A 8286   5.300   3.525  11.070  0.1994  0.9621  0.2311
   87SAPS  O13B 8287   5.120   3.601  11.174  0.4986 -0.4637 -1.1472
   87SAPS   C11 8288   4.954   3.529  10.953  0.2657  0.2645 -0.3435
   87SAPS  H11A 8289   4.982   3.570  10.853  2.1016 -1.3911 -0.5706
   87SAPS  H11B 8290   4.934   3.607  11.029 -0.3538 -0.7537  0.5745
   87SAPS     P 8291   4.720   3.488  10.852  0.3077  0.4983 -0.0904
   87SAPS   O13 8292   4.650   3.363  10.815  0.5410  0.0505 -0.0746
   87SAPS   O14 8293   4.643   3.587  10.924 -0.4492 -0.3438 -0.2592
   87SAPS   O12 8294   4.849   3.446  10.933  0.2060 -0.3763 -0.3470
   87SAPS   O11 8295   4.781   3.549  10.721  0.0771  0.0752 -0.5139
   87SAPS    C1 8296   4.865   3.488  10.628  0.0666  0.3955 -0.2952
   87SAPS    HA 8297   4.949   3.559  10.612  1.2990 -0.8970  0.2263
   87SAPS    HB 8298   4.910   3.392  10.660 -0.4842  0.5537  1.0057
   87SAPS    C2 8299   4.803   3.465  10.479  0.5924  0.0376 -0.8349
   87SAPS    HS 8300   4.890   3.457  10.411 -0.5022  2.8696 -2.7482
   87SAPS   O21 8301   4.717   3.571  10.431  0.5856 -0.4137 -0.1063
   87SAPS   C21 8302   4.768   3.691  10.400 -0.9291 -0.3218 -0.1386
   87SAPS   O22 8303   4.885   3.721  10.418 -0.4230  0.6972 -0.4669
   87SAPS   C22 8304   4.651   3.781  10.351 -0.0965  0.0565  0.4588
   87SAPS   H2R 8305   4.563   3.719  10.322 -1.2122  0.1155  3.3852
   87SAPS   H2S 8306   4.625   3.841  10.441  1.1092  0.3287  0.6410
   87SAPS    C3 8307   4.717   3.328  10.485  0.3364  0.0554  0.2468
   87SAPS    HX 8308   4.635   3.342  10.558  0.9154  1.1344  0.7252
   87SAPS    HY 8309   4.781   3.248  10.527 -2.0507 -1.7796  0.5308
   87SAPS   O31 8310   4.671   3.305  10.354  0.4882 -0.3761 -0.3894
   87SAPS   C31 8311   4.549   3.247  10.346  0.2376  0.3677 -0.4293
   87SAPS   O32 8312   4.485   3.213  10.445 -0.4800  0.2551  0.2726
   87SAPS   C32 8313   4.510   3.237  10.205 -0.4631 -0.9265 -0.1163
   87SAPS   H2X 8314   4.532   3.337  10.163 -0.3575  0.1713  2.3731
   87SAPS   H2Y 8315   4.402   3.211  10.207 -0.8445  0.3584  3.5401
   87SAPS   C23 8316   4.713   3.870  10.237  0.0710  0.0405 -0.1400
   87SAPS   H3R 8317   4.809   3.915  10.272  0.1316 -1.4071  1.6757
   87SAPS   H3S 8318   4.644   3.957  10.237 -1.4746 -1.1582  0.3656
   87SAPS   C24 8319   4.705   3.818  10.098 -0.2481 -0.4624  0.3312
   87SAPS   H4R 8320   4.611   3.763  10.079  0.6166 -2.2172  0.8636
   87SAPS   H4S 8321   4.782   3.739  10.080 -0.4604 -0.9014  1.2827
   87SAPS   C25 8322   4.705   3.923   9.988  0.3150 -0.2406  0.0982
   87SAPS   H5R 8323   4.638   4.008  10.007  1.3697  0.8672 -0.9700
   87SAPS   C26 8324   4.775   3.912   9.871  0.4369 -0.0141 -0.6252
   87SAPS   H6R 8325   4.774   3.998   9.801 -2.1710 -0.0754 -0.7746
   87SAPS   C27 8326   4.863   3.791   9.845  0.2832  0.0203  0.2215
   87SAPS   H7R 8327   4.931   3.774   9.931  0.2134 -3.0307 -0.2314
   87SAPS   H7S 8328   4.926   3.817   9.757 -0.9698  1.4384 -0.3017
   87SAPS   C28 8329   4.785   3.660   9.818 -0.2706  0.0345 -0.0866
   87SAPS   H8R 8330   4.807   3.582   9.893 -0.5941 -1.8745 -1.8948
   87SAPS   C29 8331   4.725   3.626   9.707 -0.2622 -0.7911 -0.9377
   87SAPS   H9R 8332   4.683   3.525   9.695 -1.7098 -0.6539  2.1532
   87SAPS  C210 8333   4.709   3.717   9.591  0.2842  0.0085  0.4365
   87SAPS  H10R 8334   4.811   3.722   9.547  0.9789 -0.6537  1.8860
   87SAPS  H10S 8335   4.685   3.815   9.637  2.0432  0.4045  0.5893
   87SAPS  C211 8336   4.615   3.670   9.483  0.5318  0.0527  1.1051
   87SAPS  H11R 8337   4.547   3.587   9.507  1.8356 -1.1741  0.7204
   87SAPS  C212 8338   4.615   3.719   9.357  0.7499  0.9368 -0.2542
   87SAPS  H12R 8339   4.540   3.676   9.289  1.5151  0.5641 -0.8781
   87SAPS  C213 8340   4.704   3.828   9.314  0.5534  0.0216 -0.9384
   87SAPS  H13R 8341   4.800   3.794   9.271  1.2274  0.8677 -0.1487
   87SAPS  H13S 8342   4.729   3.887   9.406  0.2337  0.3428 -1.0531
   87SAPS  C214 8343   4.626   3.915   9.217 -0.0463  0.4708  0.4617
   87SAPS  H14R 8344   4.545   3.963   9.274  0.4121  2.1884 -0.2702
   87SAPS  C215 8345   4.642   3.943   9.086  0.0637  0.2131 -0.9399
   87SAPS  H15R 8346   4.568   4.005   9.033 -0.7002 -1.3713 -1.7901
   87SAPS  C216 8347   4.743   3.885   8.990 -0.3734  0.2899  0.5189
   87SAPS  H16R 8348   4.682   3.843   8.907  1.1290 -0.3020 -0.3320
   87SAPS  H16S 8349   4.824   3.818   9.026  0.1277  1.4163  1.5653
   87SAPS  C217 8350   4.830   3.997   8.918 -0.3805  0.0168  0.4732
   87SAPS  H17R 8351   4.924   3.947   8.885  0.0564  0.5026  0.9445
   87SAPS  H17S 8352   4.864   4.081   8.983  2.8213 -0.6095 -0.2048
   87SAPS  C218 8353   4.759   4.060   8.795  0.2370  0.1533  0.7655
   87SAPS  H18R 8354   4.672   4.121   8.825  0.3685  1.0773 -0.6488
   87SAPS  H18S 8355   4.724   3.978   8.729  0.4690  0.7853 -0.1708
   87SAPS  C219 8356   4.849   4.147   8.697 -0.7722  0.2130  0.6827
   87SAPS  H19R 8357   4.951   4.105   8.688  0.4909  3.2058 -0.4376
   87SAPS  H19S 8358   4.864   4.247   8.743 -0.4677 -0.6087  2.4174
   87SAPS  C220 8359   4.787   4.154   8.554 -0.4093 -0.5112 -0.0668
   87SAPS  H20R 8360   4.688   4.204   8.551 -0.3510 -0.4144 -1.8252
   87SAPS  H20S 8361   4.781   4.061   8.494  2.2764 -1.6126  1.2033
   87SAPS  H20T 8362   4.853   4.223   8.497  1.0435 -1.6247  0.1962
   87SAPS   C33 8363   4.590   3.131  10.126 -0.4565 -0.3257 -0.4831
   87SAPS   H3X 8364   4.591   3.036  10.183  0.9484 -0.5139 -0.7878
   87SAPS   H3Y 8365   4.693   3.168  10.106 -0.7778  1.1323  0.4578
   87SAPS   C34 8366   4.517   3.095   9.995  1.3340  0.1956 -0.0400
   87SAPS   H4X 8367   4.409   3.077  10.011  0.9044  0.8949 -1.9042
   87SAPS   H4Y 8368   4.566   3.008   9.946  0.5698  0.5324 -1.4482
   87SAPS   C35 8369   4.542   3.204   9.887 -0.7750 -0.3307  1.1281
   87SAPS   H5X 8370   4.640   3.251   9.906 -1.6945  1.5877  1.2935
   87SAPS   H5Y 8371   4.465   3.284   9.882  0.5077  0.8446 -0.4903
   87SAPS   C36 8372   4.537   3.147   9.743  0.6206 -0.2225  0.1557
   87SAPS   H6X 8373   4.430   3.118   9.734  0.2292  0.8216  1.1221
   87SAPS   H6Y 8374   4.603   3.058   9.733  0.1252 -0.7932  1.6288
   87SAPS   C37 8375   4.569   3.246   9.627 -0.2544  0.4014  0.2485
   87SAPS   H7X 8376   4.675   3.278   9.639 -0.2464  1.1957 -1.5893
   87SAPS   H7Y 8377   4.503   3.335   9.642  0.4595  0.9222  0.3458
   87SAPS   C38 8378   4.536   3.188   9.488 -0.3483  0.1149 -0.9480
   87SAPS   H8X 8379   4.439   3.133   9.486 -0.8024  0.6927  1.7151
   87SAPS   H8Y 8380   4.613   3.112   9.460 -2.0444 -1.9169 -0.3451
   87SAPS   C39 8381   4.541   3.291   9.368 -0.3230  0.4386 -0.0865
   87SAPS   H9X 8382   4.647   3.312   9.342 -0.6587  2.0296 -0.2869
   87SAPS   H9Y 8383   4.488   3.385   9.397  0.4384  1.4429 -1.7461
   87SAPS  C310 8384   4.489   3.230   9.246 -1.1251  0.0396  0.0527
   87SAPS  H10X 8385   4.384   3.195   9.260 -1.1883  0.7230  1.3742
   87SAPS  H10Y 8386   4.543   3.137   9.219 -1.6435 -0.2737  0.0734
   87SAPS  C311 8387   4.493   3.317   9.116 -0.1728 -0.1125 -0.6038
   87SAPS  H11X 8388   4.582   3.382   9.103  0.1620 -0.0752  1.5550
   87SAPS  H11Y 8389   4.407   3.385   9.137 -1.7414 -2.2396  0.2432
   87SAPS  C312 8390   4.472   3.239   8.983  0.3597  0.2826 -0.6042
   87SAPS  H12X 8391   4.568   3.186   8.963 -0.8724 -3.6792  2.7425
   87SAPS  H12Y 8392   4.444   3.308   8.900 -0.7328 -0.6976 -1.0786
   87SAPS  C313 8393   4.366   3.133   8.976 -0.5108  0.0668 -0.2834
   87SAPS  H13X 8394   4.270   3.179   9.009 -0.7833 -1.0426  0.5398
   87SAPS  H13Y 8395   4.395   3.050   9.043 -1.2252  0.4681  0.5427
   87SAPS  C314 8396   4.345   3.081   8.835  0.4580  0.0365 -0.2936
   87SAPS  H14X 8397   4.381   2.975   8.835  1.4503  0.3600  0.2641
   87SAPS  H14Y 8398   4.423   3.125   8.769  1.1118 -1.2120 -0.3885
   87SAPS  C315 8399   4.202   3.103   8.787 -0.0373  0.3825  0.2210
   87SAPS  H15X 8400   4.130   3.095   8.871  1.6537 -1.2565  1.6238
   87SAPS  H15Y 8401   4.175   3.026   8.712 -1.1735  1.8481 -0.9379
   87SAPS  C316 8402   4.183   3.235   8.701  0.5997  0.3543  0.9586
   87SAPS  H16X 8403   4.239   3.227   8.605 -0.5630  2.5325  0.0541
   87SAPS  H16Y 8404   4.232   3.323   8.747  2.0041 -0.0512  0.3201
   87SAPS  C317 8405   4.031   3.249   8.655 -0.4255  0.4046 -0.2159
   87SAPS  H17X 8406   3.967   3.261   8.745 -0.5880  2.8494 -0.6069
   87SAPS  H17Y 8407   3.998   3.147   8.625 -0.4893  0.2697  0.2951
   87SAPS  C318 8408   3.991   3.364   8.563  0.3051  0.6668 -0.6112
   87SAPS  H18X 8409   3.881   3.372   8.573  0.5441  3.0159  1.0281
   87SAPS  H18Y 8410   4.027   3.346   8.460  0.0779  3.0577 -1.1747
   87SAPS  H18Z 8411   4.032   3.455   8.612  1.5482 -1.7721  3.4416
   88SAPS     N 8412   0.342   1.056  11.279 -0.1663 -0.0863 -0.1169
   88SAPS   HN1 8413   0.401   1.115  11.216 -0.5301  3.4346  2.5514
   88SAPS   HN2 8414   0.325   1.115  11.363  0.8201  1.2486 -0.8099
   88SAPS   HN3 8415   0.409   0.983  11.312  0.0985 -0.3262 -1.1322
   88SAPS   C12 8416   0.208   1.024  11.210  0.3726 -0.4381  0.1449
   88SAPS  H12A 8417   0.197   0.917  11.218 -0.8008 -0.3118  0.3762
   88SAPS   C13 8418   0.092   1.099  11.278  0.0138 -0.1752  0.0986
   88SAPS  O13A 8419   0.105   1.182  11.367 -1.0320 -0.9934 -0.9557
   88SAPS  O13B 8420  -0.022   1.058  11.242  0.0627  0.5703  0.8287
   88SAPS   C11 8421   0.213   1.062  11.062  0.4613  0.8418  0.5164
   88SAPS  H11A 8422   0.119   1.025  11.015  0.6058  0.2463  0.6867
   88SAPS  H11B 8423   0.300   0.999  11.033  0.4394  0.4172  1.3245
   88SAPS     P 8424   0.187   1.281  10.923  0.0479 -0.1135 -0.0301
   88SAPS   O13 8425   0.045   1.317  10.967 -0.0626 -0.2444  0.3005
   88SAPS   O14 8426   0.276   1.396  10.903  0.1652  0.3116 -0.6998
   88SAPS   O12 8427   0.250   1.191  11.035  0.0407  0.3065  0.1809
   88SAPS   O11 8428   0.193   1.185  10.795  0.4661 -0.3254  0.1094
   88SAPS    C1 8429   0.327   1.148  10.750  0.8656  0.4426 -0.3320
   88SAPS    HA 8430   0.396   1.229  10.721  1.7425 -0.1195  0.1506
   88SAPS    HB 8431   0.383   1.092  10.828  1.5861 -0.3051 -1.3640
   88SAPS    C2 8432   0.323   1.054  10.632  0.3673 -0.6621  0.6256
   88SAPS    HS 8433   0.430   1.027  10.615  1.7132  2.2545  3.3115
   88SAPS   O21 8434   0.276   1.128  10.517 -0.2107 -0.4598  0.5529
   88SAPS   C21 8435   0.318   1.098  10.390  0.5752  0.2123 -0.7347
   88SAPS   O22 8436   0.421   1.037  10.367  0.4526  0.2273  0.1480
   88SAPS   C22 8437   0.199   1.129  10.298  0.3675 -0.2820 -0.0631
   88SAPS   H2R 8438   0.113   1.078  10.346  0.1581  1.2336  1.2670
   88SAPS   H2S 8439   0.185   1.239  10.294 -0.3322 -0.3903 -1.4786
   88SAPS    C3 8440   0.219   0.938  10.645 -0.3311 -0.4491 -0.0504
   88SAPS    HX 8441   0.125   0.995  10.659  0.3809  0.6210  0.4394
   88SAPS    HY 8442   0.227   0.875  10.736  2.1183 -1.3212 -0.7822
   88SAPS   O31 8443   0.217   0.856  10.529  0.2262  0.1785 -0.6611
   88SAPS   C31 8444   0.117   0.781  10.506  0.4022  0.2450  0.5805
   88SAPS   O32 8445   0.021   0.763  10.579  0.5355 -0.2604 -0.2664
   88SAPS   C32 8446   0.151   0.733  10.365  0.4148  0.1776  0.2347
   88SAPS   H2X 8447   0.223   0.651  10.383  2.0704  1.1662 -1.4839
   88SAPS   H2Y 8448   0.210   0.809  10.309 -1.3577  1.8349  0.4920
   88SAPS   C23 8449   0.217   1.047  10.165  0.6405 -0.7805  0.0691
   88SAPS   H3R 8450   0.124   1.003  10.123  0.3939 -2.0919  1.8451
   88SAPS   H3S 8451   0.282   0.956  10.173  0.0666 -1.2702 -0.7370
   88SAPS   C24 8452   0.288   1.138  10.061  0.0083 -0.3584 -0.1486
   88SAPS   H4R 8453   0.289   1.075   9.969 -4.0193  1.7234 -1.8876
   88SAPS   H4S 8454   0.387   1.171  10.099 -0.4258  0.5510  0.2079
   88SAPS   C25 8455   0.213   1.258  10.021  0.0505  0.1219  0.1349
   88SAPS   H5R 8456   0.226   1.346  10.087  1.1218 -1.4499  2.1348
   88SAPS   C26 8457   0.124   1.262   9.918  0.2347  0.3996 -0.4295
   88SAPS   H6R 8458   0.083   1.363   9.902 -1.1101 -0.3139 -1.7488
   88SAPS   C27 8459   0.105   1.154   9.821  0.7784  0.7813 -0.6789
   88SAPS   H7R 8460  -0.005   1.163   9.805  0.2901 -1.1731  1.1565
   88SAPS   H7S 8461   0.116   1.056   9.870  1.4382  0.0073 -2.2957
   88SAPS   C28 8462   0.191   1.149   9.697 -0.0571 -0.0746 -0.3621
   88SAPS   H8R 8463   0.239   1.245   9.674 -0.3764  0.7863  2.2226
   88SAPS   C29 8464   0.211   1.046   9.616 -0.4687 -0.0195 -0.2844
   88SAPS   H9R 8465   0.287   1.056   9.537 -0.7921  1.6855 -0.4280
   88SAPS  C210 8466   0.137   0.918   9.632  0.2384 -0.2035 -0.1575
   88SAPS  H10R 8467   0.051   0.923   9.562 -0.5820  1.2328  0.8883
   88SAPS  H10S 8468   0.080   0.913   9.727 -0.6907 -1.0739 -0.7427
   88SAPS  C211 8469   0.211   0.793   9.608 -0.4030 -0.0773  0.0791
   88SAPS  H11R 8470   0.255   0.746   9.697  1.3134 -0.4586 -0.9062
   88SAPS  C212 8471   0.245   0.745   9.490  0.1426 -0.0309  0.4663
   88SAPS  H12R 8472   0.291   0.645   9.483 -1.5119 -0.8794  1.0037
   88SAPS  C213 8473   0.210   0.814   9.358 -0.2459  0.1880 -0.0602
   88SAPS  H13R 8474   0.278   0.901   9.343  0.5270 -0.5434 -0.9001
   88SAPS  H13S 8475   0.119   0.876   9.373 -0.4706  0.2080 -1.4030
   88SAPS  C214 8476   0.195   0.723   9.239 -0.1192  0.5710 -0.3933
   88SAPS  H14R 8477   0.281   0.656   9.234 -0.8468 -0.4141  0.0485
   88SAPS  C215 8478   0.099   0.713   9.151  0.4311 -0.8182 -0.7812
   88SAPS  H15R 8479   0.100   0.637   9.072 -1.7176 -0.2117 -1.4617
   88SAPS  C216 8480  -0.026   0.803   9.143  0.1873  0.2907 -0.0799
   88SAPS  H16R 8481   0.012   0.908   9.138  0.3554  0.2607  0.4664
   88SAPS  H16S 8482  -0.095   0.782   9.228 -0.1626 -1.3023 -0.7292
   88SAPS  C217 8483  -0.105   0.765   9.015  0.1608 -0.5641 -0.2814
   88SAPS  H17R 8484  -0.205   0.812   9.023 -1.0201 -2.9937  0.0017
   88SAPS  H17S 8485  -0.139   0.659   9.017  0.9242 -0.8442 -1.3928
   88SAPS  C218 8486  -0.034   0.807   8.890  0.2572  0.5027  0.1958
   88SAPS  H18R 8487   0.062   0.752   8.884  0.7185  0.9151  2.7128
   88SAPS  H18S 8488  -0.010   0.915   8.899 -0.1816  0.6737 -0.5613
   88SAPS  C219 8489  -0.114   0.788   8.765 -0.1082  0.4297  0.1950
   88SAPS  H19R 8490  -0.207   0.848   8.751 -1.7570 -1.5641  2.0223
   88SAPS  H19S 8491  -0.134   0.680   8.781  0.0138  0.4543  0.5195
   88SAPS  C220 8492  -0.026   0.798   8.642  0.6496  0.3849  0.0385
   88SAPS  H20R 8493  -0.077   0.790   8.544  1.7547 -2.9638 -0.3873
   88SAPS  H20S 8494   0.044   0.713   8.629  2.9174  2.2897 -0.7341
   88SAPS  H20T 8495   0.013   0.901   8.637 -1.5551  1.3356  0.8401
   88SAPS   C33 8496   0.028   0.692  10.280  0.1881 -0.2631 -0.9541
   88SAPS   H3X 8497  -0.036   0.779  10.254 -0.2169 -0.3842 -0.3721
   88SAPS   H3Y 8498  -0.043   0.620  10.324 -1.3652  1.6444 -0.2109
   88SAPS   C34 8499   0.059   0.651  10.136 -0.4838  0.7888 -0.2572
   88SAPS   H4X 8500   0.135   0.570  10.142  0.2332  1.4721  0.1283
   88SAPS   H4Y 8501   0.100   0.737  10.079  1.2677  0.8860  1.0697
   88SAPS   C35 8502  -0.057   0.602  10.045  0.4436  0.4064  0.1835
   88SAPS   H5X 8503  -0.128   0.686  10.031 -1.9140 -1.2018  1.8304
   88SAPS   H5Y 8504  -0.102   0.508  10.081  0.5634  0.2267 -0.1289
   88SAPS   C36 8505   0.002   0.570   9.903  0.2024  0.0577 -0.4368
   88SAPS   H6X 8506   0.090   0.505   9.923 -0.0174 -0.4822 -1.1488
   88SAPS   H6Y 8507   0.038   0.665   9.859  0.8048 -0.2319 -0.5806
   88SAPS   C37 8508  -0.104   0.509   9.808  0.2152  0.9313  0.4554
   88SAPS   H7X 8509  -0.192   0.577   9.802 -1.0435 -0.4701  1.9672
   88SAPS   H7Y 8510  -0.149   0.414   9.842 -1.3624  1.1857 -0.8052
   88SAPS   C38 8511  -0.056   0.493   9.666 -0.1298 -0.4194  0.6759
   88SAPS   H8X 8512   0.036   0.431   9.664 -0.9714 -1.8612  3.1251
   88SAPS   H8Y 8513  -0.015   0.588   9.625 -1.0632 -0.3307 -0.0780
   88SAPS   C39 8514  -0.155   0.421   9.569 -0.3388 -0.2820 -0.1940
   88SAPS   H9X 8515  -0.264   0.438   9.586  0.3116  1.7227  2.6887
   88SAPS   H9Y 8516  -0.129   0.313   9.570  1.9285  0.2181 -0.3763
   88SAPS  C310 8517  -0.120   0.457   9.423  0.1731  0.3872  0.8033
   88SAPS  H10X 8518  -0.013   0.427   9.420 -0.0169 -0.3094 -1.8696
   88SAPS  H10Y 8519  -0.115   0.564   9.394  1.3017  0.5022  1.3714
   88SAPS  C311 8520  -0.205   0.363   9.332  0.5396 -0.4863 -0.5117
   88SAPS  H11X 8521  -0.308   0.404   9.338  1.1718  1.0636  0.6834
   88SAPS  H11Y 8522  -0.200   0.261   9.374 -1.9503 -0.4049  0.1004
   88SAPS  C312 8523  -0.154   0.358   9.187  0.1121  0.8704 -0.7652
   88SAPS  H12X 8524  -0.147   0.464   9.156  2.3289  0.5242 -1.6359
   88SAPS  H12Y 8525  -0.230   0.307   9.125  2.3250 -0.8237 -2.2715
   88SAPS  C313 8526  -0.015   0.303   9.161  0.8816 -0.3007  0.0469
   88SAPS  H13X 8527  -0.017   0.203   9.209 -2.2823  1.5436  4.5456
   88SAPS  H13Y 8528   0.056   0.370   9.214 -0.5796 -0.5860  2.5088
   88SAPS  C314 8529   0.016   0.280   9.008  0.1039 -0.3133  0.3439
   88SAPS  H14X 8530   0.116   0.230   9.009 -0.9304 -2.5718 -0.9577
   88SAPS  H14Y 8531   0.020   0.378   8.957 -0.8483  0.3746  1.5429
   88SAPS  C315 8532  -0.068   0.177   8.937 -0.0258 -0.2082 -0.3189
   88SAPS  H15X 8533  -0.165   0.215   8.898  0.0217 -0.8479 -1.0891
   88SAPS  H15Y 8534  -0.099   0.101   9.012 -0.6644  0.5988  0.2559
   88SAPS  C316 8535   0.004   0.098   8.837  0.3681  0.1732  0.0384
   88SAPS  H16X 8536  -0.064   0.016   8.805 -0.1287  0.6703 -0.1884
   88SAPS  H16Y 8537   0.095   0.054   8.882 -0.3062 -2.1693 -0.7490
   88SAPS  C317 8538   0.050   0.173   8.718  0.3374 -0.2479 -0.4353
   88SAPS  H17X 8539   0.105   0.109   8.646  0.7455 -1.4585  0.8951
   88SAPS  H17Y 8540   0.116   0.257   8.748  0.4766 -0.4425 -0.1903
   88SAPS  C318 8541  -0.069   0.221   8.647  0.6347 -0.7183 -0.2994
   88SAPS  H18X 8542  -0.059   0.271   8.548 -2.9731  1.6305  0.3180
   88SAPS  H18Y 8543  -0.120   0.296   8.711  0.5148 -1.0018 -0.0605
   88SAPS  H18Z 8544  -0.144   0.139   8.637  0.9605 -1.1584  0.7068
   89SAPS     N 8545   6.341   2.298  10.892 -0.2999  0.5037 -0.8851
   89SAPS   HN1 8546   6.360   2.392  10.851  2.6238  0.5790  0.3910
   89SAPS   HN2 8547   6.397   2.220  10.851 -3.3921 -1.6493 -1.3300
   89SAPS   HN3 8548   6.242   2.269  10.881 -1.5428  3.1232  2.0095
   89SAPS   C12 8549   6.355   2.303  11.045 -0.3668 -0.3640  0.8627
   89SAPS  H12A 8550   6.282   2.376  11.077 -0.5876  0.2040 -0.8121
   89SAPS   C13 8551   6.336   2.175  11.121 -1.4232  0.4651  0.5594
   89SAPS  O13A 8552   6.314   2.061  11.072  0.1904 -0.4945 -0.0035
   89SAPS  O13B 8553   6.329   2.193  11.246  0.8184  0.0067  0.3866
   89SAPS   C11 8554   6.497   2.368  11.079 -0.5059  0.3465  0.0779
   89SAPS  H11A 8555   6.587   2.308  11.052 -0.3075  0.7989 -0.2780
   89SAPS  H11B 8556   6.506   2.375  11.189  2.0491  1.1425 -0.1172
   89SAPS     P 8557   6.616   2.567  10.949  0.1672  0.2219  0.0518
   89SAPS   O13 8558   6.581   2.708  10.918  0.6412 -0.6829 -0.0009
   89SAPS   O14 8559   6.745   2.541  11.017  0.1434  0.1395  0.0638
   89SAPS   O12 8560   6.499   2.504  11.031 -0.1661 -0.2675  0.1173
   89SAPS   O11 8561   6.609   2.478  10.824  0.2642  1.0254 -0.2233
   89SAPS    C1 8562   6.709   2.424  10.743  0.4980  0.4733 -0.3991
   89SAPS    HA 8563   6.747   2.335  10.798 -2.4312 -0.3764  0.4504
   89SAPS    HB 8564   6.673   2.387  10.644  3.9844 -0.2927 -1.5318
   89SAPS    C2 8565   6.819   2.526  10.699 -0.1439 -0.4463 -0.3091
   89SAPS    HS 8566   6.851   2.579  10.791 -0.1762  1.3835 -1.2841
   89SAPS   O21 8567   6.756   2.623  10.623  0.0923  0.2955  0.0435
   89SAPS   C21 8568   6.797   2.747  10.633 -0.7709  0.8620 -0.3280
   89SAPS   O22 8569   6.869   2.790  10.725 -0.0051  0.5494 -0.7633
   89SAPS   C22 8570   6.743   2.826  10.513 -0.4026 -0.2062 -0.9933
   89SAPS   H2R 8571   6.818   2.837  10.432 -0.6821  0.6597 -1.1550
   89SAPS   H2S 8572   6.656   2.770  10.473  0.3191 -2.0822 -0.0479
   89SAPS    C3 8573   6.938   2.474  10.633  0.0211  0.1427  0.4069
   89SAPS    HX 8574   6.979   2.394  10.699 -1.8860  0.0936  1.6020
   89SAPS    HY 8575   7.007   2.560  10.625 -2.2661  1.8845 -2.2345
   89SAPS   O31 8576   6.897   2.411  10.511 -0.2191  0.1418  0.3001
   89SAPS   C31 8577   6.937   2.472  10.405  0.4996  0.0292 -0.3814
   89SAPS   O32 8578   7.004   2.573  10.402 -0.3386 -0.1052  0.3650
   89SAPS   C32 8579   6.900   2.396  10.277 -0.7821  0.6058  0.6272
   89SAPS   H2X 8580   6.891   2.285  10.284 -1.6969  0.4293 -2.0683
   89SAPS   H2Y 8581   6.987   2.411  10.211 -1.9277  0.6414 -0.9148
   89SAPS   C23 8582   6.704   2.969  10.552  0.4546 -0.0811 -1.0117
   89SAPS   H3R 8583   6.796   3.023  10.582  1.0211 -1.5192 -0.0385
   89SAPS   H3S 8584   6.630   2.966  10.635  0.4777 -0.6948 -1.0017
   89SAPS   C24 8585   6.628   3.050  10.439 -0.4047  0.0868  0.1801
   89SAPS   H4R 8586   6.601   3.147  10.486  2.1180  0.2687  1.4496
   89SAPS   H4S 8587   6.532   2.996  10.424 -1.2907  0.8454  2.6669
   89SAPS   C25 8588   6.707   3.076  10.311 -0.5668  0.3628 -0.3015
   89SAPS   H5R 8589   6.771   3.166  10.316 -0.0253 -0.0455  0.2525
   89SAPS   C26 8590   6.715   3.009  10.191  0.4584 -0.0689  0.1756
   89SAPS   H6R 8591   6.777   3.047  10.109  1.8146 -3.8525 -0.7666
   89SAPS   C27 8592   6.635   2.885  10.153  0.2201 -0.0567 -0.3184
   89SAPS   H7R 8593   6.603   2.847  10.253 -1.3302  4.3893  1.1181
   89SAPS   H7S 8594   6.697   2.810  10.099 -0.3260  0.3432 -1.5101
   89SAPS   C28 8595   6.517   2.921  10.067  0.6249  0.0181 -0.7477
   89SAPS   H8R 8596   6.438   2.981  10.115  0.0835  0.5868 -2.2834
   89SAPS   C29 8597   6.495   2.894   9.940  0.1314 -0.0038 -0.2879
   89SAPS   H9R 8598   6.399   2.933   9.902  0.3521  1.7534  0.7932
   89SAPS  C210 8599   6.583   2.827   9.836  0.1850 -0.4242 -0.7019
   89SAPS  H10R 8600   6.557   2.720   9.853 -2.5186  0.2027 -0.3110
   89SAPS  H10S 8601   6.683   2.856   9.873 -0.0505 -0.8376  0.2959
   89SAPS  C211 8602   6.568   2.864   9.694  0.3627  0.0216  0.2476
   89SAPS  H11R 8603   6.526   2.963   9.673 -0.7852 -0.4965  0.0043
   89SAPS  C212 8604   6.577   2.791   9.580 -0.2840 -0.6462  0.2963
   89SAPS  H12R 8605   6.572   2.844   9.484 -1.2156  1.4376  1.4148
   89SAPS  C213 8606   6.605   2.650   9.558 -0.4011  0.6775  0.2193
   89SAPS  H13R 8607   6.664   2.602   9.639 -1.5383 -0.7374  0.2445
   89SAPS  H13S 8608   6.665   2.646   9.465  0.4043  0.1651  0.7425
   89SAPS  C214 8609   6.472   2.582   9.544  0.2709 -0.5930 -0.5203
   89SAPS  H14R 8610   6.395   2.604   9.620 -0.2610  0.3020 -1.2963
   89SAPS  C215 8611   6.436   2.508   9.437  0.6710  0.3046  0.9388
   89SAPS  H15R 8612   6.338   2.460   9.431  1.4955 -1.3022 -0.9363
   89SAPS  C216 8613   6.517   2.466   9.316 -0.2704 -0.2488  0.3071
   89SAPS  H16R 8614   6.506   2.357   9.300  1.0730 -0.2446 -0.8920
   89SAPS  H16S 8615   6.624   2.481   9.344 -0.8775  1.1548  2.0525
   89SAPS  C217 8616   6.485   2.544   9.190  0.2489  0.3416  0.6740
   89SAPS  H17R 8617   6.529   2.645   9.197  1.1762 -0.0099  0.0056
   89SAPS  H17S 8618   6.377   2.552   9.165  0.4976  0.6876 -0.3140
   89SAPS  C218 8619   6.546   2.480   9.063 -0.5998 -0.1244  0.3919
   89SAPS  H18R 8620   6.523   2.371   9.053  0.2693 -0.3682  0.8933
   89SAPS  H18S 8621   6.657   2.487   9.063 -0.6605  1.0022 -0.4862
   89SAPS  C219 8622   6.488   2.543   8.932 -0.0428  0.1686 -0.0986
   89SAPS  H19R 8623   6.493   2.653   8.946 -0.3168  0.2882 -0.8906
   89SAPS  H19S 8624   6.379   2.519   8.923  0.1776 -0.9204  0.0033
   89SAPS  C220 8625   6.565   2.513   8.803 -0.5475  0.9942  0.2437
   89SAPS  H20R 8626   6.572   2.403   8.790  2.6984  1.1952 -0.3883
   89SAPS  H20S 8627   6.670   2.546   8.819  1.1659 -3.2817 -0.7338
   89SAPS  H20T 8628   6.509   2.576   8.730  0.1478 -0.0319 -1.2153
   89SAPS   C33 8629   6.774   2.454  10.214  0.0363 -0.3766 -0.4927
   89SAPS   H3X 8630   6.799   2.560  10.193 -1.2324 -0.2834 -1.6397
   89SAPS   H3Y 8631   6.689   2.452  10.286 -0.1313 -1.1219 -0.7118
   89SAPS   C34 8632   6.742   2.392  10.075 -0.6307  1.3111  0.6769
   89SAPS   H4X 8633   6.635   2.410  10.053 -0.7936  0.8490  1.0801
   89SAPS   H4Y 8634   6.757   2.284  10.093 -2.8061  0.5590 -1.4376
   89SAPS   C35 8635   6.838   2.459   9.977 -0.2649  0.6765  0.1597
   89SAPS   H5X 8636   6.939   2.451  10.022 -0.1796 -3.2015 -0.4367
   89SAPS   H5Y 8637   6.805   2.564   9.956 -0.1422  0.9038  1.0603
   89SAPS   C36 8638   6.838   2.391   9.841 -0.1090  0.0680  1.0759
   89SAPS   H6X 8639   6.737   2.392   9.795 -0.3610 -0.4704  1.6115
   89SAPS   H6Y 8640   6.872   2.285   9.848 -0.0053  0.0142 -0.0119
   89SAPS   C37 8641   6.942   2.458   9.745  0.2206 -0.0368  0.4504
   89SAPS   H7X 8642   7.038   2.448   9.800  0.7940 -0.9059 -0.6612
   89SAPS   H7Y 8643   6.916   2.565   9.729  3.3770  0.6256 -1.0148
   89SAPS   C38 8644   6.978   2.374   9.626 -0.3767 -0.3721  0.3412
   89SAPS   H8X 8645   7.068   2.312   9.643  0.1951  0.1340 -0.6967
   89SAPS   H8Y 8646   7.015   2.433   9.538  1.6233 -1.6400  0.2716
   89SAPS   C39 8647   6.861   2.293   9.562 -0.1911  1.2177 -0.6848
   89SAPS   H9X 8648   6.771   2.346   9.526 -3.1158 -2.3211  0.7935
   89SAPS   H9Y 8649   6.824   2.231   9.647  1.3699 -0.8542 -1.3976
   89SAPS  C310 8650   6.921   2.201   9.458  0.5681  0.2547 -0.4732
   89SAPS  H10X 8651   6.975   2.117   9.505  0.2209  1.2636  1.9132
   89SAPS  H10Y 8652   7.001   2.250   9.399  0.5570  0.1481 -0.5773
   89SAPS  C311 8653   6.810   2.149   9.367  0.3398 -0.1128 -0.4932
   89SAPS  H11X 8654   6.792   2.232   9.297 -0.6731  0.1126  0.0076
   89SAPS  H11Y 8655   6.717   2.129   9.425  0.6708  1.5343  0.6944
   89SAPS  C312 8656   6.869   2.036   9.290 -0.8914  0.0704  0.2850
   89SAPS  H12X 8657   6.871   1.949   9.359 -0.1011  1.5921  2.3109
   89SAPS  H12Y 8658   6.963   2.074   9.246 -1.7793  1.6351 -0.3260
   89SAPS  C313 8659   6.770   1.990   9.185 -0.7086 -0.1377  0.5560
   89SAPS  H13X 8660   6.745   2.069   9.111  0.4216  1.9784  2.3442
   89SAPS  H13Y 8661   6.677   1.969   9.241  0.0732  2.1816  2.8955
   89SAPS  C314 8662   6.828   1.872   9.113 -0.1519 -0.1915 -0.2637
   89SAPS  H14X 8663   6.858   1.784   9.175 -3.6884 -1.3888 -0.0314
   89SAPS  H14Y 8664   6.930   1.901   9.080 -0.0225 -1.3228 -0.9265
   89SAPS  C315 8665   6.747   1.828   8.992 -0.0170  0.1963 -0.4179
   89SAPS  H15X 8666   6.776   1.888   8.903 -1.8785 -0.3784 -1.4834
   89SAPS  H15Y 8667   6.641   1.852   9.015  0.1287 -0.8191  1.5504
   89SAPS  C316 8668   6.768   1.688   8.945  0.4727 -0.4476 -0.3794
   89SAPS  H16X 8669   6.721   1.622   9.021  2.7380 -0.9459  0.6788
   89SAPS  H16Y 8670   6.875   1.665   8.931  0.8706  1.5597 -0.9833
   89SAPS  C317 8671   6.696   1.657   8.811  0.1482  0.4368 -0.2811
   89SAPS  H17X 8672   6.746   1.709   8.727 -0.5103  0.9497 -0.3572
   89SAPS  H17Y 8673   6.593   1.697   8.819  0.5250  1.2295  0.7370
   89SAPS  C318 8674   6.685   1.505   8.791  0.0191  0.6938 -0.3356
   89SAPS  H18X 8675   6.644   1.489   8.688 -0.2544 -0.6033 -0.0446
   89SAPS  H18Y 8676   6.624   1.460   8.872 -0.7788  2.0455 -0.1624
   89SAPS  H18Z 8677   6.788   1.464   8.784  0.0895  1.0085 -1.3750
   90SAPS     N 8678   1.365   4.314  11.005  0.4492 -0.5177  0.6184
   90SAPS   HN1 8679   1.358   4.218  11.044  0.2449 -0.8241 -0.1553
   90SAPS   HN2 8680   1.459   4.331  10.964 -0.8946 -0.1421 -2.6076
   90SAPS   HN3 8681   1.341   4.377  11.085 -1.6648  2.1085 -1.8509
   90SAPS   C12 8682   1.256   4.342  10.906  0.1164 -0.0191 -0.3817
   90SAPS  H12A 8683   1.261   4.278  10.819 -0.1977 -0.0503 -0.3807
   90SAPS   C13 8684   1.116   4.317  10.965 -0.6402  0.1810 -0.8242
   90SAPS  O13A 8685   1.112   4.266  11.077 -0.0088 -0.3301  0.1108
   90SAPS  O13B 8686   1.020   4.344  10.888  0.4546  0.2111  0.0414
   90SAPS   C11 8687   1.271   4.481  10.842 -0.1473 -0.0300  0.4063
   90SAPS  H11A 8688   1.260   4.546  10.931  0.7922  1.3788 -0.4613
   90SAPS  H11B 8689   1.176   4.490  10.784 -1.3779 -2.3791  1.9155
   90SAPS     P 8690   1.402   4.626  10.671  0.0799 -0.2297  0.0685
   90SAPS   O13 8691   1.378   4.752  10.755  0.0141 -0.6336 -0.4611
   90SAPS   O14 8692   1.531   4.628  10.593  0.4469  0.1388 -0.3038
   90SAPS   O12 8693   1.397   4.502  10.774  1.0166 -0.2102 -0.5586
   90SAPS   O11 8694   1.280   4.609  10.573 -0.0124 -0.4126 -0.1279
   90SAPS    C1 8695   1.288   4.491  10.492  0.3050 -0.1128 -0.0382
   90SAPS    HA 8696   1.370   4.500  10.417 -0.1877  1.2190 -0.4493
   90SAPS    HB 8697   1.310   4.402  10.555 -0.4708 -0.3139 -0.0382
   90SAPS    C2 8698   1.145   4.448  10.437 -0.1800  0.6442  0.0081
   90SAPS    HS 8699   1.163   4.342  10.412  0.7483  0.4580  1.3210
   90SAPS   O21 8700   1.120   4.532  10.320 -0.3963  0.6687 -0.1605
   90SAPS   C21 8701   1.201   4.518  10.214  0.1162 -0.1674  0.0221
   90SAPS   O22 8702   1.285   4.429  10.200 -0.6349  0.0867 -0.3969
   90SAPS   C22 8703   1.143   4.619  10.109 -0.2029  0.2230 -0.0860
   90SAPS   H2R 8704   1.043   4.590  10.071  0.2928 -0.5797 -0.8279
   90SAPS   H2S 8705   1.130   4.711  10.169  0.2952 -0.4460  1.0817
   90SAPS    C3 8706   1.036   4.455  10.546 -0.7382  0.0024  0.2399
   90SAPS    HX 8707   1.040   4.555  10.592  3.8817  1.1325 -2.0618
   90SAPS    HY 8708   1.057   4.388  10.633  0.0616 -1.7243 -1.2043
   90SAPS   O31 8709   0.903   4.427  10.489 -0.4047 -0.7042 -0.2156
   90SAPS   C31 8710   0.884   4.318  10.417 -0.6747 -0.3932 -0.1429
   90SAPS   O32 8711   0.965   4.230  10.401 -0.0029  0.0382  0.1291
   90SAPS   C32 8712   0.749   4.315  10.339 -0.3997 -0.5394 -0.1201
   90SAPS   H2X 8713   0.677   4.386  10.386 -1.8827 -2.4324  0.6142
   90SAPS   H2Y 8714   0.697   4.221  10.369 -2.5988  0.6307 -0.0464
   90SAPS   C23 8715   1.241   4.644   9.995 -0.4268 -0.2495  0.3776
   90SAPS   H3R 8716   1.196   4.730   9.940  0.8333  1.6616  2.1866
   90SAPS   H3S 8717   1.253   4.561   9.923 -0.8616  1.6081 -1.9784
   90SAPS   C24 8718   1.382   4.697  10.034 -0.2535 -0.1833  0.2460
   90SAPS   H4R 8719   1.440   4.684   9.940  1.6187  0.0255  1.3184
   90SAPS   H4S 8720   1.448   4.633  10.098  0.1408  0.1711  0.2021
   90SAPS   C25 8721   1.380   4.828  10.111  0.1450  0.9627  0.0147
   90SAPS   H5R 8722   1.357   4.831  10.219 -1.7011  1.7992 -0.3770
   90SAPS   C26 8723   1.396   4.948  10.054 -0.3038 -0.5736  0.0603
   90SAPS   H6R 8724   1.398   5.046  10.104  2.3486 -0.2718 -0.4783
   90SAPS   C27 8725   1.432   4.960   9.903  0.3026 -0.3035 -0.1559
   90SAPS   H7R 8726   1.349   4.912   9.845 -1.8172  0.4562  2.0709
   90SAPS   H7S 8727   1.525   4.903   9.885 -0.4990 -1.1936 -1.7339
   90SAPS   C28 8728   1.461   5.093   9.835 -0.7168 -0.0623  0.2857
   90SAPS   H8R 8729   1.442   5.182   9.897  3.1333  2.7045 -2.0146
   90SAPS   C29 8730   1.506   5.118   9.711 -0.1766  0.4503 -0.6565
   90SAPS   H9R 8731   1.493   5.218   9.668  2.1581  1.4558  0.7678
   90SAPS  C210 8732   1.527   5.018   9.603 -0.1632  0.2475  0.4857
   90SAPS  H10R 8733   1.489   5.060   9.507  2.3543  0.4437 -0.5199
   90SAPS  H10S 8734   1.464   4.932   9.632  2.8326 -2.1670  0.3838
   90SAPS  C211 8735   1.670   4.970   9.592  0.3917 -0.1533  0.0858
   90SAPS  H11R 8736   1.699   4.909   9.679 -0.2424  2.7210  2.4436
   90SAPS  C212 8737   1.760   4.990   9.498  0.1895 -0.0996 -0.2117
   90SAPS  H12R 8738   1.863   4.959   9.521  0.0520  0.4591  1.2719
   90SAPS  C213 8739   1.751   5.071   9.371 -0.5391  0.8192 -1.0253
   90SAPS  H13R 8740   1.656   5.128   9.372 -0.4902  1.1448  3.2476
   90SAPS  H13S 8741   1.744   4.992   9.293  0.3739  0.1803 -0.4910
   90SAPS  C214 8742   1.867   5.170   9.347 -0.3550 -0.3737  0.7718
   90SAPS  H14R 8743   1.879   5.247   9.425  0.1943 -0.5691  0.8915
   90SAPS  C215 8744   1.956   5.168   9.240  0.6089  0.1188 -0.1564
   90SAPS  H15R 8745   2.031   5.247   9.227  2.4027 -1.3968  0.5543
   90SAPS  C216 8746   1.953   5.072   9.126 -0.3282  0.5963 -0.5561
   90SAPS  H16R 8747   1.922   4.972   9.163 -0.8338  1.1359  0.5178
   90SAPS  H16S 8748   2.056   5.051   9.088 -0.1445  3.0211 -1.6021
   90SAPS  C217 8749   1.861   5.108   9.009  0.5467 -0.0126  0.0535
   90SAPS  H17R 8750   1.764   5.137   9.055  0.3045 -1.2855  0.3693
   90SAPS  H17S 8751   1.837   5.029   8.936 -0.6586  1.1593 -0.8727
   90SAPS  C218 8752   1.911   5.223   8.919 -0.3883  0.2811 -0.3353
   90SAPS  H18R 8753   1.956   5.169   8.833  2.9192 -1.6806  2.3898
   90SAPS  H18S 8754   1.998   5.271   8.968 -2.4331  1.4533  2.4287
   90SAPS  C219 8755   1.811   5.331   8.879  0.5735 -0.2111 -0.3052
   90SAPS  H19R 8756   1.792   5.405   8.959 -1.8298 -0.1920 -0.8147
   90SAPS  H19S 8757   1.713   5.277   8.874  0.0986  0.7331 -1.7616
   90SAPS  C220 8758   1.844   5.403   8.753 -0.0285  0.4347  0.1814
   90SAPS  H20R 8759   1.930   5.471   8.770  0.3264  0.5458 -1.7803
   90SAPS  H20S 8760   1.768   5.478   8.722  0.9703  1.7985  0.9440
   90SAPS  H20T 8761   1.859   5.335   8.666  0.4644  0.6132  0.1242
   90SAPS   C33 8762   0.763   4.310  10.186 -0.2884  0.6086 -0.2452
   90SAPS   H3X 8763   0.673   4.260  10.143  0.5682 -0.1295 -1.2291
   90SAPS   H3Y 8764   0.846   4.243  10.154 -0.7141  0.9040 -2.0904
   90SAPS   C34 8765   0.781   4.447  10.117  0.2462 -0.8421 -0.5146
   90SAPS   H4X 8766   0.866   4.501  10.165  0.2179 -2.4443  1.4815
   90SAPS   H4Y 8767   0.696   4.518  10.126  1.4780  0.8246 -1.5447
   90SAPS   C35 8768   0.815   4.445   9.960  0.4193 -0.5280  0.1279
   90SAPS   H5X 8769   0.831   4.551   9.932 -2.4258 -0.2332 -0.7386
   90SAPS   H5Y 8770   0.727   4.419   9.897  0.9780  0.6398 -1.1584
   90SAPS   C36 8771   0.933   4.347   9.918  0.9835  0.3479  0.4380
   90SAPS   H6X 8772   0.903   4.240   9.913  0.7374  0.3072  2.1989
   90SAPS   H6Y 8773   1.024   4.349   9.982  0.6281 -1.8475  1.0958
   90SAPS   C37 8774   0.987   4.377   9.780 -0.5202 -0.2267  0.6003
   90SAPS   H7X 8775   1.017   4.483   9.775 -0.1442 -0.3096  1.0316
   90SAPS   H7Y 8776   0.907   4.349   9.708  0.4295  1.5960 -1.2592
   90SAPS   C38 8777   1.105   4.289   9.729 -0.0129  0.1736 -0.0928
   90SAPS   H8X 8778   1.081   4.182   9.746 -2.2480  0.5679 -0.3952
   90SAPS   H8Y 8779   1.184   4.320   9.801 -0.7667  0.7045  0.5254
   90SAPS   C39 8780   1.144   4.336   9.590 -1.0680  0.4522 -0.3636
   90SAPS   H9X 8781   1.163   4.445   9.600 -0.3292  0.1776  1.8115
   90SAPS   H9Y 8782   1.061   4.331   9.516  0.2695 -1.4839 -1.8159
   90SAPS  C310 8783   1.253   4.250   9.523 -0.4533  0.1356  0.0796
   90SAPS  H10X 8784   1.205   4.151   9.511 -0.9536 -0.2920  4.1095
   90SAPS  H10Y 8785   1.356   4.239   9.563  0.5774 -0.0061 -2.4093
   90SAPS  C311 8786   1.282   4.319   9.385  0.2073 -0.3685  0.1846
   90SAPS  H11X 8787   1.315   4.423   9.409 -0.0080 -1.0442  4.0933
   90SAPS  H11Y 8788   1.182   4.324   9.338  0.5602  0.8874 -0.4779
   90SAPS  C312 8789   1.370   4.234   9.291 -0.3791  0.3778 -0.0726
   90SAPS  H12X 8790   1.353   4.125   9.293  0.7236  0.1136 -2.0299
   90SAPS  H12Y 8791   1.475   4.245   9.325 -0.5830 -1.3157  1.2194
   90SAPS  C313 8792   1.367   4.288   9.142 -0.1324 -0.0259 -1.0708
   90SAPS  H13X 8793   1.423   4.383   9.150  0.1471 -0.3688  2.6851
   90SAPS  H13Y 8794   1.262   4.287   9.104 -0.2983 -0.3003 -0.6245
   90SAPS  C314 8795   1.435   4.191   9.049 -0.0510 -0.6807  0.3040
   90SAPS  H14X 8796   1.400   4.090   9.076 -2.0050  0.1459  1.0175
   90SAPS  H14Y 8797   1.545   4.192   9.066 -0.2853 -0.7399  1.8911
   90SAPS  C315 8798   1.391   4.204   8.900 -0.2303 -0.9334  0.1734
   90SAPS  H15X 8799   1.426   4.304   8.866 -1.9345 -0.0133  1.0159
   90SAPS  H15Y 8800   1.281   4.205   8.886 -0.1982 -0.2951 -0.0465
   90SAPS  C316 8801   1.442   4.079   8.819 -0.0688  0.2586 -1.2585
   90SAPS  H16X 8802   1.387   3.991   8.858  1.1198 -0.6938 -1.6770
   90SAPS  H16Y 8803   1.551   4.066   8.832 -0.1119  2.1737  1.8499
   90SAPS  C317 8804   1.400   4.093   8.673  0.0043 -0.1287 -0.1800
   90SAPS  H17X 8805   1.472   4.161   8.623 -2.6944  3.1576 -0.0006
   90SAPS  H17Y 8806   1.298   4.136   8.664  0.5724  1.2396 -0.3112
   90SAPS  C318 8807   1.412   3.963   8.602 -0.3267 -0.7125 -0.3392
   90SAPS  H18X 8808   1.420   3.972   8.491 -1.5669  0.7278 -0.3453
   90SAPS  H18Y 8809   1.321   3.901   8.619 -1.6285  0.3258 -2.9465
   90SAPS  H18Z 8810   1.508   3.916   8.632  0.1837  0.4865 -0.0155
   91SAPS     N 8811   4.334   2.391   6.083 -0.3955 -0.5759 -0.2656
   91SAPS   HN1 8812   4.245   2.353   6.044 -0.6242 -1.7545  1.3306
   91SAPS   HN2 8813   4.321   2.433   6.177  3.3119 -0.2623  0.2296
   91SAPS   HN3 8814   4.357   2.469   6.018  1.2440 -0.4412  0.4421
   91SAPS   C12 8815   4.453   2.298   6.074  0.0154 -1.1345 -0.3923
   91SAPS  H12A 8816   4.462   2.270   5.970  3.3653 -1.9685  0.0163
   91SAPS   C13 8817   4.591   2.368   6.114 -0.1421  0.0084  0.0746
   91SAPS  O13A 8818   4.588   2.494   6.128  0.6266 -0.0349  0.1474
   91SAPS  O13B 8819   4.702   2.307   6.105  0.1775  0.1215 -0.2326
   91SAPS   C11 8820   4.428   2.176   6.174  0.8067  0.2071  0.2826
   91SAPS  H11A 8821   4.423   2.223   6.274  0.2511  1.0196 -0.1134
   91SAPS  H11B 8822   4.515   2.107   6.173 -0.1080 -1.0691  2.2980
   91SAPS     P 8823   4.299   1.949   6.094 -0.1802  0.3503 -0.1446
   91SAPS   O13 8824   4.158   1.893   6.109 -0.4642  0.3482 -0.3807
   91SAPS   O14 8825   4.358   1.960   5.961  0.2489  0.3503 -0.0623
   91SAPS   O12 8826   4.305   2.097   6.150 -0.1853  0.0206 -0.5776
   91SAPS   O11 8827   4.399   1.866   6.192 -0.5892 -0.3151 -0.1497
   91SAPS    C1 8828   4.360   1.804   6.313  0.4795 -0.0737 -0.1694
   91SAPS    HA 8829   4.252   1.822   6.335  0.6554  0.6612  0.1322
   91SAPS    HB 8830   4.373   1.695   6.303  0.5971  0.0035 -0.9147
   91SAPS    C2 8831   4.444   1.862   6.424 -0.5467 -0.4166 -0.2464
   91SAPS    HS 8832   4.423   1.971   6.420 -0.1136 -0.1436  2.6988
   91SAPS   O21 8833   4.588   1.836   6.392  0.0351  0.5300 -0.9162
   91SAPS   C21 8834   4.667   1.936   6.435 -0.7366  0.0637 -0.0377
   91SAPS   O22 8835   4.635   2.029   6.506 -0.0421  0.3067  0.1353
   91SAPS   C22 8836   4.811   1.903   6.390 -0.5710 -0.5664  0.2207
   91SAPS   H2R 8837   4.801   1.865   6.286 -0.7393 -2.2424  0.8164
   91SAPS   H2S 8838   4.883   1.988   6.384  0.7051 -1.5767  0.6121
   91SAPS    C3 8839   4.405   1.817   6.566  0.2179  0.1188 -0.9929
   91SAPS    HX 8840   4.475   1.874   6.630  0.2124 -0.0131 -0.8708
   91SAPS    HY 8841   4.443   1.715   6.586  1.0287  0.7900  1.1531
   91SAPS   O31 8842   4.270   1.856   6.603 -0.3931  0.0446 -0.3849
   91SAPS   C31 8843   4.180   1.756   6.599  0.1235  0.1594 -0.3707
   91SAPS   O32 8844   4.199   1.640   6.570  0.2051 -0.0850  0.2428
   91SAPS   C32 8845   4.040   1.807   6.631 -0.5241 -0.0733  0.2505
   91SAPS   H2X 8846   3.970   1.773   6.552 -0.4784  0.3683  0.0127
   91SAPS   H2Y 8847   4.039   1.918   6.636 -2.4283  0.0024 -0.9721
   91SAPS   C23 8848   4.854   1.789   6.483 -0.2830 -0.1353  0.3695
   91SAPS   H3R 8849   4.957   1.764   6.449 -1.3091 -1.1048 -2.3028
   91SAPS   H3S 8850   4.781   1.708   6.465 -2.9179  1.9742  0.8727
   91SAPS   C24 8851   4.862   1.818   6.631  0.3205  0.4364  0.1620
   91SAPS   H4R 8852   4.832   1.725   6.684  0.2505 -0.2839 -1.0966
   91SAPS   H4S 8853   4.786   1.887   6.673  1.1407 -0.1098  2.7021
   91SAPS   C25 8854   4.992   1.877   6.681 -0.9122 -0.1932 -0.3405
   91SAPS   H5R 8855   5.046   1.946   6.615  1.1472  0.3301  1.7535
   91SAPS   C26 8856   5.058   1.841   6.789  0.4133 -0.0723  0.0851
   91SAPS   H6R 8857   5.149   1.895   6.818  2.1099 -3.0951  0.8825
   91SAPS   C27 8858   5.017   1.732   6.892 -0.0328 -0.2489 -0.2787
   91SAPS   H7R 8859   4.941   1.659   6.857 -0.3298  0.4539 -1.1423
   91SAPS   H7S 8860   4.959   1.785   6.971 -0.5310 -0.2354 -0.6450
   91SAPS   C28 8861   5.135   1.655   6.949 -0.2441 -0.0327 -0.6338
   91SAPS   H8R 8862   5.164   1.578   6.875  0.7758  0.7428 -1.0664
   91SAPS   C29 8863   5.204   1.660   7.069 -0.0044 -0.2200 -0.4498
   91SAPS   H9R 8864   5.293   1.598   7.088 -0.3696 -0.6095  0.0192
   91SAPS  C210 8865   5.172   1.763   7.174 -0.6133  0.1305 -0.2280
   91SAPS  H10R 8866   5.107   1.844   7.133  2.6921  1.6420 -3.0191
   91SAPS  H10S 8867   5.258   1.828   7.202  1.2065 -1.7555 -1.2167
   91SAPS  C211 8868   5.114   1.700   7.295  0.0216  0.0742 -0.5759
   91SAPS  H11R 8869   5.146   1.596   7.313  1.3228  0.5280 -0.1955
   91SAPS  C212 8870   5.031   1.751   7.392 -1.1681 -0.2790  0.7944
   91SAPS  H12R 8871   4.994   1.681   7.469 -1.7270  0.1175  0.8898
   91SAPS  C213 8872   4.973   1.892   7.384 -0.3933 -0.5841  0.8161
   91SAPS  H13R 8873   4.970   1.913   7.275  1.5392 -1.2493  0.5998
   91SAPS  H13S 8874   5.034   1.969   7.436 -0.6363  0.3900 -0.3097
   91SAPS  C214 8875   4.836   1.899   7.449 -1.2202 -0.2191 -0.5547
   91SAPS  H14R 8876   4.810   1.813   7.513 -0.8889  0.5970  0.7080
   91SAPS  C215 8877   4.732   1.979   7.409  1.1873 -0.0074 -0.0568
   91SAPS  H15R 8878   4.643   1.987   7.474  1.4827  1.7893  0.1698
   91SAPS  C216 8879   4.719   2.075   7.291 -0.2601 -0.0263  1.0275
   91SAPS  H16R 8880   4.814   2.090   7.237 -0.2538  1.1102  1.3318
   91SAPS  H16S 8881   4.710   2.180   7.325  3.0766  0.3749  0.9888
   91SAPS  C217 8882   4.606   2.053   7.202  0.0192  0.1415  0.0214
   91SAPS  H17R 8883   4.514   2.077   7.260 -1.0470  0.0327 -1.5650
   91SAPS  H17S 8884   4.597   1.950   7.162  1.5367 -0.7794  1.8782
   91SAPS  C218 8885   4.604   2.126   7.069 -0.4972 -0.4116  0.4699
   91SAPS  H18R 8886   4.617   2.232   7.098 -1.4559  0.2256 -1.2962
   91SAPS  H18S 8887   4.509   2.103   7.017 -0.5505 -3.1304  1.5902
   91SAPS  C219 8888   4.716   2.091   6.966  1.3907 -0.2713 -0.0411
   91SAPS  H19R 8889   4.728   1.980   6.966 -0.9332 -0.5707  0.7583
   91SAPS  H19S 8890   4.805   2.133   7.017 -1.7535  1.9303  4.2333
   91SAPS  C220 8891   4.700   2.143   6.819 -0.5102 -0.3499 -1.1431
   91SAPS  H20R 8892   4.620   2.083   6.770 -0.3532 -0.0150 -1.8158
   91SAPS  H20S 8893   4.793   2.129   6.760 -0.0314  0.1937 -0.5228
   91SAPS  H20T 8894   4.684   2.252   6.805 -0.2141  0.0999  1.5022
   91SAPS   C33 8895   3.979   1.756   6.768 -0.6254 -0.4021  0.5809
   91SAPS   H3X 8896   3.934   1.657   6.749 -0.9339 -0.4590  1.5432
   91SAPS   H3Y 8897   3.889   1.819   6.785 -0.3157 -0.2817  1.8496
   91SAPS   C34 8898   4.084   1.770   6.883 -0.3852 -0.6119  0.7148
   91SAPS   H4X 8899   4.147   1.861   6.876  1.2268 -1.7683 -0.7786
   91SAPS   H4Y 8900   4.157   1.690   6.857 -0.7004 -0.0397 -2.3293
   91SAPS   C35 8901   4.042   1.754   7.025  0.5122  0.0978 -0.3790
   91SAPS   H5X 8902   3.999   1.652   7.032 -1.7393  0.9752 -0.5773
   91SAPS   H5Y 8903   3.955   1.821   7.039  0.1378 -0.3197 -0.6815
   91SAPS   C36 8904   4.159   1.772   7.126 -0.5198  0.3321 -0.9725
   91SAPS   H6X 8905   4.176   1.881   7.139 -2.0555  0.4816  0.1570
   91SAPS   H6Y 8906   4.249   1.719   7.088  0.3323  1.7878 -1.0401
   91SAPS   C37 8907   4.115   1.710   7.260  0.5543 -0.0078 -0.1506
   91SAPS   H7X 8908   4.076   1.611   7.230  0.7175 -0.3217  0.6450
   91SAPS   H7Y 8909   4.040   1.770   7.316 -1.6336 -2.1971 -0.5210
   91SAPS   C38 8910   4.221   1.678   7.370  0.1952 -0.3144 -0.5070
   91SAPS   H8X 8911   4.307   1.615   7.337  0.7664 -0.9110  1.9038
   91SAPS   H8Y 8912   4.177   1.620   7.454  1.1449  0.2721  0.4209
   91SAPS   C39 8913   4.279   1.810   7.422 -0.1589  0.0007 -0.1212
   91SAPS   H9X 8914   4.197   1.882   7.437  0.9860  1.2492  0.3170
   91SAPS   H9Y 8915   4.358   1.836   7.348  1.3082 -0.3173  1.2722
   91SAPS  C310 8916   4.347   1.802   7.557 -0.2393  0.6791  0.2243
   91SAPS  H10X 8917   4.417   1.888   7.569 -0.1727  0.9665 -1.8767
   91SAPS  H10Y 8918   4.409   1.710   7.550 -0.4579  0.5529 -0.0383
   91SAPS  C311 8919   4.248   1.794   7.666 -0.5553 -0.0833  0.3881
   91SAPS  H11X 8920   4.162   1.728   7.640 -1.3541  0.3224  1.9081
   91SAPS  H11Y 8921   4.208   1.896   7.679  0.0930  0.3208 -0.6551
   91SAPS  C312 8922   4.302   1.745   7.802 -0.1881 -0.0884  0.1185
   91SAPS  H12X 8923   4.383   1.816   7.830  0.8336 -0.3994 -1.8725
   91SAPS  H12Y 8924   4.346   1.644   7.787  0.7306  0.0738  1.5588
   91SAPS  C313 8925   4.194   1.730   7.912  0.4678 -0.7419  0.2962
   91SAPS  H13X 8926   4.097   1.699   7.869  0.1690  0.8457 -0.2393
   91SAPS  H13Y 8927   4.167   1.834   7.943  2.2571  0.2090 -1.1484
   91SAPS  C314 8928   4.239   1.647   8.034 -0.1802 -0.9892  1.0381
   91SAPS  H14X 8929   4.336   1.693   8.064  0.0652  0.6134 -1.8881
   91SAPS  H14Y 8930   4.237   1.536   8.021 -2.4044 -0.9243  0.5466
   91SAPS  C315 8931   4.146   1.665   8.162  0.5124 -0.3183 -0.8557
   91SAPS  H15X 8932   4.045   1.634   8.129  0.3132  0.1451 -0.6940
   91SAPS  H15Y 8933   4.124   1.768   8.199 -2.6865 -1.6449  1.4139
   91SAPS  C316 8934   4.197   1.583   8.283  0.5796 -0.8559 -0.2844
   91SAPS  H16X 8935   4.303   1.616   8.294  0.5497 -0.1684 -1.8206
   91SAPS  H16Y 8936   4.202   1.478   8.246 -2.5468 -1.0861 -0.3215
   91SAPS  C317 8937   4.123   1.595   8.414 -0.2559  0.1058 -0.1337
   91SAPS  H17X 8938   4.021   1.553   8.399 -1.1059  1.7252  0.8942
   91SAPS  H17Y 8939   4.114   1.705   8.425  0.9907  0.1112  1.1377
   91SAPS  C318 8940   4.196   1.529   8.534  0.2540 -0.6745  0.3497
   91SAPS  H18X 8941   4.289   1.583   8.562  0.0837  0.4442 -1.0975
   91SAPS  H18Y 8942   4.222   1.424   8.508  1.0373 -0.8572  1.8048
   91SAPS  H18Z 8943   4.131   1.530   8.624 -3.0472 -1.6722 -1.8346
   92SAPS     N 8944   6.016   6.654   6.338 -0.2496 -0.3969  0.0118
   92SAPS   HN1 8945   5.926   6.654   6.389 -0.7053  1.0726 -0.7428
   92SAPS   HN2 8946   6.034   6.566   6.285  1.9403  2.2329 -4.1324
   92SAPS   HN3 8947   6.088   6.675   6.409  0.5349 -0.4621 -0.7505
   92SAPS   C12 8948   6.026   6.775   6.246 -0.2808 -0.1754  0.0294
   92SAPS  H12A 8949   6.126   6.792   6.207 -0.7904  1.0065 -0.8184
   92SAPS   C13 8950   5.957   6.747   6.115  0.4804  0.4179 -0.1441
   92SAPS  O13A 8951   5.860   6.669   6.104 -0.5837  0.6677  0.3743
   92SAPS  O13B 8952   5.977   6.829   6.021 -0.2694 -0.2433  0.0621
   92SAPS   C11 8953   5.964   6.904   6.318  0.7325  0.5211 -0.0061
   92SAPS  H11A 8954   5.949   6.984   6.242 -0.4616  1.0875  0.7924
   92SAPS  H11B 8955   6.043   6.932   6.391 -0.5038 -1.2890  2.1317
   92SAPS     P 8956   5.774   7.002   6.471 -0.2109  0.4999 -0.0727
   92SAPS   O13 8957   5.777   7.116   6.385 -0.1765  0.1389 -0.5080
   92SAPS   O14 8958   5.648   6.949   6.512  0.1973  0.1472  0.4090
   92SAPS   O12 8959   5.842   6.883   6.395  0.1144  0.7044 -0.3712
   92SAPS   O11 8960   5.852   7.025   6.609  0.5387 -0.7957  0.3591
   92SAPS    C1 8961   5.931   6.933   6.676 -0.1032  0.3275  0.6664
   92SAPS    HA 8962   5.941   6.834   6.626  2.8166  1.3530 -1.0082
   92SAPS    HB 8963   6.036   6.969   6.670 -0.3784  1.1062  0.5290
   92SAPS    C2 8964   5.884   6.910   6.825 -0.5172 -0.4896  0.0896
   92SAPS    HS 8965   5.911   6.806   6.854  0.3813 -0.4392 -0.5187
   92SAPS   O21 8966   5.742   6.930   6.846  0.0447  0.4158 -0.1258
   92SAPS   C21 8967   5.672   6.822   6.813  0.6260  0.7340 -0.6782
   92SAPS   O22 8968   5.708   6.726   6.747 -0.1608  0.2627 -0.1396
   92SAPS   C22 8969   5.525   6.853   6.856  0.3653  0.1169 -0.9354
   92SAPS   H2R 8970   5.496   6.940   6.794 -1.4124  1.6104  1.7592
   92SAPS   H2S 8971   5.471   6.758   6.837  1.6770 -1.5310  2.5877
   92SAPS    C3 8972   5.974   7.000   6.915  0.7401 -0.2495  0.0626
   92SAPS    HX 8973   5.959   7.103   6.875 -0.8741 -0.8914 -1.1275
   92SAPS    HY 8974   6.083   6.988   6.895  0.9576  1.0323  0.3774
   92SAPS   O31 8975   5.949   6.984   7.051  0.2961  0.3362  0.1260
   92SAPS   C31 8976   5.981   7.086   7.129 -0.3933  0.0395 -0.0643
   92SAPS   O32 8977   6.038   7.191   7.100  0.1969 -0.2341  0.2178
   92SAPS   C32 8978   5.928   7.047   7.267  0.4416 -0.4959 -0.0585
   92SAPS   H2X 8979   5.934   6.940   7.295  1.8098 -0.4408 -0.0635
   92SAPS   H2Y 8980   5.821   7.075   7.260  0.7462  1.1695  1.2394
   92SAPS   C23 8981   5.502   6.886   7.003  0.4283 -0.7226  0.9215
   92SAPS   H3R 8982   5.395   6.915   7.001  0.9512  1.3205 -0.3277
   92SAPS   H3S 8983   5.562   6.978   7.021  0.4272 -0.0113 -2.1363
   92SAPS   C24 8984   5.545   6.782   7.099 -0.0533 -0.3772  0.3631
   92SAPS   H4R 8985   5.537   6.833   7.198 -1.6893 -2.2856  1.2952
   92SAPS   H4S 8986   5.649   6.741   7.098  0.5030  0.8295  2.3228
   92SAPS   C25 8987   5.457   6.659   7.108  0.3350  0.4089 -0.5699
   92SAPS   H5R 8988   5.450   6.596   7.019  2.2405 -4.0931  2.1111
   92SAPS   C26 8989   5.382   6.619   7.217 -0.9356 -0.3290  0.2747
   92SAPS   H6R 8990   5.318   6.529   7.210 -1.4163  0.0901 -1.0883
   92SAPS   C27 8991   5.363   6.688   7.352 -0.3702 -0.8281 -0.4358
   92SAPS   H7R 8992   5.372   6.798   7.337 -2.9011 -0.7696 -2.0509
   92SAPS   H7S 8993   5.460   6.670   7.404 -0.4249  1.1248  0.4235
   92SAPS   C28 8994   5.257   6.643   7.440  0.4799  0.1086  0.7417
   92SAPS   H8R 8995   5.164   6.650   7.381  1.8974 -0.0323 -1.6393
   92SAPS   C29 8996   5.253   6.590   7.559  0.3967 -0.4407 -0.1609
   92SAPS   H9R 8997   5.157   6.548   7.595  0.7315 -0.5214  0.6502
   92SAPS  C210 8998   5.360   6.562   7.657 -0.3998  0.2764 -0.3505
   92SAPS  H10R 8999   5.451   6.528   7.604  0.3195 -0.5734  1.3439
   92SAPS  H10S 9000   5.321   6.474   7.712 -1.9187 -0.3853 -2.3474
   92SAPS  C211 9001   5.400   6.683   7.742 -0.0744 -0.4332  0.0407
   92SAPS  H11R 9002   5.449   6.760   7.680  1.1625 -3.3071 -2.8627
   92SAPS  C212 9003   5.379   6.706   7.868 -0.0157 -0.3454 -0.2560
   92SAPS  H12R 9004   5.409   6.800   7.915 -1.3043  0.2360 -0.5624
   92SAPS  C213 9005   5.305   6.620   7.970 -0.2512  0.5022 -0.3647
   92SAPS  H13R 9006   5.260   6.532   7.919 -0.7022  1.1671 -1.1413
   92SAPS  H13S 9007   5.225   6.683   8.014  1.4617  1.6323  1.2887
   92SAPS  C214 9008   5.396   6.560   8.074  0.3253 -0.1741  0.1764
   92SAPS  H14R 9009   5.462   6.483   8.033 -0.1814  0.0579 -1.1280
   92SAPS  C215 9010   5.395   6.591   8.204 -0.5576  0.2600  0.1516
   92SAPS  H15R 9011   5.473   6.550   8.270 -0.3291  1.3849  0.6041
   92SAPS  C216 9012   5.322   6.687   8.293  0.1855  0.4962 -0.2470
   92SAPS  H16R 9013   5.233   6.640   8.340  0.0177  0.6201 -0.4381
   92SAPS  H16S 9014   5.285   6.781   8.247 -3.6840 -0.4887  0.5542
   92SAPS  C217 9015   5.412   6.738   8.405 -0.2486 -0.0550 -0.3026
   92SAPS  H17R 9016   5.477   6.811   8.352 -0.6503 -0.8856 -2.0019
   92SAPS  H17S 9017   5.479   6.656   8.440 -0.8947 -1.1602 -1.5651
   92SAPS  C218 9018   5.345   6.786   8.527 -0.0336 -0.6222  0.2251
   92SAPS  H18R 9019   5.289   6.701   8.572 -4.2710  1.0991 -1.2850
   92SAPS  H18S 9020   5.266   6.859   8.498  1.2294  0.4260 -0.6903
   92SAPS  C219 9021   5.441   6.841   8.631  0.4249  0.8699  0.5257
   92SAPS  H19R 9022   5.513   6.912   8.585 -0.0395  0.4915 -0.8265
   92SAPS  H19S 9023   5.493   6.755   8.677  0.3077  0.7820  0.4930
   92SAPS  C220 9024   5.374   6.927   8.737  0.5862 -0.3196  0.3390
   92SAPS  H20R 9025   5.276   6.881   8.761  0.5571 -1.5216 -1.7771
   92SAPS  H20S 9026   5.356   7.030   8.698  3.9451  1.0246  1.9780
   92SAPS  H20T 9027   5.439   6.930   8.826  1.0865 -1.6674  0.0475
   92SAPS   C33 9028   5.992   7.127   7.375 -0.5876 -0.8824 -0.5297
   92SAPS   H3X 9029   5.996   7.238   7.366  1.2924 -0.7240  1.4449
   92SAPS   H3Y 9030   6.098   7.094   7.373 -0.7336 -1.3649 -0.2795
   92SAPS   C34 9031   5.928   7.099   7.512  0.4282 -0.1157  0.8707
   92SAPS   H4X 9032   5.938   6.990   7.534  1.0381 -0.3157 -0.3146
   92SAPS   H4Y 9033   5.819   7.116   7.512  0.5349  0.6800 -0.0991
   92SAPS   C35 9034   6.006   7.172   7.625 -0.1564  0.4256  0.2960
   92SAPS   H5X 9035   5.986   7.281   7.617 -1.3816  0.1273 -1.2364
   92SAPS   H5Y 9036   6.115   7.155   7.617 -0.2297 -2.2471  3.0158
   92SAPS   C36 9037   5.965   7.130   7.759  0.3297  0.5214  0.1632
   92SAPS   H6X 9038   5.979   7.022   7.781  2.5078  0.2865 -1.9541
   92SAPS   H6Y 9039   5.855   7.142   7.763  0.2703  0.2045 -0.4394
   92SAPS   C37 9040   6.028   7.217   7.875 -1.0446  0.8373 -0.7703
   92SAPS   H7X 9041   5.987   7.319   7.865 -4.1736 -0.3785 -1.7552
   92SAPS   H7Y 9042   6.139   7.220   7.872 -0.9630  1.4146  1.1292
   92SAPS   C38 9043   5.993   7.168   8.019  0.6288  0.0761  0.2069
   92SAPS   H8X 9044   6.047   7.074   8.044  0.4767  0.0451  0.4273
   92SAPS   H8Y 9045   5.887   7.134   8.021  0.1590  1.5113  0.8644
   92SAPS   C39 9046   6.008   7.273   8.133 -0.2077 -0.3602  0.5189
   92SAPS   H9X 9047   6.077   7.344   8.083 -0.3336 -1.7151 -1.7242
   92SAPS   H9Y 9048   6.049   7.237   8.229  0.9513  1.9831  0.9626
   92SAPS  C310 9049   5.877   7.355   8.164  0.6576 -0.1912 -0.2049
   92SAPS  H10X 9050   5.788   7.289   8.149 -1.0028  2.1775 -1.4752
   92SAPS  H10Y 9051   5.866   7.439   8.092  0.6691 -0.5674 -0.6475
   92SAPS  C311 9052   5.879   7.409   8.312 -0.6912 -0.8240 -0.2189
   92SAPS  H11X 9053   5.911   7.328   8.381 -0.1139 -0.6127 -0.2300
   92SAPS  H11Y 9054   5.785   7.465   8.332  0.4081  0.2489  2.4543
   92SAPS  C312 9055   5.991   7.507   8.316  0.3984 -0.1123 -0.0332
   92SAPS  H12X 9056   5.990   7.567   8.222  0.9093  0.4438  0.3127
   92SAPS  H12Y 9057   6.085   7.449   8.319 -1.4915 -3.5386 -1.8210
   92SAPS  C313 9058   5.983   7.598   8.443  0.0900 -0.1626 -0.4971
   92SAPS  H13X 9059   5.978   7.528   8.529 -0.7102 -1.0595 -1.2508
   92SAPS  H13Y 9060   5.895   7.666   8.453  2.1789  2.3661  2.8418
   92SAPS  C314 9061   6.117   7.677   8.451 -0.4467  0.4411 -0.1926
   92SAPS  H14X 9062   6.108   7.763   8.382 -0.7380  1.1274  0.6763
   92SAPS  H14Y 9063   6.203   7.615   8.420 -1.0115 -0.7496  0.5503
   92SAPS  C315 9064   6.140   7.750   8.593  0.4194  0.7028  0.2955
   92SAPS  H15X 9065   6.148   7.684   8.682 -1.8997 -0.0161  0.0297
   92SAPS  H15Y 9066   6.045   7.807   8.601 -0.8817 -1.0858 -1.4448
   92SAPS  C316 9067   6.259   7.849   8.581  0.6092 -0.7882 -0.0629
   92SAPS  H16X 9068   6.255   7.926   8.662 -0.1891  0.1183 -0.9434
   92SAPS  H16Y 9069   6.258   7.904   8.485 -0.2226 -0.6757  0.0094
   92SAPS  C317 9070   6.392   7.782   8.602  0.3279 -0.0081 -0.1129
   92SAPS  H17X 9071   6.396   7.692   8.537  1.4856 -0.4287  0.5095
   92SAPS  H17Y 9072   6.394   7.751   8.709  1.8534  0.3513 -0.0177
   92SAPS  C318 9073   6.506   7.881   8.585  0.2745  0.0179  0.2028
   92SAPS  H18X 9074   6.485   7.942   8.496  0.5265  0.4024  0.4047
   92SAPS  H18Y 9075   6.595   7.817   8.569 -0.3752 -0.7847 -0.2804
   92SAPS  H18Z 9076   6.519   7.940   8.678 -0.6569  0.3604  0.1294
   93SAPS     N 9077   6.299   6.398   6.456 -0.0630 -0.0982 -0.0879
   93SAPS   HN1 9078   6.365   6.362   6.528 -1.4961  0.6848  1.6844
   93SAPS   HN2 9079   6.359   6.413   6.373  2.0734  1.1880  1.5799
   93SAPS   HN3 9080   6.264   6.488   6.494 -2.0162  0.2480 -2.4947
   93SAPS   C12 9081   6.188   6.307   6.438  0.3992 -0.1897 -0.3559
   93SAPS  H12A 9082   6.121   6.322   6.522  0.4754  2.6560 -0.7284
   93SAPS   C13 9083   6.108   6.323   6.303  0.1611 -0.1502 -0.6380
   93SAPS  O13A 9084   6.131   6.415   6.226 -0.3217  0.2260  0.1894
   93SAPS  O13B 9085   6.029   6.235   6.272 -0.3684 -0.6330  0.1623
   93SAPS   C11 9086   6.241   6.160   6.439  0.6885 -0.1663 -0.6750
   93SAPS  H11A 9087   6.316   6.145   6.358 -0.0635  0.3725 -1.4939
   93SAPS  H11B 9088   6.157   6.094   6.409  0.6965 -0.4563 -0.0756
   93SAPS     P 9089   6.393   6.009   6.596 -0.1364  0.1989  0.3197
   93SAPS   O13 9090   6.495   6.034   6.497 -0.6880 -0.9788  0.4463
   93SAPS   O14 9091   6.434   6.007   6.739  0.3008  0.1230 -0.0389
   93SAPS   O12 9092   6.283   6.120   6.571  0.7097  0.7766 -0.0588
   93SAPS   O11 9093   6.324   5.876   6.557 -0.1030 -0.0186  0.0427
   93SAPS    C1 9094   6.195   5.848   6.608 -0.0804  0.5522  0.2690
   93SAPS    HA 9095   6.142   5.940   6.643 -3.4276 -0.0172 -2.6614
   93SAPS    HB 9096   6.126   5.825   6.523  1.1215  2.6612 -1.3933
   93SAPS    C2 9097   6.187   5.734   6.718 -0.3105  0.1637 -0.5726
   93SAPS    HS 9098   6.080   5.708   6.732  0.1680 -1.1167  1.1044
   93SAPS   O21 9099   6.241   5.781   6.845 -0.6369  0.4420 -0.1156
   93SAPS   C21 9100   6.178   5.871   6.910  0.5931  0.5318 -0.1490
   93SAPS   O22 9101   6.068   5.912   6.881  0.2674 -0.7211 -0.4433
   93SAPS   C22 9102   6.260   5.920   7.028  0.1308 -0.1052 -0.1037
   93SAPS   H2R 9103   6.324   5.838   7.067  0.2785  0.3545  0.6359
   93SAPS   H2S 9104   6.324   6.000   6.984 -2.0215  1.8739  0.1633
   93SAPS    C3 9105   6.267   5.613   6.665 -0.6666 -0.0921 -0.0661
   93SAPS    HX 9106   6.378   5.623   6.669 -0.6587 -0.3966  0.7229
   93SAPS    HY 9107   6.244   5.587   6.560 -1.3032 -4.5111  0.9723
   93SAPS   O31 9108   6.218   5.500   6.743  0.0559 -0.4644 -0.2603
   93SAPS   C31 9109   6.298   5.426   6.818 -0.5956  1.3891  0.5655
   93SAPS   O32 9110   6.418   5.430   6.825  0.1568  0.7100 -0.5532
   93SAPS   C32 9111   6.220   5.326   6.906 -0.8280 -0.6265  0.3571
   93SAPS   H2X 9112   6.118   5.315   6.863 -3.0470  1.9118  4.2965
   93SAPS   H2Y 9113   6.203   5.378   7.003  3.3792  3.2329 -0.6188
   93SAPS   C23 9114   6.193   5.997   7.148 -0.2586  0.2706 -0.0095
   93SAPS   H3R 9115   6.105   5.945   7.191 -0.5476 -0.6981 -1.6813
   93SAPS   H3S 9116   6.148   6.094   7.119  1.2341  1.7529  2.3234
   93SAPS   C24 9117   6.293   6.040   7.251 -0.3651  0.1470 -0.5712
   93SAPS   H4R 9118   6.257   6.134   7.300  1.4393  0.7398 -0.3211
   93SAPS   H4S 9119   6.386   6.070   7.199 -0.5147  0.1628 -0.8335
   93SAPS   C25 9120   6.321   5.925   7.341 -0.2292 -0.1021 -0.1060
   93SAPS   H5R 9121   6.369   5.836   7.300  0.6297 -0.9015  2.4147
   93SAPS   C26 9122   6.285   5.922   7.471  0.3596  0.3643  0.0077
   93SAPS   H6R 9123   6.298   5.833   7.534 -2.0574 -1.2182 -1.5370
   93SAPS   C27 9124   6.215   6.037   7.545  0.2187 -0.1300 -0.0309
   93SAPS   H7R 9125   6.114   6.006   7.578 -0.0346  0.0900 -0.5849
   93SAPS   H7S 9126   6.203   6.124   7.477  1.3621  2.7128  3.1248
   93SAPS   C28 9127   6.274   6.087   7.675 -0.4232  1.1556 -0.0261
   93SAPS   H8R 9128   6.336   6.177   7.661 -1.8267  2.0322 -0.7934
   93SAPS   C29 9129   6.242   6.038   7.802 -0.1302 -0.0634 -0.1975
   93SAPS   H9R 9130   6.286   6.089   7.889 -0.8759  0.2174  0.0248
   93SAPS  C210 9131   6.150   5.934   7.844 -0.0822 -0.1549  0.3010
   93SAPS  H10R 9132   6.160   5.847   7.776  1.4185  1.1558 -1.2529
   93SAPS  H10S 9133   6.048   5.974   7.825 -1.0806 -2.6823 -0.0461
   93SAPS  C211 9134   6.169   5.904   7.993 -0.3447  1.4271  0.5250
   93SAPS  H11R 9135   6.274   5.891   8.025 -1.1369 -0.0963  2.6560
   93SAPS  C212 9136   6.071   5.890   8.085 -0.3575 -0.1805  0.5652
   93SAPS  H12R 9137   6.097   5.892   8.192 -3.0637  0.2437  1.2818
   93SAPS  C213 9138   5.922   5.911   8.058  0.1515 -0.3228 -0.0163
   93SAPS  H13R 9139   5.863   5.829   8.104  1.2112 -2.2076 -1.8591
   93SAPS  H13S 9140   5.893   5.908   7.950 -1.5287  0.2114  0.3807
   93SAPS  C214 9141   5.871   6.048   8.112  0.6342  1.2329 -0.1788
   93SAPS  H14R 9142   5.872   6.128   8.036 -1.8727  1.1086 -0.4244
   93SAPS  C215 9143   5.813   6.067   8.229 -0.5653 -0.0371 -0.0579
   93SAPS  H15R 9144   5.797   6.169   8.266  2.4917  0.4937  0.0339
   93SAPS  C216 9145   5.796   5.953   8.328  0.2726  0.0134 -0.7903
   93SAPS  H16R 9146   5.883   5.939   8.396 -0.6083  0.0005  0.3697
   93SAPS  H16S 9147   5.780   5.852   8.285  0.1911 -0.2367 -0.1832
   93SAPS  C217 9148   5.685   5.975   8.429  0.4584 -0.8542  0.0561
   93SAPS  H17R 9149   5.685   5.878   8.483 -1.2963 -0.5609  0.6627
   93SAPS  H17S 9150   5.583   6.003   8.392  0.2323  0.1911  1.4111
   93SAPS  C218 9151   5.729   6.073   8.541 -0.0505 -0.0860 -1.0579
   93SAPS  H18R 9152   5.724   6.178   8.504 -1.4749  0.7177  1.1883
   93SAPS  H18S 9153   5.833   6.055   8.576  0.0008 -1.5780 -1.9098
   93SAPS  C219 9154   5.653   6.047   8.671 -0.0354  0.0730  0.2811
   93SAPS  H19R 9155   5.550   6.014   8.646  1.0240 -2.8002 -0.6424
   93SAPS  H19S 9156   5.654   6.139   8.734 -1.1675  0.7514 -0.6512
   93SAPS  C220 9157   5.716   5.945   8.761  0.3589 -0.2375 -0.5941
   93SAPS  H20R 9158   5.680   5.943   8.865  3.7452 -1.2545  0.7109
   93SAPS  H20S 9159   5.820   5.984   8.764 -0.3662  1.8080 -0.6497
   93SAPS  H20T 9160   5.707   5.849   8.704 -1.3688 -1.1932  1.1657
   93SAPS   C33 9161   6.301   5.198   6.933  0.3306 -0.5705 -0.1543
   93SAPS   H3X 9162   6.390   5.222   6.996 -0.4834  1.5547  0.2791
   93SAPS   H3Y 9163   6.329   5.171   6.829 -1.6695  1.6741 -1.3837
   93SAPS   C34 9164   6.213   5.085   6.993 -0.2269  0.2087  0.3264
   93SAPS   H4X 9165   6.262   4.988   6.969 -2.2612 -1.1116  1.1614
   93SAPS   H4Y 9166   6.112   5.076   6.947 -0.1726  0.7853  0.0844
   93SAPS   C35 9167   6.209   5.081   7.146 -0.9778  0.0834  0.3820
   93SAPS   H5X 9168   6.205   5.181   7.194  0.4801 -0.0258  0.7897
   93SAPS   H5Y 9169   6.313   5.053   7.171 -0.2819  1.5002 -0.7883
   93SAPS   C36 9170   6.100   4.985   7.209  0.1046  0.0840 -0.4915
   93SAPS   H6X 9171   6.137   4.881   7.215 -2.3061 -0.7431  1.6328
   93SAPS   H6Y 9172   6.012   4.977   7.141 -0.2062 -1.8908  0.0842
   93SAPS   C37 9173   6.066   5.023   7.353 -0.3803 -0.3188  0.2075
   93SAPS   H7X 9174   6.000   4.950   7.403 -1.3505 -0.2208 -0.8750
   93SAPS   H7Y 9175   6.005   5.115   7.367 -1.5092 -1.1655  1.0565
   93SAPS   C38 9176   6.199   5.050   7.433 -0.3470  0.3889  0.2023
   93SAPS   H8X 9177   6.245   5.146   7.402 -0.3116  0.3165  0.0327
   93SAPS   H8Y 9178   6.279   4.981   7.400  2.3766  3.2604  0.4132
   93SAPS   C39 9179   6.173   5.037   7.583  0.0038 -0.1523  0.4105
   93SAPS   H9X 9180   6.098   4.956   7.596  0.0362 -0.5173 -1.4687
   93SAPS   H9Y 9181   6.118   5.131   7.606  0.0439  0.5782 -2.1382
   93SAPS  C310 9182   6.297   5.025   7.668  0.0332  0.2397  0.2123
   93SAPS  H10X 9183   6.324   5.129   7.698 -0.1677  0.4842 -0.4442
   93SAPS  H10Y 9184   6.385   4.981   7.617  1.0678 -0.3570  2.3896
   93SAPS  C311 9185   6.263   4.939   7.794  1.0454 -0.4607 -0.2886
   93SAPS  H11X 9186   6.239   4.831   7.789  0.5991 -0.4063  0.4738
   93SAPS  H11Y 9187   6.164   4.972   7.833  0.5154 -2.4019  0.1220
   93SAPS  C312 9188   6.367   4.955   7.912  0.3232 -0.2129 -0.4044
   93SAPS  H12X 9189   6.419   5.053   7.918  1.9354 -0.7739 -3.2665
   93SAPS  H12Y 9190   6.452   4.886   7.899 -0.5377 -1.1496 -1.2744
   93SAPS  C313 9191   6.303   4.927   8.052 -0.7819  0.3850  0.5411
   93SAPS  H13X 9192   6.262   4.825   8.034 -1.0382  0.7923 -1.4501
   93SAPS  H13Y 9193   6.217   4.994   8.070 -0.3073  1.0711  0.3117
   93SAPS  C314 9194   6.404   4.930   8.168  0.6035  0.4659  0.1142
   93SAPS  H14X 9195   6.480   4.851   8.153  3.3380  2.4221  2.5610
   93SAPS  H14Y 9196   6.358   4.898   8.263 -0.5886  0.1169 -0.5556
   93SAPS  C315 9197   6.472   5.063   8.187  0.2117  0.0323 -0.0642
   93SAPS  H15X 9198   6.401   5.148   8.199  0.8979  0.3811  1.7477
   93SAPS  H15Y 9199   6.531   5.094   8.098  0.0114  2.0336  0.4545
   93SAPS  C316 9200   6.548   5.074   8.325  0.0893 -0.2506  0.2698
   93SAPS  H16X 9201   6.633   5.145   8.311 -1.0865  1.2536  0.5277
   93SAPS  H16Y 9202   6.587   4.971   8.341 -3.8910 -1.5954  2.4118
   93SAPS  C317 9203   6.463   5.128   8.437 -0.2251 -0.1670 -0.3461
   93SAPS  H17X 9204   6.372   5.065   8.447  0.5501 -1.1603  0.7531
   93SAPS  H17Y 9205   6.428   5.228   8.403  0.7528  0.0522 -0.7594
   93SAPS  C318 9206   6.532   5.143   8.575 -0.6707  0.5605 -0.7362
   93SAPS  H18X 9207   6.562   5.046   8.620  1.7518  1.3289 -0.5093
   93SAPS  H18Y 9208   6.488   5.215   8.647  0.4235  2.6196 -2.0212
   93SAPS  H18Z 9209   6.624   5.197   8.543 -0.2206  0.3596  0.1746
   94SAPS     N 9210   3.723   2.019   5.860 -0.0733  0.0484  0.3763
   94SAPS   HN1 9211   3.728   1.916   5.846 -0.6169 -0.1014  1.2133
   94SAPS   HN2 9212   3.747   2.039   5.959 -1.2473 -0.5694  0.8121
   94SAPS   HN3 9213   3.622   2.044   5.850 -0.1509 -0.5600 -0.5602
   94SAPS   C12 9214   3.806   2.089   5.763  0.0593 -0.4256  0.3542
   94SAPS  H12A 9215   3.900   2.037   5.753  1.2012  1.5022  0.4005
   94SAPS   C13 9216   3.748   2.094   5.621 -0.2160 -0.1969  0.0696
   94SAPS  O13A 9217   3.636   2.051   5.603 -0.0489 -0.1497  0.2528
   94SAPS  O13B 9218   3.824   2.139   5.528 -0.1327 -0.3964 -0.5398
   94SAPS   C11 9219   3.832   2.234   5.810  0.1111 -0.1671 -0.2345
   94SAPS  H11A 9220   3.733   2.285   5.817 -1.4154 -2.9762 -0.1874
   94SAPS  H11B 9221   3.899   2.286   5.738  0.0874 -1.0518 -0.9133
   94SAPS     P 9222   3.965   2.341   6.004 -0.3241  0.0458  0.3685
   94SAPS   O13 9223   4.104   2.329   5.962 -0.3774  0.3878  0.0832
   94SAPS   O14 9224   3.901   2.469   5.969 -0.2095  0.5207 -0.0532
   94SAPS   O12 9225   3.889   2.219   5.940  0.4098 -0.4078  0.2443
   94SAPS   O11 9226   3.948   2.316   6.164  0.0136  0.2227 -0.0120
   94SAPS    C1 9227   3.956   2.180   6.206  0.2037 -0.4112 -0.4751
   94SAPS    HA 9228   3.866   2.130   6.165  0.8495 -1.3671 -0.7499
   94SAPS    HB 9229   4.056   2.146   6.172 -0.2848 -0.5042 -1.9094
   94SAPS    C2 9230   3.950   2.163   6.361  0.3118 -0.3533  0.1718
   94SAPS    HS 9231   3.949   2.059   6.399 -0.0970  0.4008  2.3455
   94SAPS   O21 9232   3.847   2.245   6.420  0.4032 -0.2369 -0.3355
   94SAPS   C21 9233   3.732   2.183   6.412 -0.5056  0.4569  0.1919
   94SAPS   O22 9234   3.719   2.070   6.354  0.3688 -0.4096  0.1884
   94SAPS   C22 9235   3.632   2.250   6.505 -0.8124 -0.3591 -0.7111
   94SAPS   H2R 9236   3.604   2.344   6.452 -0.0461 -0.0204 -0.5299
   94SAPS   H2S 9237   3.540   2.187   6.502 -0.4502 -0.8428 -2.0076
   94SAPS    C3 9238   4.083   2.228   6.416 -0.1447 -0.3434  0.1044
   94SAPS    HX 9239   4.086   2.334   6.380  2.1083 -1.5112 -3.7597
   94SAPS    HY 9240   4.161   2.165   6.369  2.1494  1.0044  1.9002
   94SAPS   O31 9241   4.090   2.213   6.558  0.0411  0.2332 -0.7038
   94SAPS   C31 9242   4.209   2.248   6.610 -0.7554  0.4647  0.6432
   94SAPS   O32 9243   4.296   2.306   6.544  0.1181  0.0565 -0.1403
   94SAPS   C32 9244   4.211   2.218   6.754 -0.1286 -0.4881  0.0277
   94SAPS   H2X 9245   4.298   2.153   6.782  0.5444  1.5649  3.1955
   94SAPS   H2Y 9246   4.117   2.162   6.771 -0.2045 -1.2499 -2.5515
   94SAPS   C23 9247   3.686   2.278   6.653 -0.8860  0.5232  0.5848
   94SAPS   H3R 9248   3.606   2.328   6.712 -0.8579  0.3043  0.8118
   94SAPS   H3S 9249   3.767   2.354   6.652  0.2816 -0.7016  0.2529
   94SAPS   C24 9250   3.731   2.148   6.731  0.1677 -0.0526  0.1327
   94SAPS   H4R 9251   3.807   2.164   6.811 -0.8784  1.6367  0.8475
   94SAPS   H4S 9252   3.780   2.079   6.659 -1.2872  1.2543 -2.2570
   94SAPS   C25 9253   3.612   2.078   6.791 -0.2363  0.2237  0.6392
   94SAPS   H5R 9254   3.541   2.055   6.710  0.8456 -0.1779 -0.2236
   94SAPS   C26 9255   3.574   2.076   6.923  0.1003  0.5063  0.2529
   94SAPS   H6R 9256   3.483   2.022   6.953  0.4203  0.7723  1.7696
   94SAPS   C27 9257   3.656   2.133   7.033 -0.4415 -0.9738 -0.4537
   94SAPS   H7R 9258   3.593   2.153   7.123  0.6752  3.4682 -0.4357
   94SAPS   H7S 9259   3.695   2.232   7.002  0.4876 -0.5177  1.9610
   94SAPS   C28 9260   3.774   2.050   7.066 -0.0687  0.1764 -0.2202
   94SAPS   H8R 9261   3.826   2.026   6.972 -2.4006  0.0552 -1.5539
   94SAPS   C29 9262   3.829   2.016   7.183 -0.6100 -0.1947 -0.3372
   94SAPS   H9R 9263   3.926   1.966   7.186  0.2462  1.3155 -1.4790
   94SAPS  C210 9264   3.775   2.057   7.323 -0.1138 -0.8088 -0.5224
   94SAPS  H10R 9265   3.688   1.995   7.355 -0.6135  0.5955  0.9616
   94SAPS  H10S 9266   3.733   2.159   7.309  0.2285 -0.5788  0.1242
   94SAPS  C211 9267   3.875   2.050   7.438  0.5843  0.1683  0.4603
   94SAPS  H11R 9268   3.963   1.990   7.411  1.8388  3.3827 -3.7088
   94SAPS  C212 9269   3.858   2.106   7.558  1.0725 -0.6103  0.2576
   94SAPS  H12R 9270   3.924   2.073   7.640  0.4708 -1.9779  0.2176
   94SAPS  C213 9271   3.741   2.195   7.590  1.0633 -0.0119  0.5851
   94SAPS  H13R 9272   3.651   2.131   7.599  0.1016  1.1248 -0.6950
   94SAPS  H13S 9273   3.716   2.258   7.503 -0.7215  0.2416  1.2426
   94SAPS  C214 9274   3.765   2.293   7.708 -0.2490  0.1188 -0.1847
   94SAPS  H14R 9275   3.855   2.353   7.692 -0.0187 -0.2910 -0.4528
   94SAPS  C215 9276   3.697   2.318   7.822  0.2567  0.1214 -0.1061
   94SAPS  H15R 9277   3.736   2.396   7.889 -0.1006  0.2619 -0.0609
   94SAPS  C216 9278   3.575   2.255   7.871 -0.1908  0.3708 -0.1182
   94SAPS  H16R 9279   3.512   2.214   7.789  0.4714  0.6273 -0.7649
   94SAPS  H16S 9280   3.519   2.336   7.923  0.3805 -0.2285  1.4887
   94SAPS  C217 9281   3.593   2.139   7.978 -0.6363  0.1176 -0.1152
   94SAPS  H17R 9282   3.670   2.067   7.942  2.1579  1.2080  3.1245
   94SAPS  H17S 9283   3.496   2.085   7.980 -0.6297 -0.0850 -2.4673
   94SAPS  C218 9284   3.648   2.183   8.111 -0.0421 -0.2678  0.2324
   94SAPS  H18R 9285   3.584   2.268   8.143  1.8416  1.0548  0.6613
   94SAPS  H18S 9286   3.750   2.225   8.099 -0.2764  0.4774  0.7607
   94SAPS  C219 9287   3.650   2.077   8.221 -0.1242 -0.2063  0.2379
   94SAPS  H19R 9288   3.718   1.992   8.199 -2.3741 -2.3080  0.8286
   94SAPS  H19S 9289   3.546   2.043   8.240  0.2569 -0.4903  1.9202
   94SAPS  C220 9290   3.707   2.147   8.345  0.2561 -0.0952 -0.1413
   94SAPS  H20R 9291   3.701   2.084   8.435 -0.0195  0.0986 -0.0209
   94SAPS  H20S 9292   3.647   2.238   8.368 -0.0761 -0.5292  0.7449
   94SAPS  H20T 9293   3.813   2.177   8.333 -0.0168 -0.0258 -3.4865
   94SAPS   C33 9294   4.208   2.343   6.853  0.0430 -0.5234  0.5550
   94SAPS   H3X 9295   4.136   2.422   6.824 -0.3660 -0.2060  2.3143
   94SAPS   H3Y 9296   4.312   2.382   6.846 -0.1236  0.1631  1.7522
   94SAPS   C34 9297   4.184   2.309   6.998 -0.0153  0.3231 -0.4049
   94SAPS   H4X 9298   4.240   2.216   7.020  0.3449  0.5846 -0.2092
   94SAPS   H4Y 9299   4.077   2.281   7.010  0.2912 -0.0214  2.0885
   94SAPS   C35 9300   4.231   2.416   7.090 -0.0286  0.1097 -0.5086
   94SAPS   H5X 9301   4.184   2.515   7.072  0.2861  0.5206  0.8136
   94SAPS   H5Y 9302   4.340   2.435   7.077  0.1164  1.9276  2.4742
   94SAPS   C36 9303   4.204   2.373   7.242 -0.4538 -0.5782  1.1191
   94SAPS   H6X 9304   4.266   2.284   7.262  0.5158  0.2471  1.8970
   94SAPS   H6Y 9305   4.097   2.345   7.244 -1.0044  0.5362 -2.9297
   94SAPS   C37 9306   4.253   2.476   7.351 -0.2632  0.8649  0.7271
   94SAPS   H7X 9307   4.191   2.562   7.317 -3.6886 -1.3100  1.0026
   94SAPS   H7Y 9308   4.359   2.507   7.342  0.0563  0.4868  2.6704
   94SAPS   C38 9309   4.217   2.431   7.491  0.8823 -0.0886 -0.4132
   94SAPS   H8X 9310   4.121   2.376   7.485 -0.6856  2.3613  0.7857
   94SAPS   H8Y 9311   4.206   2.529   7.542  1.9986  0.2490 -0.7973
   94SAPS   C39 9312   4.327   2.346   7.556  0.2158 -0.1357  0.0954
   94SAPS   H9X 9313   4.431   2.369   7.523 -1.1653  1.7099 -3.4901
   94SAPS   H9Y 9314   4.310   2.243   7.516  0.0521 -0.2110  0.3562
   94SAPS  C310 9315   4.319   2.352   7.712  0.1546 -0.4950  0.2714
   94SAPS  H10X 9316   4.347   2.457   7.736 -0.3391  0.0337 -1.3046
   94SAPS  H10Y 9317   4.395   2.279   7.748 -0.8535 -3.1661 -2.5759
   94SAPS  C311 9318   4.177   2.313   7.760 -0.7094  0.3091 -0.4460
   94SAPS  H11X 9319   4.108   2.267   7.686 -2.5063 -1.7506  2.2994
   94SAPS  H11Y 9320   4.126   2.407   7.788 -1.7592  0.0099 -1.3162
   94SAPS  C312 9321   4.179   2.206   7.874  0.1399  0.0553 -0.4235
   94SAPS  H12X 9322   4.265   2.215   7.944  0.9940  0.3153 -1.4857
   94SAPS  H12Y 9323   4.188   2.102   7.836 -0.4455  0.5008 -1.8610
   94SAPS  C313 9324   4.038   2.193   7.938 -0.2439  0.1022 -0.9723
   94SAPS  H13X 9325   3.977   2.171   7.848 -0.0834  0.4013 -1.1549
   94SAPS  H13Y 9326   4.016   2.295   7.977  5.5845  1.7320 -0.9446
   94SAPS  C314 9327   4.026   2.097   8.049 -0.1446  0.3274 -1.0100
   94SAPS  H14X 9328   4.075   1.999   8.027 -0.8933 -0.6976  1.5469
   94SAPS  H14Y 9329   3.916   2.090   8.059 -0.1435  2.4433  1.7568
   94SAPS  C315 9330   4.083   2.157   8.180  0.1073 -0.2800 -0.8875
   94SAPS  H15X 9331   4.019   2.237   8.222 -0.5137 -0.0584 -2.1902
   94SAPS  H15Y 9332   4.184   2.200   8.164  2.1505 -3.1507  2.7986
   94SAPS  C316 9333   4.125   2.050   8.290  0.3703  0.0916  0.1586
   94SAPS  H16X 9334   4.208   1.991   8.245  0.1253 -0.0802 -0.0724
   94SAPS  H16Y 9335   4.035   1.985   8.298 -1.2658  2.2300  0.3451
   94SAPS  C317 9336   4.180   2.123   8.405  0.3959  0.7456 -0.3485
   94SAPS  H17X 9337   4.096   2.183   8.448 -0.7672 -0.3511 -1.0035
   94SAPS  H17Y 9338   4.264   2.191   8.382  0.5183  0.3656 -1.0504
   94SAPS  C318 9339   4.219   2.021   8.515  0.4952  0.0472  0.0989
   94SAPS  H18X 9340   4.280   2.074   8.591 -0.2836  3.5118 -1.4725
   94SAPS  H18Y 9341   4.289   1.945   8.475  0.8775 -0.1916  1.1987
   94SAPS  H18Z 9342   4.136   1.961   8.558  2.3735 -1.4230  1.8778
   95SAPS     N 9343   3.126   5.925   6.311 -1.0933  0.1812 -0.1867
   95SAPS   HN1 9344   3.165   5.939   6.406  0.2600 -0.8007 -0.5634
   95SAPS   HN2 9345   3.072   6.012   6.292 -0.1952  0.7248 -0.3521
   95SAPS   HN3 9346   3.071   5.838   6.296  2.5365 -2.4544  0.5287
   95SAPS   C12 9347   3.227   5.919   6.203  0.3839  0.4141  0.0087
   95SAPS  H12A 9348   3.263   5.817   6.200  1.2143  0.6920  0.0641
   95SAPS   C13 9349   3.181   5.946   6.053 -0.0692 -0.0408 -0.0458
   95SAPS  O13A 9350   3.062   5.961   6.024  0.9793  0.5489 -0.3722
   95SAPS  O13B 9351   3.265   5.933   5.958  0.2064  0.2411 -0.3702
   95SAPS   C11 9352   3.352   6.005   6.238  0.2777  0.0781 -0.1434
   95SAPS  H11A 9353   3.423   6.007   6.153  1.5258  1.1570  0.8673
   95SAPS  H11B 9354   3.415   5.944   6.306  0.7726 -1.2054 -1.6955
   95SAPS     P 9355   3.446   6.249   6.287 -0.3115 -0.3011  0.4669
   95SAPS   O13 9356   3.571   6.192   6.332 -0.3687  0.1200  0.4666
   95SAPS   O14 9357   3.450   6.330   6.163  0.1074 -0.1522  0.2692
   95SAPS   O12 9358   3.333   6.142   6.274 -0.0313 -0.0002 -0.0248
   95SAPS   O11 9359   3.382   6.341   6.404 -0.6643 -0.1097 -0.2735
   95SAPS    C1 9360   3.246   6.364   6.427  0.1535 -0.0562  0.4463
   95SAPS    HA 9361   3.220   6.470   6.405  2.5156 -0.0798 -3.5136
   95SAPS    HB 9362   3.185   6.309   6.352 -0.0042  2.6631 -1.5729
   95SAPS    C2 9363   3.185   6.316   6.563 -0.7248  0.3560  1.0474
   95SAPS    HS 9364   3.077   6.301   6.540 -0.2536 -1.9445  0.1452
   95SAPS   O21 9365   3.195   6.420   6.655 -0.1708  0.1799 -0.5366
   95SAPS   C21 9366   3.113   6.521   6.655 -0.2605 -0.0992  0.1749
   95SAPS   O22 9367   3.019   6.540   6.581  0.1140 -0.2058  0.1307
   95SAPS   C22 9368   3.179   6.619   6.752 -0.3091  0.1916  0.1031
   95SAPS   H2R 9369   3.288   6.622   6.731 -0.5639 -2.4578 -2.2861
   95SAPS   H2S 9370   3.130   6.717   6.733 -1.6653 -0.6318 -0.8136
   95SAPS    C3 9371   3.250   6.184   6.619 -0.2580 -0.8012 -0.2176
   95SAPS    HX 9372   3.358   6.208   6.625  0.1496 -2.5435 -0.0455
   95SAPS    HY 9373   3.240   6.108   6.538 -0.4422  0.9177 -1.8970
   95SAPS   O31 9374   3.189   6.143   6.740  0.9916  0.3646 -0.2069
   95SAPS   C31 9375   3.275   6.090   6.828  0.0639  0.4325  0.3265
   95SAPS   O32 9376   3.391   6.064   6.809 -0.4272  1.1600  0.0310
   95SAPS   C32 9377   3.203   6.058   6.963  1.4734 -0.5203 -0.3368
   95SAPS   H2X 9378   3.130   5.983   6.926  0.9638  0.0856 -0.5684
   95SAPS   H2Y 9379   3.149   6.151   6.990 -0.0185 -1.0515 -1.3507
   95SAPS   C23 9380   3.149   6.589   6.899 -0.3463  0.0705 -0.0794
   95SAPS   H3R 9381   3.040   6.587   6.920  0.1129 -1.9097  2.5444
   95SAPS   H3S 9382   3.193   6.662   6.970  2.9535 -1.3692 -0.4610
   95SAPS   C24 9383   3.208   6.458   6.946  0.1880 -0.3962 -0.4463
   95SAPS   H4R 9384   3.165   6.372   6.890  1.6172 -1.3175 -0.1867
   95SAPS   H4S 9385   3.171   6.445   7.050  0.1528  0.1399 -0.3884
   95SAPS   C25 9386   3.353   6.455   6.932 -0.3065 -0.7596  0.6131
   95SAPS   H5R 9387   3.385   6.470   6.828  0.5730 -0.5014  0.9121
   95SAPS   C26 9388   3.447   6.438   7.023 -0.5023  0.3511 -0.1854
   95SAPS   H6R 9389   3.554   6.429   6.997  0.2156  2.9968  1.4237
   95SAPS   C27 9390   3.422   6.410   7.171  0.0014 -0.0388 -0.2342
   95SAPS   H7R 9391   3.399   6.304   7.196 -0.3467  0.2173  0.5492
   95SAPS   H7S 9392   3.334   6.471   7.202 -0.8775 -1.4100  0.0441
   95SAPS   C28 9393   3.540   6.446   7.247 -1.0599  0.7047 -0.1522
   95SAPS   H8R 9394   3.617   6.505   7.196 -0.7972  0.5015  0.0052
   95SAPS   C29 9395   3.547   6.419   7.382 -0.4623  0.6689  0.2536
   95SAPS   H9R 9396   3.637   6.447   7.440  0.0602  0.0010 -0.2186
   95SAPS  C210 9397   3.438   6.353   7.460  0.5183 -0.2517  0.1617
   95SAPS  H10R 9398   3.364   6.310   7.389  2.0084 -1.5925 -0.6356
   95SAPS  H10S 9399   3.378   6.433   7.509 -0.3571 -0.3127 -0.7781
   95SAPS  C211 9400   3.475   6.236   7.544  0.3576 -0.3257 -1.0007
   95SAPS  H11R 9401   3.531   6.162   7.485 -0.6186  0.0975 -2.4984
   95SAPS  C212 9402   3.459   6.215   7.678  0.1065  0.5577  0.3906
   95SAPS  H12R 9403   3.473   6.113   7.717 -3.7352  0.6755  2.5356
   95SAPS  C213 9404   3.388   6.297   7.781  0.0741  0.1594 -1.0293
   95SAPS  H13R 9405   3.302   6.236   7.816 -0.5059  2.1286  1.2137
   95SAPS  H13S 9406   3.350   6.391   7.734  2.8980  1.8975 -0.0982
   95SAPS  C214 9407   3.467   6.341   7.898 -0.0952 -0.8395  0.1437
   95SAPS  H14R 9408   3.554   6.405   7.879 -1.3317  0.9925  0.3865
   95SAPS  C215 9409   3.446   6.293   8.024 -0.4830  0.8885  0.5004
   95SAPS  H15R 9410   3.495   6.341   8.110 -1.1237  1.0995  0.7569
   95SAPS  C216 9411   3.351   6.189   8.067 -1.1970  0.6968 -0.8925
   95SAPS  H16R 9412   3.408   6.104   8.111 -1.1659 -0.7877 -3.5740
   95SAPS  H16S 9413   3.291   6.134   7.991 -0.5391  0.0032 -0.9337
   95SAPS  C217 9414   3.253   6.239   8.175 -0.0161 -0.2071 -0.0587
   95SAPS  H17R 9415   3.171   6.164   8.185  0.9089 -1.4902 -1.6160
   95SAPS  H17S 9416   3.206   6.325   8.123  0.6379  1.1052  1.4336
   95SAPS  C218 9417   3.300   6.284   8.314 -0.3569  0.1577 -0.2124
   95SAPS  H18R 9418   3.366   6.373   8.306  0.9331 -0.7422  0.1239
   95SAPS  H18S 9419   3.361   6.197   8.346  0.4456  0.8874  0.2692
   95SAPS  C219 9420   3.188   6.306   8.415  0.1422  0.0103 -0.6573
   95SAPS  H19R 9421   3.135   6.210   8.435 -1.3363  0.8575 -0.3547
   95SAPS  H19S 9422   3.114   6.376   8.371 -1.6129 -0.3399  1.5549
   95SAPS  C220 9423   3.234   6.363   8.545  0.1804  0.3080  0.7781
   95SAPS  H20R 9424   3.307   6.293   8.591 -1.5188 -0.7827  1.9178
   95SAPS  H20S 9425   3.153   6.376   8.620 -0.5632 -1.6093  0.3680
   95SAPS  H20T 9426   3.287   6.460   8.533 -1.3047  0.9726 -0.8285
   95SAPS   C33 9427   3.294   6.001   7.067  0.5656  0.1968  0.4347
   95SAPS   H3X 9428   3.394   6.050   7.072  2.0743 -2.6026 -0.1217
   95SAPS   H3Y 9429   3.315   5.893   7.055 -0.1817  0.0602  0.3292
   95SAPS   C34 9430   3.224   6.018   7.205 -0.2482 -0.5677  0.7752
   95SAPS   H4X 9431   3.128   5.964   7.191 -0.2754 -0.1516 -0.7700
   95SAPS   H4Y 9432   3.181   6.119   7.222 -0.3561  0.2106 -3.1520
   95SAPS   C35 9433   3.299   5.974   7.330 -0.5177  0.5890  0.2101
   95SAPS   H5X 9434   3.380   6.048   7.347  1.1046 -0.8728 -0.7723
   95SAPS   H5Y 9435   3.344   5.873   7.316 -0.6328  0.6281 -0.4672
   95SAPS   C36 9436   3.200   5.958   7.450  0.1593 -0.0952  0.6342
   95SAPS   H6X 9437   3.112   5.899   7.417  0.8867 -0.0988 -1.4576
   95SAPS   H6Y 9438   3.158   6.060   7.466 -1.0802  0.2652 -3.5024
   95SAPS   C37 9439   3.274   5.905   7.573 -0.5669  1.0585  0.0088
   95SAPS   H7X 9440   3.371   5.958   7.586 -1.7719  3.2289  0.8008
   95SAPS   H7Y 9441   3.296   5.800   7.546  3.4069  1.4500  1.0364
   95SAPS   C38 9442   3.203   5.900   7.718  0.3684 -0.0759  0.6092
   95SAPS   H8X 9443   3.111   5.838   7.710 -1.1171  1.7584  2.4811
   95SAPS   H8Y 9444   3.179   6.001   7.758  1.7252  0.4907  0.0644
   95SAPS   C39 9445   3.291   5.823   7.818 -0.3265  0.3236 -0.1271
   95SAPS   H9X 9446   3.383   5.885   7.830 -1.3766  1.7218  0.9934
   95SAPS   H9Y 9447   3.319   5.726   7.773 -0.4118 -0.5152  1.5510
   95SAPS  C310 9448   3.227   5.808   7.957 -0.1336 -0.1366 -0.4280
   95SAPS  H10X 9449   3.137   5.743   7.956  0.1750 -0.6256  1.0292
   95SAPS  H10Y 9450   3.202   5.905   8.006 -1.9098 -0.9104  0.2985
   95SAPS  C311 9451   3.319   5.730   8.050  0.4901  0.3347  0.0763
   95SAPS  H11X 9452   3.425   5.760   8.041  0.4738  0.4561  0.2757
   95SAPS  H11Y 9453   3.317   5.623   8.019 -1.9298 -0.3553  2.2473
   95SAPS  C312 9454   3.267   5.745   8.192  0.2152  0.4393 -0.0673
   95SAPS  H12X 9455   3.326   5.675   8.256 -0.1647  0.9759  0.8969
   95SAPS  H12Y 9456   3.164   5.703   8.188  1.1109 -1.8794 -0.1235
   95SAPS  C313 9457   3.290   5.885   8.242  0.0824 -1.7176 -0.6793
   95SAPS  H13X 9458   3.230   5.965   8.193  0.2877  1.5191  3.7337
   95SAPS  H13Y 9459   3.396   5.914   8.223 -0.7184  0.3664 -2.3910
   95SAPS  C314 9460   3.255   5.901   8.392 -0.5461  0.0469 -0.3028
   95SAPS  H14X 9461   3.302   5.997   8.421  0.8605 -1.3034  2.1713
   95SAPS  H14Y 9462   3.309   5.818   8.442  0.6882 -0.0826 -1.7562
   95SAPS  C315 9463   3.111   5.913   8.426  0.4897  0.3529 -0.0991
   95SAPS  H15X 9464   3.054   5.823   8.397  1.3218  0.0944 -0.9691
   95SAPS  H15Y 9465   3.056   5.994   8.373  0.3733  0.3356 -0.0051
   95SAPS  C316 9466   3.086   5.955   8.573  0.5404  0.1329 -0.7141
   95SAPS  H16X 9467   3.100   6.065   8.584  0.8572 -0.0267  0.7749
   95SAPS  H16Y 9468   3.163   5.910   8.639  0.6740 -0.1163 -1.0395
   95SAPS  C317 9469   2.949   5.911   8.624  0.4444  0.8021  0.1502
   95SAPS  H17X 9470   2.878   5.969   8.562  1.4899 -0.4617 -2.3998
   95SAPS  H17Y 9471   2.927   5.940   8.729 -1.0557  1.0025 -0.1960
   95SAPS  C318 9472   2.926   5.755   8.629 -0.0144  0.1443  0.2814
   95SAPS  H18X 9473   3.019   5.705   8.664  0.3233 -0.5557 -1.5163
   95SAPS  H18Y 9474   2.895   5.715   8.531  1.5448  1.0380 -0.6214
   95SAPS  H18Z 9475   2.852   5.738   8.710 -2.0143  1.0912 -1.2841
   96SAPS     N 9476   3.547   0.935   6.481 -0.9031  0.2482  0.2802
   96SAPS   HN1 9477   3.456   0.954   6.432 -1.2464 -1.5808  0.1409
   96SAPS   HN2 9478   3.541   0.840   6.522 -0.9853  0.8533  1.7540
   96SAPS   HN3 9479   3.539   0.987   6.571 -4.0371 -2.0877  1.5324
   96SAPS   C12 9480   3.667   0.973   6.393  0.3613 -0.4105 -0.3938
   96SAPS  H12A 9481   3.751   0.975   6.462  1.0011  0.5728 -1.1706
   96SAPS   C13 9482   3.705   0.882   6.279  0.3962 -0.3276 -0.7827
   96SAPS  O13A 9483   3.641   0.777   6.255  0.2176  0.1628 -0.3299
   96SAPS  O13B 9484   3.780   0.926   6.198 -0.5153  0.2486  0.3423
   96SAPS   C11 9485   3.641   1.122   6.339  0.3066 -0.2837 -0.2960
   96SAPS  H11A 9486   3.559   1.109   6.265  0.7829 -1.2026 -0.6865
   96SAPS  H11B 9487   3.731   1.165   6.291 -0.1284  1.6080  0.4859
   96SAPS     P 9488   3.560   1.360   6.417 -0.2007 -0.1097  0.3925
   96SAPS   O13 9489   3.484   1.361   6.287 -0.8293 -0.7127 -0.4613
   96SAPS   O14 9490   3.488   1.416   6.531  0.3463 -0.3722 -0.4444
   96SAPS   O12 9491   3.604   1.210   6.448  0.0988  0.4635 -0.3000
   96SAPS   O11 9492   3.695   1.437   6.396  0.2457 -0.1107 -0.0105
   96SAPS    C1 9493   3.826   1.404   6.446  0.0309 -0.4026 -0.4230
   96SAPS    HA 9494   3.875   1.327   6.382  2.5500  1.3384 -0.7326
   96SAPS    HB 9495   3.879   1.501   6.437 -0.8384  0.3261  1.7734
   96SAPS    C2 9496   3.839   1.355   6.593  0.3800 -0.0923 -0.5240
   96SAPS    HS 9497   3.813   1.248   6.598 -1.7045  0.3672 -0.7220
   96SAPS   O21 9498   3.769   1.437   6.682 -0.7279 -0.0279  0.0689
   96SAPS   C21 9499   3.738   1.370   6.796  0.2022 -0.2497 -0.7884
   96SAPS   O22 9500   3.737   1.253   6.811 -0.3296 -0.0363 -0.1369
   96SAPS   C22 9501   3.699   1.475   6.894 -0.1160  0.0593 -0.3033
   96SAPS   H2R 9502   3.780   1.551   6.902  1.7021 -1.5624 -2.0563
   96SAPS   H2S 9503   3.621   1.534   6.841 -0.2743  1.1019  1.0189
   96SAPS    C3 9504   3.999   1.367   6.634 -0.0780 -0.0528  0.4515
   96SAPS    HX 9505   4.037   1.471   6.632  2.5358 -0.9376 -1.2711
   96SAPS    HY 9506   4.059   1.305   6.564  1.2957  0.6776  0.9571
   96SAPS   O31 9507   4.020   1.317   6.765 -0.0371 -0.1266 -0.2778
   96SAPS   C31 9508   4.016   1.183   6.784 -0.1893 -0.2268 -0.1233
   96SAPS   O32 9509   3.987   1.104   6.697 -0.0515  0.4180 -0.3853
   96SAPS   C32 9510   4.060   1.135   6.925  0.6368 -0.4236 -0.3244
   96SAPS   H2X 9511   4.101   1.038   6.890  0.6004  0.0324 -1.7105
   96SAPS   H2Y 9512   3.966   1.122   6.982 -0.3206 -0.9479 -1.9453
   96SAPS   C23 9513   3.624   1.433   7.025  0.8789  0.5502 -0.3755
   96SAPS   H3R 9514   3.691   1.367   7.084 -0.1691 -0.8508 -0.7118
   96SAPS   H3S 9515   3.529   1.379   7.005  0.9780 -0.1298  0.8666
   96SAPS   C24 9516   3.586   1.560   7.105 -0.6790 -0.2458  0.7780
   96SAPS   H4R 9517   3.521   1.523   7.188  0.2721 -0.2887  1.5125
   96SAPS   H4S 9518   3.528   1.636   7.048  1.8740  0.7901 -0.5983
   96SAPS   C25 9519   3.706   1.644   7.156  0.4812  0.2830 -0.0126
   96SAPS   H5R 9520   3.745   1.715   7.082  0.2032 -2.0384 -2.5367
   96SAPS   C26 9521   3.780   1.621   7.261  0.0462  1.0164 -0.2433
   96SAPS   H6R 9522   3.855   1.698   7.283  2.0622 -0.8158 -0.4038
   96SAPS   C27 9523   3.765   1.504   7.361  0.5494  1.2322  0.4602
   96SAPS   H7R 9524   3.865   1.472   7.398  0.2988  1.7460  1.6055
   96SAPS   H7S 9525   3.730   1.414   7.305 -0.6417  1.6120  0.5742
   96SAPS   C28 9526   3.665   1.504   7.476  0.3832  0.3086  0.1222
   96SAPS   H8R 9527   3.564   1.472   7.448 -0.1943  3.1192 -1.3169
   96SAPS   C29 9528   3.685   1.533   7.599 -0.6989 -0.3337 -0.9121
   96SAPS   H9R 9529   3.604   1.524   7.673 -1.4002 -3.5733 -1.8839
   96SAPS  C210 9530   3.815   1.579   7.669  0.3876  0.2252 -0.3603
   96SAPS  H10R 9531   3.890   1.608   7.593 -1.1978  2.1448 -1.2839
   96SAPS  H10S 9532   3.864   1.506   7.737 -1.0350  2.0001  2.8357
   96SAPS  C211 9533   3.800   1.717   7.727 -0.0678 -0.0313 -0.3426
   96SAPS  H11R 9534   3.826   1.802   7.662 -1.1041  1.0564  0.6076
   96SAPS  C212 9535   3.755   1.739   7.857  0.9787  0.5287  0.3182
   96SAPS  H12R 9536   3.741   1.842   7.890 -0.0020  0.8187 -0.9191
   96SAPS  C213 9537   3.701   1.625   7.944  0.2784 -0.5134 -0.4074
   96SAPS  H13R 9538   3.627   1.567   7.884  1.1921 -2.1815  0.0080
   96SAPS  H13S 9539   3.650   1.676   8.029 -1.3351 -1.4755 -0.7538
   96SAPS  C214 9540   3.800   1.531   8.010 -0.1913 -0.2656 -0.2336
   96SAPS  H14R 9541   3.905   1.553   7.985  0.8442 -2.1168  2.1660
   96SAPS  C215 9542   3.777   1.434   8.094  0.9617  1.2614  0.2738
   96SAPS  H15R 9543   3.859   1.369   8.128 -0.7153 -2.9364 -2.8479
   96SAPS  C216 9544   3.638   1.393   8.150  0.3136  0.0163  0.2261
   96SAPS  H16R 9545   3.621   1.283   8.147  1.7521 -0.2251 -0.0354
   96SAPS  H16S 9546   3.562   1.438   8.083  0.5900 -1.1062 -0.8864
   96SAPS  C217 9547   3.607   1.431   8.298  0.4292  0.3868  0.0321
   96SAPS  H17R 9548   3.515   1.375   8.323  0.3947  0.5053  0.1702
   96SAPS  H17S 9549   3.590   1.539   8.317 -2.3053 -0.0591  0.4931
   96SAPS  C218 9550   3.719   1.385   8.398  0.4627  0.0228 -0.2534
   96SAPS  H18R 9551   3.816   1.381   8.344  0.3407  0.4700 -0.5078
   96SAPS  H18S 9552   3.689   1.283   8.433 -1.8131  1.0781  1.1277
   96SAPS  C219 9553   3.734   1.475   8.524 -0.3672 -0.2607  0.1146
   96SAPS  H19R 9554   3.733   1.578   8.480  1.1644  0.2518  1.2104
   96SAPS  H19S 9555   3.828   1.445   8.575 -0.9376 -0.1525  1.2669
   96SAPS  C220 9556   3.618   1.446   8.623 -0.3879  0.0528 -0.6276
   96SAPS  H20R 9557   3.517   1.465   8.580 -1.5632 -3.0703  0.4905
   96SAPS  H20S 9558   3.630   1.492   8.723 -1.4331  0.0096 -0.4780
   96SAPS  H20T 9559   3.631   1.337   8.638  1.7990  0.3631  0.1069
   96SAPS   C33 9560   4.174   1.217   6.995 -0.2035 -0.5393  0.1556
   96SAPS   H3X 9561   4.249   1.256   6.923 -1.2791 -0.3899 -0.9250
   96SAPS   H3Y 9562   4.223   1.149   7.068  0.2305  0.3097  0.6769
   96SAPS   C34 9563   4.133   1.328   7.092  0.2369  0.4298 -0.1122
   96SAPS   H4X 9564   4.074   1.406   7.040  1.4186  1.6993  0.3942
   96SAPS   H4Y 9565   4.232   1.376   7.111  0.5381 -0.1899 -0.0909
   96SAPS   C35 9566   4.073   1.277   7.224 -0.4501  0.5804 -0.6241
   96SAPS   H5X 9567   4.023   1.179   7.212  1.7376 -0.3537 -2.8613
   96SAPS   H5Y 9568   3.988   1.344   7.249 -1.1928  0.0272 -1.6154
   96SAPS   C36 9569   4.179   1.284   7.335  0.9226 -0.2001  0.4163
   96SAPS   H6X 9570   4.224   1.385   7.332 -1.8471  1.1094 -0.6283
   96SAPS   H6Y 9571   4.260   1.209   7.330  0.7857 -0.3988  1.0703
   96SAPS   C37 9572   4.123   1.272   7.478  0.0591 -0.7384  0.1769
   96SAPS   H7X 9573   4.081   1.169   7.481  1.7357 -1.4340  0.4211
   96SAPS   H7Y 9574   4.039   1.346   7.477  1.3794  0.8220 -0.3410
   96SAPS   C38 9575   4.219   1.292   7.589 -0.8410  0.1441  0.0865
   96SAPS   H8X 9576   4.267   1.389   7.566  1.6565 -1.0354 -0.1017
   96SAPS   H8Y 9577   4.298   1.214   7.580 -1.3674 -0.3560 -0.2753
   96SAPS   C39 9578   4.146   1.275   7.723 -0.2275  0.0766  0.0853
   96SAPS   H9X 9579   4.080   1.362   7.741 -0.0267  0.2359  0.0561
   96SAPS   H9Y 9580   4.224   1.296   7.799  0.8963 -1.2917 -0.6351
   96SAPS  C310 9581   4.101   1.135   7.756 -0.2251  0.1101 -0.2948
   96SAPS  H10X 9582   4.188   1.065   7.746 -2.0631 -2.3858  0.1595
   96SAPS  H10Y 9583   4.015   1.095   7.698  0.4575  1.2092 -2.1437
   96SAPS  C311 9584   4.062   1.104   7.906 -0.7640 -0.1650 -0.5096
   96SAPS  H11X 9585   4.016   1.003   7.901 -0.5219 -0.3402  0.6614
   96SAPS  H11Y 9586   3.982   1.172   7.942 -0.5354 -0.3561  0.3757
   96SAPS  C312 9587   4.170   1.119   8.009  0.4506 -0.4400  0.0653
   96SAPS  H12X 9588   4.222   1.218   8.013  0.4477 -0.2112 -3.3259
   96SAPS  H12Y 9589   4.249   1.041   8.006  2.4411  1.2786  2.7516
   96SAPS  C313 9590   4.101   1.099   8.148  0.1537 -0.1712  0.3470
   96SAPS  H13X 9591   4.068   0.993   8.160 -0.0621 -0.0708  0.6490
   96SAPS  H13Y 9592   4.009   1.160   8.159  0.0585 -0.3563  0.5699
   96SAPS  C314 9593   4.197   1.129   8.259 -0.9394 -0.3220  0.7204
   96SAPS  H14X 9594   4.223   1.236   8.242  0.7406 -0.6288  1.1991
   96SAPS  H14Y 9595   4.281   1.064   8.228  0.6971  1.8142  0.3974
   96SAPS  C315 9596   4.135   1.085   8.391 -0.5799  0.6485  0.1645
   96SAPS  H15X 9597   4.105   0.978   8.383  1.4681  0.1767 -2.4126
   96SAPS  H15Y 9598   4.037   1.133   8.413 -0.7285  1.3047 -1.7550
   96SAPS  C316 9599   4.230   1.093   8.509  0.0958 -1.2401  0.0140
   96SAPS  H16X 9600   4.296   1.182   8.514  0.4542 -1.5120  0.2147
   96SAPS  H16Y 9601   4.297   1.006   8.525 -1.0551 -1.9073  1.4639
   96SAPS  C317 9602   4.141   1.102   8.636  0.9277  0.7672  0.5254
   96SAPS  H17X 9603   4.059   1.029   8.645  1.3921  0.2414  0.5614
   96SAPS  H17Y 9604   4.100   1.205   8.628 -1.2375 -0.0199  0.9513
   96SAPS  C318 9605   4.216   1.080   8.767 -0.6160  0.0752 -0.2035
   96SAPS  H18X 9606   4.146   1.101   8.851  0.5458  1.3356  0.4932
   96SAPS  H18Y 9607   4.302   1.145   8.794 -1.5663  1.1699  0.3324
   96SAPS  H18Z 9608   4.244   0.973   8.776  0.8205  0.4085 -0.5704
   97SAPS     N 9609   4.502   6.313   6.526  0.0180 -0.0991 -0.1826
   97SAPS   HN1 9610   4.402   6.323   6.500  0.3799 -1.0206 -2.0261
   97SAPS   HN2 9611   4.525   6.218   6.560 -0.9872 -0.3453 -0.1550
   97SAPS   HN3 9612   4.521   6.377   6.606  1.4288  1.9214 -1.9993
   97SAPS   C12 9613   4.585   6.382   6.415  0.7959  0.4634  0.1084
   97SAPS  H12A 9614   4.558   6.339   6.320  1.7051 -1.9781  0.8660
   97SAPS   C13 9615   4.555   6.534   6.403 -0.2433 -0.0658  0.5965
   97SAPS  O13A 9616   4.467   6.583   6.478  0.5608 -0.1122  0.2509
   97SAPS  O13B 9617   4.639   6.603   6.342  0.3100  0.0140 -0.0447
   97SAPS   C11 9618   4.735   6.363   6.442  0.4754 -0.2077  0.5167
   97SAPS  H11A 9619   4.771   6.433   6.520  1.4112  1.1966 -1.1025
   97SAPS  H11B 9620   4.796   6.394   6.354 -0.1227  0.6145  0.3786
   97SAPS     P 9621   4.934   6.195   6.484  0.2671 -0.1798  0.7292
   97SAPS   O13 9622   4.950   6.051   6.498 -0.4174 -0.2791  0.0267
   97SAPS   O14 9623   4.996   6.258   6.361  0.2197  0.0719  0.0905
   97SAPS   O12 9624   4.773   6.229   6.472  0.5158 -0.3019 -0.2007
   97SAPS   O11 9625   4.979   6.275   6.618  1.3200 -0.3449  0.2558
   97SAPS    C1 9626   4.909   6.259   6.745 -0.1778 -0.4078 -0.9231
   97SAPS    HA 9627   4.874   6.358   6.782  3.2715  0.4161  0.5531
   97SAPS    HB 9628   4.832   6.179   6.742  0.8427 -1.4188 -0.6600
   97SAPS    C2 9629   5.019   6.210   6.850 -0.6551  0.7165  0.1905
   97SAPS    HS 9630   5.113   6.260   6.819  1.0175 -2.2211  0.1786
   97SAPS   O21 9631   5.028   6.064   6.843  0.2001 -0.0602  0.3974
   97SAPS   C21 9632   5.144   6.023   6.845 -0.2989 -0.2566  0.5343
   97SAPS   O22 9633   5.246   6.089   6.844 -0.0716  0.3915 -0.0460
   97SAPS   C22 9634   5.132   5.867   6.849  0.1608 -0.4734  0.2531
   97SAPS   H2R 9635   5.116   5.836   6.743 -0.0545  0.5048 -0.0101
   97SAPS   H2S 9636   5.232   5.824   6.873  1.3103  1.4326 -0.8830
   97SAPS    C3 9637   4.973   6.239   6.994  0.0254 -0.1143 -0.1396
   97SAPS    HX 9638   4.877   6.185   7.007  0.4948 -1.0336 -0.3333
   97SAPS    HY 9639   4.951   6.343   7.024 -3.3638 -1.2027  1.6717
   97SAPS   O31 9640   5.075   6.173   7.081  0.1816  0.2062  0.6562
   97SAPS   C31 9641   5.164   6.251   7.126  0.3892 -0.5128 -0.8023
   97SAPS   O32 9642   5.166   6.376   7.114  0.1498  0.3692 -0.2556
   97SAPS   C32 9643   5.271   6.173   7.195 -0.1604  0.4298  0.0368
   97SAPS   H2X 9644   5.332   6.126   7.115 -1.2182  0.5014 -0.8330
   97SAPS   H2Y 9645   5.229   6.093   7.259  0.1252  0.4424  0.2464
   97SAPS   C23 9646   5.028   5.822   6.951  0.2867 -0.3053  0.6366
   97SAPS   H3R 9647   4.992   5.719   6.931  0.5763 -0.1537 -0.7519
   97SAPS   H3S 9648   4.941   5.891   6.941  0.7482  0.0285 -1.5983
   97SAPS   C24 9649   5.085   5.839   7.088  0.3010 -0.1566 -0.3652
   97SAPS   H4R 9650   5.130   5.941   7.088 -2.0871  1.0070  1.2617
   97SAPS   H4S 9651   5.168   5.766   7.099  0.3924  0.0733  0.6311
   97SAPS   C25 9652   4.985   5.838   7.203 -1.0467  0.5379  0.7923
   97SAPS   H5R 9653   4.882   5.865   7.176 -0.6496  0.6303 -0.7402
   97SAPS   C26 9654   5.006   5.803   7.329 -0.0182  0.8316 -0.1856
   97SAPS   H6R 9655   4.922   5.806   7.399  0.0882 -3.0596  0.3028
   97SAPS   C27 9656   5.141   5.751   7.393 -0.5396  0.1893  0.4967
   97SAPS   H7R 9657   5.167   5.656   7.342  0.5639  1.0841 -0.6449
   97SAPS   H7S 9658   5.127   5.721   7.499  3.8115 -1.7914  0.7141
   97SAPS   C28 9659   5.267   5.834   7.391 -0.1778  0.9285 -0.0712
   97SAPS   H8R 9660   5.294   5.872   7.292 -1.1323  3.2538  0.4823
   97SAPS   C29 9661   5.356   5.852   7.495  0.0813  0.0468 -0.4076
   97SAPS   H9R 9662   5.441   5.920   7.475  1.0748 -1.1050 -0.2403
   97SAPS  C210 9663   5.349   5.788   7.629 -0.9733  0.5501  0.0375
   97SAPS  H10R 9664   5.451   5.768   7.668 -1.9736 -0.1306  2.5068
   97SAPS  H10S 9665   5.314   5.683   7.630 -1.3097  0.6416  1.7992
   97SAPS  C211 9666   5.261   5.846   7.737 -1.0008 -0.1253  0.0709
   97SAPS  H11R 9667   5.185   5.913   7.695 -1.7619 -1.9411 -1.6175
   97SAPS  C212 9668   5.268   5.828   7.871 -0.7585  0.2197  0.1973
   97SAPS  H12R 9669   5.191   5.877   7.933  1.3601  1.7947  1.7075
   97SAPS  C213 9670   5.367   5.735   7.935  0.4714 -0.1640  0.2638
   97SAPS  H13R 9671   5.408   5.668   7.857  0.8356  1.9855 -1.4733
   97SAPS  H13S 9672   5.305   5.671   8.002 -1.3994 -1.3028 -2.3687
   97SAPS  C214 9673   5.473   5.811   8.009  0.2097  0.7806 -0.9635
   97SAPS  H14R 9674   5.503   5.910   7.971  1.3261  1.1879  0.8452
   97SAPS  C215 9675   5.526   5.769   8.127 -0.0974 -0.6634  0.1444
   97SAPS  H15R 9676   5.595   5.832   8.185 -0.5594 -0.5808  0.6135
   97SAPS  C216 9677   5.499   5.635   8.193  0.2799  0.2924  0.2081
   97SAPS  H16R 9678   5.587   5.599   8.250  1.2350  1.6209 -0.3701
   97SAPS  H16S 9679   5.472   5.560   8.115  2.1473 -0.3557  0.1390
   97SAPS  C217 9680   5.378   5.639   8.293 -0.2921 -0.2694  0.7432
   97SAPS  H17R 9681   5.352   5.539   8.333 -2.9946  0.4353  0.9415
   97SAPS  H17S 9682   5.291   5.678   8.237  0.4257 -0.4023 -0.4989
   97SAPS  C218 9683   5.411   5.737   8.404  0.1715 -0.5628 -0.5138
   97SAPS  H18R 9684   5.430   5.833   8.352  0.8317 -0.4049  0.0037
   97SAPS  H18S 9685   5.501   5.712   8.465  0.4220 -1.5756 -1.2689
   97SAPS  C219 9686   5.293   5.766   8.493 -0.1850 -0.4225  0.0147
   97SAPS  H19R 9687   5.215   5.809   8.427  0.9768 -0.2866 -1.3109
   97SAPS  H19S 9688   5.313   5.851   8.562  0.7484  0.1099 -0.8753
   97SAPS  C220 9689   5.237   5.661   8.590 -0.2221  0.3625 -0.0110
   97SAPS  H20R 9690   5.196   5.583   8.523 -0.2704  1.2812 -1.0920
   97SAPS  H20S 9691   5.155   5.699   8.655  1.0178  2.9624  0.1977
   97SAPS  H20T 9692   5.312   5.618   8.659  1.1218 -1.1483 -2.2866
   97SAPS   C33 9693   5.362   6.263   7.271  0.2844  0.5806  0.8490
   97SAPS   H3X 9694   5.314   6.324   7.350  0.4069  2.5832 -0.5485
   97SAPS   H3Y 9695   5.399   6.337   7.196  4.5127 -1.5504  0.5484
   97SAPS   C34 9696   5.488   6.195   7.320  0.1363  0.1503 -1.1481
   97SAPS   H4X 9697   5.548   6.144   7.241  1.1554 -1.3932  0.5452
   97SAPS   H4Y 9698   5.449   6.116   7.388 -0.2272  0.9421 -0.4268
   97SAPS   C35 9699   5.575   6.276   7.414  0.3102 -0.6653  0.1390
   97SAPS   H5X 9700   5.573   6.384   7.386  1.1694 -0.2362  1.6064
   97SAPS   H5Y 9701   5.682   6.245   7.415 -0.0118 -1.8513  1.5319
   97SAPS   C36 9702   5.542   6.266   7.570 -0.1446  0.1034  0.3618
   97SAPS   H6X 9703   5.432   6.282   7.579 -0.1783 -0.2920  0.7189
   97SAPS   H6Y 9704   5.594   6.348   7.623 -0.2759  0.5914 -0.2482
   97SAPS   C37 9705   5.584   6.132   7.639  0.2230 -0.8959  0.2423
   97SAPS   H7X 9706   5.694   6.142   7.650  0.1060  2.1816 -0.3778
   97SAPS   H7Y 9707   5.557   6.046   7.575  0.5749  0.3168 -1.6018
   97SAPS   C38 9708   5.520   6.105   7.779 -0.1333  0.0179  0.3054
   97SAPS   H8X 9709   5.555   6.011   7.827 -0.3073  0.3476  1.0942
   97SAPS   H8Y 9710   5.410   6.094   7.777 -0.2838 -0.2417  3.8944
   97SAPS   C39 9711   5.552   6.222   7.873 -0.0801  0.1336 -0.3418
   97SAPS   H9X 9712   5.496   6.309   7.833 -1.7225 -1.0537 -0.7410
   97SAPS   H9Y 9713   5.662   6.242   7.878  0.3803 -1.9827 -0.9766
   97SAPS  C310 9714   5.498   6.202   8.014 -0.7592  0.3256 -0.6903
   97SAPS  H10X 9715   5.539   6.282   8.079  1.9373 -1.3113 -0.2505
   97SAPS  H10Y 9716   5.545   6.109   8.051 -1.4056 -0.5942 -2.0676
   97SAPS  C311 9717   5.348   6.184   8.023  0.8123  0.2090  0.3409
   97SAPS  H11X 9718   5.314   6.098   7.961 -1.9219  1.5071 -0.1254
   97SAPS  H11Y 9719   5.293   6.271   7.979 -3.4831 -0.0252  4.4389
   97SAPS  C312 9720   5.288   6.154   8.162  0.6984  0.5702  0.3454
   97SAPS  H12X 9721   5.327   6.057   8.199 -0.9746  0.1258  1.0419
   97SAPS  H12Y 9722   5.179   6.133   8.152  1.2821 -2.7767 -0.0447
   97SAPS  C313 9723   5.328   6.250   8.274  0.0176  0.3227  1.2285
   97SAPS  H13X 9724   5.287   6.351   8.253  0.9988  0.3909 -0.5787
   97SAPS  H13Y 9725   5.438   6.260   8.263  0.0730 -1.9242 -1.0478
   97SAPS  C314 9726   5.278   6.209   8.414  0.4438  0.5421 -0.7608
   97SAPS  H14X 9727   5.342   6.128   8.455 -1.2971 -0.9233 -0.7922
   97SAPS  H14Y 9728   5.173   6.172   8.413 -0.8976  3.8471 -3.2280
   97SAPS  C315 9729   5.292   6.323   8.518  0.3529 -0.8995  0.0576
   97SAPS  H15X 9730   5.239   6.413   8.480  0.5560 -0.7534  0.1160
   97SAPS  H15Y 9731   5.397   6.358   8.522  0.0973  0.0060 -0.6878
   97SAPS  C316 9732   5.233   6.300   8.653  0.4178  0.8153 -0.1068
   97SAPS  H16X 9733   5.272   6.208   8.702 -1.3266  0.3511  0.4730
   97SAPS  H16Y 9734   5.123   6.287   8.644  0.1816  1.4524  1.5837
   97SAPS  C317 9735   5.254   6.412   8.758 -0.1183 -0.0626 -0.0912
   97SAPS  H17X 9736   5.212   6.370   8.851 -0.0297 -3.0613 -1.3070
   97SAPS  H17Y 9737   5.193   6.502   8.734  0.6804  0.5882  0.2513
   97SAPS  C318 9738   5.407   6.439   8.777 -0.1916  0.0642 -0.3603
   97SAPS  H18X 9739   5.418   6.529   8.712  0.6493  1.1114  1.1832
   97SAPS  H18Y 9740   5.466   6.351   8.745  2.7439  1.0781  1.8241
   97SAPS  H18Z 9741   5.434   6.465   8.881  0.3664  0.1637 -0.5250
   98SAPS     N 9742   2.263   6.342   6.128 -0.0148  0.0244 -0.2505
   98SAPS   HN1 9743   2.222   6.404   6.200 -0.6460 -0.6725  0.0060
   98SAPS   HN2 9744   2.223   6.370   6.037  1.6122  2.0786 -0.4011
   98SAPS   HN3 9745   2.225   6.249   6.156  1.8585 -0.7091  0.0165
   98SAPS   C12 9746   2.412   6.337   6.116  0.1952 -0.2836 -0.0328
   98SAPS  H12A 9747   2.423   6.301   6.014 -2.0251 -5.7845  1.3123
   98SAPS   C13 9748   2.489   6.474   6.141  0.2205  0.2056 -0.3244
   98SAPS  O13A 9749   2.417   6.574   6.124  0.2631  0.3500 -0.2457
   98SAPS  O13B 9750   2.616   6.489   6.139 -0.2410  0.9206  0.9622
   98SAPS   C11 9751   2.464   6.224   6.211  0.8599  0.2914 -0.4784
   98SAPS  H11A 9752   2.433   6.251   6.314 -1.8012  0.1237 -1.1652
   98SAPS  H11B 9753   2.575   6.221   6.217  0.8306  0.5510  0.3391
   98SAPS     P 9754   2.329   5.999   6.245  0.3578 -0.0505 -0.2451
   98SAPS   O13 9755   2.205   6.089   6.241  0.2313 -0.0721 -0.1757
   98SAPS   O14 9756   2.321   5.864   6.185  0.1136 -0.3523 -0.1550
   98SAPS   O12 9757   2.438   6.089   6.175 -0.6172  0.3344 -0.1980
   98SAPS   O11 9758   2.384   5.987   6.391 -0.0221  0.3117  0.4974
   98SAPS    C1 9759   2.525   5.949   6.390  0.0385 -0.2496 -0.5413
   98SAPS    HA 9760   2.559   5.892   6.301 -0.7366  0.0940 -1.0619
   98SAPS    HB 9761   2.584   6.043   6.386  0.5895 -0.5957 -0.6843
   98SAPS    C2 9762   2.581   5.886   6.524 -0.4129 -0.4735  0.4424
   98SAPS    HS 9763   2.563   5.777   6.512  0.9488 -0.5725 -0.9111
   98SAPS   O21 9764   2.500   5.945   6.629 -0.2179  0.0740  0.1441
   98SAPS   C21 9765   2.466   5.865   6.728  0.5544  0.1707  0.6452
   98SAPS   O22 9766   2.506   5.752   6.742 -0.0618  0.2359 -0.1692
   98SAPS   C22 9767   2.386   5.948   6.832  0.2546  0.3401  0.1873
   98SAPS   H2R 9768   2.423   6.053   6.838  0.1636  0.3825 -0.0015
   98SAPS   H2S 9769   2.284   5.958   6.791  0.7571 -0.3786 -1.2920
   98SAPS    C3 9770   2.735   5.898   6.557  1.3675  0.2065  0.1463
   98SAPS    HX 9771   2.801   5.858   6.476  0.4899 -2.9790  0.8569
   98SAPS    HY 9772   2.755   5.828   6.641  1.4780  1.3675  1.1013
   98SAPS   O31 9773   2.774   6.037   6.582  0.0580 -0.5873 -0.1219
   98SAPS   C31 9774   2.863   6.055   6.676 -0.1073 -0.4789  0.0136
   98SAPS   O32 9775   2.926   5.971   6.738  0.1979  0.0861 -0.6130
   98SAPS   C32 9776   2.858   6.199   6.718 -0.1326  0.1516 -0.3197
   98SAPS   H2X 9777   2.835   6.263   6.631 -1.0723 -0.1668 -0.3228
   98SAPS   H2Y 9778   2.958   6.231   6.755  0.9853  0.6413 -3.4924
   98SAPS   C23 9779   2.384   5.876   6.966  0.1367 -0.6113  0.6066
   98SAPS   H3R 9780   2.491   5.859   6.991 -0.0663 -2.2079  0.5155
   98SAPS   H3S 9781   2.326   5.781   6.961 -2.2545  0.6040  3.0730
   98SAPS   C24 9782   2.312   5.946   7.086 -0.2457 -0.4399  0.8452
   98SAPS   H4R 9783   2.345   5.884   7.173  2.6907 -0.6280 -0.2829
   98SAPS   H4S 9784   2.202   5.959   7.075 -0.0348 -0.9460 -3.8181
   98SAPS   C25 9785   2.364   6.087   7.087  0.5988 -0.0893  0.8723
   98SAPS   H5R 9786   2.309   6.160   7.026  3.1782  0.5391 -0.8350
   98SAPS   C26 9787   2.461   6.131   7.164  0.1125  0.0603 -0.3596
   98SAPS   H6R 9788   2.464   6.241   7.166 -0.3769  0.0826 -0.6133
   98SAPS   C27 9789   2.549   6.054   7.262  0.2147 -0.3157  0.0101
   98SAPS   H7R 9790   2.657   6.054   7.236  0.8775  2.1069  2.3617
   98SAPS   H7S 9791   2.517   5.948   7.269  1.1262 -0.6935 -1.1591
   98SAPS   C28 9792   2.533   6.126   7.390 -0.6125 -0.0733 -0.1588
   98SAPS   H8R 9793   2.578   6.225   7.409  2.1937 -1.2583 -0.0723
   98SAPS   C29 9794   2.457   6.081   7.489  0.8626  0.1493 -1.0903
   98SAPS   H9R 9795   2.449   6.139   7.582  2.4801 -0.2435 -0.6784
   98SAPS  C210 9796   2.358   5.958   7.485  0.5087  0.5095 -0.4514
   98SAPS  H10R 9797   2.408   5.875   7.539  0.7318  1.0919  0.2613
   98SAPS  H10S 9798   2.354   5.913   7.383  0.5967 -0.2556 -0.1243
   98SAPS  C211 9799   2.219   6.006   7.521  0.4444 -0.5906 -0.2845
   98SAPS  H11R 9800   2.163   6.055   7.441  1.9142  1.4921 -0.1213
   98SAPS  C212 9801   2.148   5.985   7.638 -0.6533 -0.2887  1.0397
   98SAPS  H12R 9802   2.041   6.005   7.623 -1.2233 -2.4587  1.8605
   98SAPS  C213 9803   2.195   5.915   7.764 -0.3249  0.4200 -0.2883
   98SAPS  H13R 9804   2.306   5.903   7.761 -0.4030 -0.5497  0.3485
   98SAPS  H13S 9805   2.150   5.814   7.779 -2.4939  1.6200  2.0740
   98SAPS  C214 9806   2.172   6.000   7.889 -0.1587  0.5766  0.1293
   98SAPS  H14R 9807   2.188   6.107   7.866  1.0687  0.7269  1.5341
   98SAPS  C215 9808   2.129   5.960   8.009  0.2521 -0.5030 -0.6620
   98SAPS  H15R 9809   2.116   6.038   8.086  1.4826  0.6870 -1.6009
   98SAPS  C216 9810   2.087   5.821   8.051  0.6336  0.0728  0.2125
   98SAPS  H16R 9811   2.130   5.746   7.982  2.1740 -0.1894  1.3931
   98SAPS  H16S 9812   1.978   5.808   8.035  0.6801 -0.6174  0.4256
   98SAPS  C217 9813   2.101   5.799   8.201  0.5065 -0.3132  1.0303
   98SAPS  H17R 9814   2.076   5.892   8.256  2.2898  0.2418  0.9446
   98SAPS  H17S 9815   2.208   5.781   8.222  0.9687  0.1593 -0.7724
   98SAPS  C218 9816   2.009   5.687   8.254  0.7183  0.3848 -1.5470
   98SAPS  H18R 9817   2.029   5.589   8.205 -1.4579  1.0245 -3.9401
   98SAPS  H18S 9818   1.904   5.718   8.237 -0.1648 -0.0447  2.3209
   98SAPS  C219 9819   2.018   5.675   8.413 -0.0466 -0.2707  0.6975
   98SAPS  H19R 9820   1.950   5.749   8.459 -1.2193  0.2980 -1.7940
   98SAPS  H19S 9821   2.120   5.703   8.449 -0.2107  0.5374  0.5551
   98SAPS  C220 9822   1.972   5.532   8.448 -0.3939  0.1669  0.5940
   98SAPS  H20R 9823   2.042   5.451   8.421  2.0755  1.5725  2.4230
   98SAPS  H20S 9824   1.873   5.506   8.403 -0.2483 -0.8414  0.8375
   98SAPS  H20T 9825   1.957   5.530   8.558 -3.4250  0.8713  0.2991
   98SAPS   C33 9826   2.759   6.230   6.831  0.0615  0.4888  0.5155
   98SAPS   H3X 9827   2.662   6.178   6.821 -1.4912  3.2019  0.6705
   98SAPS   H3Y 9828   2.730   6.335   6.815 -1.5761  0.0951  0.7403
   98SAPS   C34 9829   2.825   6.193   6.966 -0.0332 -0.9551  0.5749
   98SAPS   H4X 9830   2.921   6.140   6.946  1.9627  2.4891  0.2150
   98SAPS   H4Y 9831   2.766   6.126   7.032 -0.1263 -1.6129 -0.1578
   98SAPS   C35 9832   2.858   6.323   7.037  0.3471  0.5334 -0.4224
   98SAPS   H5X 9833   2.761   6.370   7.066 -0.9023 -1.1425 -1.6897
   98SAPS   H5Y 9834   2.924   6.383   6.972  3.5809  1.1027  3.0269
   98SAPS   C36 9835   2.936   6.290   7.165  0.1979  0.7094  0.3891
   98SAPS   H6X 9836   3.041   6.280   7.129  0.2071  1.7562  0.0881
   98SAPS   H6Y 9837   2.890   6.200   7.212 -1.5721  1.3481 -0.0110
   98SAPS   C37 9838   2.949   6.414   7.265 -0.6281  0.5485  0.3129
   98SAPS   H7X 9839   2.842   6.432   7.291 -1.3596 -0.1483 -2.0147
   98SAPS   H7Y 9840   2.984   6.504   7.211 -0.3044 -0.3823 -1.0686
   98SAPS   C38 9841   3.041   6.393   7.388 -0.4761 -0.5183  0.2545
   98SAPS   H8X 9842   3.057   6.494   7.430 -1.5398  0.6661 -2.0309
   98SAPS   H8Y 9843   3.136   6.353   7.345  0.5423  0.9861  1.0286
   98SAPS   C39 9844   2.985   6.314   7.500 -0.0827  0.1306  0.1061
   98SAPS   H9X 9845   2.991   6.205   7.481 -1.1909  0.0050  0.3952
   98SAPS   H9Y 9846   2.882   6.350   7.518  0.2399  0.8883  0.4758
   98SAPS  C310 9847   3.052   6.335   7.632  0.6268  0.3664  0.0617
   98SAPS  H10X 9848   3.054   6.442   7.660  0.2690  0.7609 -1.3362
   98SAPS  H10Y 9849   3.156   6.300   7.616  0.7675  1.1751 -0.8443
   98SAPS  C311 9850   2.993   6.243   7.746  0.0856  0.0556 -0.6722
   98SAPS  H11X 9851   3.045   6.257   7.843 -0.9853 -0.5208  0.0067
   98SAPS  H11Y 9852   3.013   6.136   7.721  2.3932  0.1533  0.4618
   98SAPS  C312 9853   2.844   6.267   7.785 -0.0980  0.4145  0.9291
   98SAPS  H12X 9854   2.783   6.238   7.697  1.8236 -0.9180 -0.0412
   98SAPS  H12Y 9855   2.834   6.378   7.786 -1.1724  0.3627 -0.4271
   98SAPS  C313 9856   2.794   6.202   7.916  0.2619  0.6653 -0.3725
   98SAPS  H13X 9857   2.849   6.106   7.928  1.5940  1.0585 -2.6328
   98SAPS  H13Y 9858   2.686   6.181   7.897  0.4515 -0.6242 -0.1441
   98SAPS  C314 9859   2.829   6.293   8.041 -0.5838 -0.0448 -0.2001
   98SAPS  H14X 9860   2.784   6.394   8.035 -1.2911 -0.1166  2.5279
   98SAPS  H14Y 9861   2.939   6.310   8.038 -0.8678  1.8791 -0.5870
   98SAPS  C315 9862   2.793   6.230   8.173  0.0471  0.1598 -0.4539
   98SAPS  H15X 9863   2.857   6.144   8.202  0.9656  0.3752 -1.7682
   98SAPS  H15Y 9864   2.685   6.204   8.168 -0.5251  1.8333  1.7298
   98SAPS  C316 9865   2.813   6.334   8.288 -0.2924 -0.2115  0.7349
   98SAPS  H16X 9866   2.722   6.393   8.310 -0.7033 -0.5651  0.0105
   98SAPS  H16Y 9867   2.882   6.414   8.255 -0.7878 -0.2609 -0.4593
   98SAPS  C317 9868   2.862   6.283   8.423 -0.2140 -0.6164 -0.1160
   98SAPS  H17X 9869   2.929   6.361   8.466 -0.7473 -0.0772 -0.2561
   98SAPS  H17Y 9870   2.916   6.187   8.410 -0.2339 -0.7389  0.6816
   98SAPS  C318 9871   2.764   6.260   8.539  0.2662  0.6647  0.2395
   98SAPS  H18X 9872   2.716   6.358   8.561 -1.6796  0.1116 -1.2435
   98SAPS  H18Y 9873   2.821   6.216   8.624  2.3172 -0.1376 -1.4817
   98SAPS  H18Z 9874   2.677   6.193   8.522 -0.2189  1.4645 -0.5326
   99SAPS     N 9875   0.632   3.376   5.894 -0.4453  0.2719 -0.0093
   99SAPS   HN1 9876   0.578   3.399   5.808 -2.6326  0.4134  1.3116
   99SAPS   HN2 9877   0.715   3.318   5.871 -0.0643  1.2102 -1.0823
   99SAPS   HN3 9878   0.565   3.320   5.950 -0.0125  0.2440  0.4872
   99SAPS   C12 9879   0.667   3.508   5.969  0.3613  0.7882  0.0330
   99SAPS  H12A 9880   0.745   3.557   5.914  2.3673  0.6685  2.5979
   99SAPS   C13 9881   0.554   3.613   5.975  0.0146  0.0710  0.5325
   99SAPS  O13A 9882   0.431   3.573   5.972  0.4115  0.1136  0.3119
   99SAPS  O13B 9883   0.585   3.734   5.994 -0.5659 -0.4669 -0.1855
   99SAPS   C11 9884   0.700   3.478   6.113  0.2748  0.7830 -0.2872
   99SAPS  H11A 9885   0.608   3.436   6.160 -0.7530  0.9894 -2.0141
   99SAPS  H11B 9886   0.724   3.573   6.163 -0.9454  0.1530  1.6028
   99SAPS     P 9887   0.807   3.273   6.243  0.2714  0.0407 -0.2061
   99SAPS   O13 9888   0.710   3.164   6.206  0.2880  0.0084  0.3649
   99SAPS   O14 9889   0.948   3.224   6.262  0.5389  0.0151  0.0947
   99SAPS   O12 9890   0.803   3.383   6.129  0.5595 -0.0973  0.0470
   99SAPS   O11 9891   0.757   3.343   6.378  0.2457 -0.0202  0.2737
   99SAPS    C1 9892   0.825   3.450   6.440  0.8684 -0.0590 -0.1721
   99SAPS    HA 9893   0.928   3.460   6.399  1.5662 -1.5571  1.1433
   99SAPS    HB 9894   0.773   3.546   6.416 -0.5240 -1.2396 -2.2051
   99SAPS    C2 9895   0.835   3.432   6.599  0.7028 -0.3262  0.2160
   99SAPS    HS 9896   0.884   3.334   6.617  2.0752  0.0807 -1.0998
   99SAPS   O21 9897   0.708   3.457   6.656 -0.5390  0.1755 -0.4085
   99SAPS   C21 9898   0.652   3.361   6.728  0.1888 -0.0506  0.0660
   99SAPS   O22 9899   0.711   3.255   6.749  0.2012 -0.2954 -0.2027
   99SAPS   C22 9900   0.518   3.402   6.786 -0.0041  0.9368 -0.5016
   99SAPS   H2R 9901   0.546   3.496   6.837 -1.0804  1.3158 -0.5817
   99SAPS   H2S 9902   0.448   3.416   6.701 -2.2424  0.7127  1.2144
   99SAPS    C3 9903   0.934   3.526   6.672  0.8381 -0.1614  0.5440
   99SAPS    HX 9904   0.920   3.633   6.648  1.0187 -0.6375 -2.0777
   99SAPS    HY 9905   1.033   3.501   6.627  1.0939  2.6015 -0.6577
   99SAPS   O31 9906   0.928   3.512   6.809  0.0689 -0.0856  0.3905
   99SAPS   C31 9907   0.995   3.406   6.863  0.6817  0.4975 -0.1629
   99SAPS   O32 9908   1.058   3.321   6.795  0.4028  0.4274 -0.2304
   99SAPS   C32 9909   0.981   3.400   7.016  0.1484 -0.5653 -0.0225
   99SAPS   H2X 9910   0.909   3.475   7.056 -0.0492 -0.9246  0.2936
   99SAPS   H2Y 9911   1.081   3.405   7.064  0.1347 -0.1322 -0.0331
   99SAPS   C23 9912   0.454   3.291   6.876 -0.4996  0.2716  0.3458
   99SAPS   H3R 9913   0.543   3.253   6.931  0.3404 -0.4442 -1.4482
   99SAPS   H3S 9914   0.422   3.201   6.819  1.6138 -0.4638  0.2121
   99SAPS   C24 9915   0.350   3.343   6.970  0.9355  0.3583 -0.8067
   99SAPS   H4R 9916   0.316   3.248   7.017  0.2565  1.3890  0.8534
   99SAPS   H4S 9917   0.270   3.392   6.910  1.0477 -1.2506 -2.3601
   99SAPS   C25 9918   0.396   3.444   7.074 -0.1583  0.4426 -0.5428
   99SAPS   H5R 9919   0.416   3.542   7.029 -0.5381  1.6267  1.7449
   99SAPS   C26 9920   0.423   3.429   7.205  0.6646  0.2887  0.5315
   99SAPS   H6R 9921   0.440   3.517   7.268  1.0023 -1.5929  3.2264
   99SAPS   C27 9922   0.412   3.308   7.301 -0.2780  0.0924 -0.1914
   99SAPS   H7R 9923   0.520   3.291   7.323 -0.0406  0.5620 -0.9180
   99SAPS   H7S 9924   0.383   3.214   7.250 -1.9505  1.0473 -1.0798
   99SAPS   C28 9925   0.331   3.336   7.423 -0.5440  0.4941  0.1396
   99SAPS   H8R 9926   0.224   3.345   7.400 -0.0141 -0.2707 -3.0314
   99SAPS   C29 9927   0.373   3.343   7.547 -0.8417  0.7706 -0.3453
   99SAPS   H9R 9928   0.295   3.365   7.621  0.9698  1.0319  1.5927
   99SAPS  C210 9929   0.515   3.335   7.608  0.1091  0.5247  0.2729
   99SAPS  H10R 9930   0.594   3.376   7.543  0.1649  1.8433  1.1375
   99SAPS  H10S 9931   0.543   3.228   7.602 -1.3502  0.2160 -1.9476
   99SAPS  C211 9932   0.525   3.376   7.759 -0.0200 -0.7184  0.0779
   99SAPS  H11R 9933   0.467   3.324   7.837 -1.2687  0.9980  0.3478
   99SAPS  C212 9934   0.596   3.484   7.796  0.5304 -0.3498 -0.8160
   99SAPS  H12R 9935   0.609   3.503   7.903 -0.9098 -1.3910 -0.4224
   99SAPS  C213 9936   0.681   3.572   7.710  0.0869  0.2304  0.9338
   99SAPS  H13R 9937   0.622   3.614   7.625  1.0687 -2.1279 -1.0272
   99SAPS  H13S 9938   0.756   3.506   7.663 -1.0444 -1.3817  1.3191
   99SAPS  C214 9939   0.728   3.701   7.785  0.0722  0.1719  0.5062
   99SAPS  H14R 9940   0.668   3.738   7.869 -0.3599 -1.3685  0.9043
   99SAPS  C215 9941   0.843   3.763   7.768  0.0582  0.6205  0.0583
   99SAPS  H15R 9942   0.862   3.849   7.834  0.1357  1.7110 -1.3385
   99SAPS  C216 9943   0.951   3.723   7.669  0.2096 -0.5885 -0.0771
   99SAPS  H16R 9944   0.939   3.618   7.634  2.5282 -0.3016 -1.9116
   99SAPS  H16S 9945   1.049   3.737   7.720  0.3277  1.3736 -0.7701
   99SAPS  C217 9946   0.940   3.806   7.535 -0.1598  0.0801 -0.8960
   99SAPS  H17R 9947   0.969   3.910   7.562 -2.1869  0.5388 -0.3119
   99SAPS  H17S 9948   0.835   3.824   7.502 -0.5849  0.6349  0.6592
   99SAPS  C218 9949   1.038   3.757   7.430  0.5575  0.0094 -0.4624
   99SAPS  H18R 9950   0.988   3.670   7.382 -0.4035  0.4875 -0.3529
   99SAPS  H18S 9951   1.132   3.726   7.481  0.8241  0.2154 -0.8260
   99SAPS  C219 9952   1.072   3.852   7.316 -0.6032  0.7166  0.1713
   99SAPS  H19R 9953   0.978   3.900   7.280  0.5562  3.4863  0.6353
   99SAPS  H19S 9954   1.123   3.788   7.240  2.3878  0.9094  1.8913
   99SAPS  C220 9955   1.155   3.973   7.347 -0.7332 -0.7716  0.6403
   99SAPS  H20R 9956   1.158   4.027   7.250 -0.7111 -2.5735 -0.3936
   99SAPS  H20S 9957   1.257   3.933   7.364 -0.1867 -0.2570 -1.1854
   99SAPS  H20T 9958   1.112   4.029   7.434  0.7895  1.3952  0.0739
   99SAPS   C33 9959   0.921   3.268   7.065 -0.1760  0.5180 -0.0034
   99SAPS   H3X 9960   0.954   3.185   7.001 -1.7935  0.3359 -0.6630
   99SAPS   H3Y 9961   0.813   3.278   7.040  0.0920  0.2769 -1.2919
   99SAPS   C34 9962   0.954   3.246   7.207 -1.0390 -1.0894  0.4780
   99SAPS   H4X 9963   1.064   3.241   7.223 -1.1392 -0.2545  1.5859
   99SAPS   H4Y 9964   0.900   3.156   7.244 -1.1364 -0.6432  1.4595
   99SAPS   C35 9965   0.902   3.367   7.298 -0.3925 -0.5123  0.9032
   99SAPS   H5X 9966   0.806   3.392   7.247 -1.4844 -1.8225  2.2325
   99SAPS   H5Y 9967   0.970   3.452   7.275 -1.8184  0.8083  1.3955
   99SAPS   C36 9968   0.902   3.353   7.452  0.3084 -0.4908 -0.0209
   99SAPS   H6X 9969   0.853   3.258   7.481  1.2421 -0.4163  1.9398
   99SAPS   H6Y 9970   0.841   3.434   7.499  2.7353  0.7559  1.1647
   99SAPS   C37 9971   1.039   3.354   7.511  0.7694  0.6751 -0.0452
   99SAPS   H7X 9972   1.097   3.449   7.508  2.8338 -0.5692 -1.7560
   99SAPS   H7Y 9973   1.100   3.283   7.453  0.0089 -0.9364  1.0492
   99SAPS   C38 9974   1.048   3.296   7.657  0.0101 -0.0055 -0.0916
   99SAPS   H8X 9975   1.148   3.247   7.660 -1.1306 -2.6622 -1.5238
   99SAPS   H8Y 9976   0.983   3.205   7.660  0.5096 -0.3799 -0.5573
   99SAPS   C39 9977   1.035   3.402   7.767  0.3789  0.0516  0.1698
   99SAPS   H9X 9978   0.936   3.453   7.765  1.3008  1.9096 -0.3662
   99SAPS   H9Y 9979   1.113   3.480   7.756  0.5965 -0.2243 -0.2652
   99SAPS  C310 9980   1.044   3.349   7.911  0.1188 -0.0205 -0.8402
   99SAPS  H10X 9981   1.153   3.336   7.928  0.0977 -0.1448 -0.7949
   99SAPS  H10Y 9982   0.990   3.251   7.915 -0.7316  0.4777  0.2169
   99SAPS  C311 9983   0.975   3.444   8.011 -0.5015  0.1646 -0.0977
   99SAPS  H11X 9984   0.871   3.451   7.973 -0.5085 -0.3329 -0.1698
   99SAPS  H11Y 9985   1.020   3.545   7.998 -1.6128  0.5111 -1.5981
   99SAPS  C312 9986   0.981   3.405   8.158  0.0977  0.1260  0.1609
   99SAPS  H12X 9987   1.081   3.365   8.184 -0.0275 -1.0029 -0.9906
   99SAPS  H12Y 9988   0.908   3.323   8.171  3.0490 -2.8457 -0.6762
   99SAPS  C313 9989   0.950   3.519   8.250  0.1213 -0.0013  0.1587
   99SAPS  H13X 9990   1.001   3.616   8.238 -2.2807  1.2364 -0.7218
   99SAPS  H13Y 9991   0.956   3.473   8.351 -2.4012 -1.6689 -0.3506
   99SAPS  C314 9992   0.799   3.547   8.241 -0.2041  0.8106 -0.1694
   99SAPS  H14X 9993   0.748   3.448   8.244  1.3060  0.0036  1.9674
   99SAPS  H14Y 9994   0.790   3.585   8.137 -1.4026 -0.1037 -0.4287
   99SAPS  C315 9995   0.739   3.646   8.346 -0.0997  0.1995  0.3077
   99SAPS  H15X 9996   0.724   3.576   8.431 -0.5204 -0.9314 -0.6623
   99SAPS  H15Y 9997   0.643   3.686   8.305 -0.0807  1.5255  1.4883
   99SAPS  C316 9998   0.822   3.762   8.390  0.2520  0.2122 -0.1628
   99SAPS  H16X 9999   0.919   3.725   8.428 -0.3747 -0.8375  0.4675
   99SAPS  H16Y10000   0.770   3.797   8.481  0.5915  0.0102  0.1116
   99SAPS  C31710001   0.839   3.872   8.292 -0.5410 -0.0736  0.7461
   99SAPS  H17X10002   0.863   3.822   8.196  0.8774  2.1673 -0.1537
   99SAPS  H17Y10003   0.925   3.936   8.321 -0.8807  0.5920  0.2979
   99SAPS  C31810004   0.724   3.961   8.275 -0.2965 -0.8011 -0.6316
   99SAPS  H18X10005   0.696   4.009   8.372  0.4070  0.7373 -1.1573
   99SAPS  H18Y10006   0.632   3.904   8.252 -1.3376  0.9296 -0.9260
   99SAPS  H18Z10007   0.743   4.041   8.200  0.3880 -1.1984 -0.8911
  100SAPS     N10008   5.983   6.047   6.101 -0.2332  0.3927  0.1734
  100SAPS   HN110009   5.882   6.060   6.077 -0.6730  1.0486  2.2090
  100SAPS   HN210010   6.002   6.117   6.175 -1.9320 -1.5422  2.6481
  100SAPS   HN310011   6.045   6.064   6.019 -0.5354 -0.1684 -0.1799
  100SAPS   C1210012   6.007   5.909   6.157 -0.1767  0.2094  0.0613
  100SAPS  H12A10013   5.985   5.841   6.076 -1.1018  2.3657 -1.6246
  100SAPS   C1310014   6.156   5.887   6.192 -0.8019 -0.5213  0.2540
  100SAPS  O13A10015   6.246   5.968   6.146 -0.1001 -0.4783 -0.2961
  100SAPS  O13B10016   6.193   5.776   6.234  0.2932  0.0479 -0.0857
  100SAPS   C1110017   5.913   5.891   6.273  0.1865  0.0798 -0.1313
  100SAPS  H11A10018   5.933   5.972   6.346  5.6085 -0.7934 -0.2249
  100SAPS  H11B10019   5.934   5.793   6.323  1.2545 -0.7009 -2.0275
  100SAPS     P10020   5.665   5.847   6.342 -0.2466  0.1357 -0.2392
  100SAPS   O1310021   5.558   5.945   6.341 -0.4725  0.2502  0.0289
  100SAPS   O1410022   5.624   5.706   6.331  0.0565  0.3612 -0.4437
  100SAPS   O1210023   5.779   5.894   6.233 -0.3573 -0.3916 -0.9760
  100SAPS   O1110024   5.732   5.870   6.482  0.2460  0.4566 -0.2713
  100SAPS    C110025   5.779   5.751   6.545  0.1235  0.3145  0.1809
  100SAPS    HA10026   5.824   5.673   6.480 -0.1126  1.0490 -0.8815
  100SAPS    HB10027   5.857   5.778   6.619 -1.4705  0.9591  1.6909
  100SAPS    C210028   5.660   5.688   6.638  0.3504  0.2743  0.9158
  100SAPS    HS10029   5.561   5.707   6.590  0.5120  0.1858  0.5444
  100SAPS   O2110030   5.654   5.742   6.771  0.6298 -0.3018  0.0177
  100SAPS   C2110031   5.578   5.849   6.778  0.3517 -0.1406 -0.0364
  100SAPS   O2210032   5.505   5.896   6.695 -0.2139 -0.4471  0.5806
  100SAPS   C2210033   5.582   5.907   6.927  0.0283 -0.0909 -0.2088
  100SAPS   H2R10034   5.546   6.012   6.929  2.3680  0.8139  3.1002
  100SAPS   H2S10035   5.506   5.849   6.983  0.9653 -0.2610  0.9318
  100SAPS    C310036   5.671   5.538   6.647  0.0954  0.3780  0.1478
  100SAPS    HX10037   5.685   5.492   6.547  0.3288  2.6729 -0.9357
  100SAPS    HY10038   5.580   5.495   6.694  0.6387 -1.4728 -0.3856
  100SAPS   O3110039   5.792   5.505   6.721  0.0712 -0.5060  0.6877
  100SAPS   C3110040   5.772   5.463   6.842 -0.4636 -0.0176 -0.3688
  100SAPS   O3210041   5.676   5.405   6.886 -0.4748 -0.2880 -0.2890
  100SAPS   C3210042   5.901   5.468   6.917  0.6085  0.2110 -0.3997
  100SAPS   H2X10043   5.974   5.534   6.864  1.1409  0.9100  1.1574
  100SAPS   H2Y10044   5.936   5.363   6.913 -2.4255 -0.9908  1.3130
  100SAPS   C2310045   5.717   5.887   6.996 -0.6816 -0.0267  0.5957
  100SAPS   H3R10046   5.798   5.942   6.945 -0.6464  0.7365  1.4388
  100SAPS   H3S10047   5.757   5.784   6.988  0.0897  0.3630 -0.8162
  100SAPS   C2410048   5.728   5.941   7.139  0.0332 -0.4575 -0.2047
  100SAPS   H4R10049   5.691   6.045   7.130  0.2354 -0.2460  1.1240
  100SAPS   H4S10050   5.837   5.949   7.162  0.3936  1.3580 -2.2065
  100SAPS   C2510051   5.657   5.848   7.236 -0.2254  0.4306 -1.1906
  100SAPS   H5R10052   5.562   5.813   7.193 -0.3500 -1.4854  0.4953
  100SAPS   C2610053   5.699   5.793   7.353 -0.3378 -0.7303 -0.6470
  100SAPS   H6R10054   5.624   5.732   7.405 -0.6236  0.2299  0.0905
  100SAPS   C2710055   5.841   5.797   7.417  0.0053 -0.0111 -0.1092
  100SAPS   H7R10056   5.903   5.871   7.361  0.5327  0.2665  0.8169
  100SAPS   H7S10057   5.897   5.701   7.409 -0.0481  0.0135 -0.8578
  100SAPS   C2810058   5.812   5.834   7.555 -0.3836  0.6943 -0.2120
  100SAPS   H8R10059   5.794   5.943   7.558  0.6453  0.8746 -0.1648
  100SAPS   C2910060   5.814   5.756   7.664  0.0402 -0.2299  0.1738
  100SAPS   H9R10061   5.807   5.814   7.758  2.1086  0.9057 -0.3045
  100SAPS  C21010062   5.840   5.606   7.666 -0.2335  1.0974 -0.0675
  100SAPS  H10R10063   5.944   5.593   7.704 -0.9012 -0.0256  1.5090
  100SAPS  H10S10064   5.814   5.552   7.573 -0.2694  1.2229 -0.1299
  100SAPS  C21110065   5.741   5.557   7.769 -0.3860  0.6106 -0.4782
  100SAPS  H11R10066   5.642   5.605   7.769  0.0216  1.5789  1.8801
  100SAPS  C21210067   5.768   5.475   7.875 -1.0401 -0.0624  0.0312
  100SAPS  H12R10068   5.695   5.463   7.956 -2.3943 -0.4372 -1.1897
  100SAPS  C21310069   5.895   5.405   7.909 -0.0063  0.4398 -0.3306
  100SAPS  H13R10070   5.969   5.399   7.826  1.2551  0.5348  0.7541
  100SAPS  H13S10071   5.873   5.297   7.919  0.5864  0.3075 -0.4001
  100SAPS  C21410072   5.972   5.451   8.037  0.0300  0.3005  0.1117
  100SAPS  H14R10073   5.950   5.558   8.053  0.8600  0.3853  0.8099
  100SAPS  C21510074   6.054   5.378   8.121  0.7040 -0.1189 -0.0310
  100SAPS  H15R10075   6.112   5.427   8.200  0.5913  0.0183 -0.0334
  100SAPS  C21610076   6.081   5.229   8.116 -0.0171  0.0421  0.1207
  100SAPS  H16R10077   6.187   5.211   8.144 -0.4626 -3.2548  0.0645
  100SAPS  H16S10078   6.086   5.196   8.010 -1.7392  0.4137 -0.1027
  100SAPS  C21710079   5.991   5.133   8.201  0.4650 -0.5052  0.6611
  100SAPS  H17R10080   6.014   5.026   8.180  0.4681 -0.3184 -0.3271
  100SAPS  H17S10081   5.885   5.155   8.179  0.6835  0.4293  0.5091
  100SAPS  C21810082   6.019   5.155   8.350  0.2474 -0.0291 -0.0116
  100SAPS  H18R10083   5.973   5.251   8.384 -2.0401 -0.8340 -0.6388
  100SAPS  H18S10084   6.126   5.165   8.377  0.5774  2.0829 -1.7669
  100SAPS  C21910085   5.965   5.043   8.435  0.1690 -0.1299  0.1516
  100SAPS  H19R10086   5.988   4.953   8.373 -2.6187  0.8961 -2.6156
  100SAPS  H19S10087   5.855   5.049   8.448 -0.0602  0.1544 -1.5842
  100SAPS  C22010088   6.017   5.030   8.575  0.4568 -0.2478 -0.3620
  100SAPS  H20R10089   6.128   5.030   8.577  0.4453  0.2754  1.6152
  100SAPS  H20S10090   5.990   4.931   8.617  2.4219  0.2598  2.2840
  100SAPS  H20T10091   5.974   5.103   8.647 -0.4958 -1.6889  0.5962
  100SAPS   C3310092   5.881   5.521   7.060  0.3698  0.3667  0.0775
  100SAPS   H3X10093   5.787   5.489   7.108  1.7013 -0.8072  2.0543
  100SAPS   H3Y10094   5.875   5.632   7.068  0.3937  0.5304 -1.6543
  100SAPS   C3410095   5.986   5.474   7.163 -0.4771 -0.1645  0.7157
  100SAPS   H4X10096   6.005   5.365   7.154 -2.0583 -0.3856 -0.4156
  100SAPS   H4Y10097   5.939   5.485   7.263  0.0440 -0.5914  1.0064
  100SAPS   C3510098   6.104   5.575   7.154  0.0852  0.3976 -0.7432
  100SAPS   H5X10099   6.063   5.673   7.187  1.1896  1.9496 -3.6213
  100SAPS   H5Y10100   6.147   5.590   7.053 -0.0297  2.6649 -0.4958
  100SAPS   C3610101   6.209   5.536   7.253  0.2844  0.1034 -0.1143
  100SAPS   H6X10102   6.294   5.603   7.234  0.6006  0.3901  2.0600
  100SAPS   H6Y10103   6.247   5.434   7.233  2.4870  0.5987  1.2693
  100SAPS   C3710104   6.175   5.546   7.399 -0.5920 -0.3961  0.0578
  100SAPS   H7X10105   6.084   5.487   7.425  0.4901 -1.6003  1.2199
  100SAPS   H7Y10106   6.144   5.653   7.405 -1.0017 -0.5881  2.4482
  100SAPS   C3810107   6.291   5.513   7.493  0.3822  0.4253 -0.5648
  100SAPS   H8X10108   6.374   5.585   7.477  0.8135 -0.1644 -0.9908
  100SAPS   H8Y10109   6.335   5.411   7.488 -1.5266 -0.3564 -3.4055
  100SAPS   C3910110   6.238   5.542   7.641 -0.2379  0.4661  0.1345
  100SAPS   H9X10111   6.149   5.482   7.670 -0.6485  0.1943 -1.5932
  100SAPS   H9Y10112   6.207   5.649   7.648  1.0350  0.7519  1.9462
  100SAPS  C31010113   6.357   5.525   7.745  0.3017 -0.4787 -0.0093
  100SAPS  H10X10114   6.415   5.620   7.735  0.1734 -0.4148 -0.1468
  100SAPS  H10Y10115   6.421   5.445   7.701  0.0208  0.1078 -1.5529
  100SAPS  C31110116   6.314   5.495   7.889  0.0397  0.1390  0.2512
  100SAPS  H11X10117   6.223   5.433   7.878  1.2535 -1.4076 -1.7876
  100SAPS  H11Y10118   6.285   5.597   7.922 -0.7095  0.7078 -2.0014
  100SAPS  C31210119   6.417   5.412   7.966 -0.3512  0.3280 -0.5362
  100SAPS  H12X10120   6.401   5.308   7.931  2.5534 -0.9023  1.4035
  100SAPS  H12Y10121   6.390   5.395   8.072  1.7087  0.5994  0.0848
  100SAPS  C31310122   6.563   5.459   7.949 -0.0598 -0.3574  0.9030
  100SAPS  H13X10123   6.577   5.556   8.001  0.3200 -0.2871  0.6751
  100SAPS  H13Y10124   6.594   5.482   7.845 -0.7411 -2.7867  0.0970
  100SAPS  C31410125   6.666   5.364   8.012  0.0410  0.2592  0.1850
  100SAPS  H14X10126   6.666   5.275   7.946  1.2828  1.2970 -1.2957
  100SAPS  H14Y10127   6.626   5.324   8.108  0.6646  0.3093  0.4702
  100SAPS  C31510128   6.808   5.421   8.028 -0.3254 -1.2714 -0.1611
  100SAPS  H15X10129   6.805   5.507   8.099 -2.1848 -0.5039 -1.1074
  100SAPS  H15Y10130   6.852   5.459   7.934 -0.0605  0.9679  0.7838
  100SAPS  C31610131   6.909   5.315   8.077  0.8566  0.0314 -0.6904
  100SAPS  H16X10132   7.012   5.324   8.036  0.7460  0.8897 -0.7979
  100SAPS  H16Y10133   6.865   5.217   8.049 -1.4985  0.9560 -0.3917
  100SAPS  C31710134   6.909   5.304   8.231  0.6220  0.0343  0.1104
  100SAPS  H17X10135   6.811   5.263   8.263  0.7394 -0.2416  0.1200
  100SAPS  H17Y10136   6.922   5.405   8.277 -0.7539 -0.9086  2.7231
  100SAPS  C31810137   7.020   5.207   8.288 -0.0741 -0.0362 -0.2970
  100SAPS  H18X10138   6.996   5.188   8.394 -0.4928  2.8286  0.2092
  100SAPS  H18Y10139   7.121   5.250   8.274 -0.5120  0.0687 -4.2199
  100SAPS  H18Z10140   7.014   5.108   8.238 -0.5812 -0.5097  0.6657
  101OSM      N10141   2.958   5.681  10.820 -0.1758  0.5365 -0.3361
  101OSM    C1510142   3.004   5.759  10.938 -0.5021  0.8172  0.8109
  101OSM   H15A10143   3.061   5.703  11.010  2.7070  2.7910  0.0175
  101OSM   H15B10144   2.922   5.797  10.996 -0.2375  0.6722  1.2825
  101OSM   H15C10145   3.067   5.845  10.919 -0.0586  0.5961  1.2599
  101OSM    C1410146   2.907   5.773  10.719 -0.4965  0.3875  0.0636
  101OSM   H14A10147   2.979   5.850  10.694 -0.7742  0.7531  0.3819
  101OSM   H14B10148   2.817   5.817  10.759  0.3836  1.8846  0.4872
  101OSM   H14C10149   2.882   5.713  10.632 -3.1735 -0.5363  1.3558
  101OSM    C1310150   3.077   5.601  10.775 -0.1862  0.3099 -0.5313
  101OSM   H13A10151   3.108   5.547  10.863 -1.5394 -0.6466 -0.6213
  101OSM   H13B10152   3.156   5.659  10.729 -0.1500  1.8183  1.3386
  101OSM   H13C10153   3.049   5.537  10.692  0.7031  1.3405 -1.6610
  101OSM    C1210154   2.848   5.585  10.859  0.0992  0.2555  0.4813
  101OSM   H12A10155   2.765   5.645  10.892 -0.8743  0.4641 -2.0933
  101OSM   H12B10156   2.884   5.531  10.946 -1.5301  0.0674  1.0817
  101OSM    C1110157   2.787   5.487  10.752 -0.0619  0.1666  0.2319
  101OSM   H11A10158   2.754   5.539  10.660 -1.3485 -3.0561 -1.2704
  101OSM   H11B10159   2.696   5.453  10.805 -0.8518  2.0345  0.1559
  101OSM      P10160   2.908   5.266  10.833 -0.3097 -0.3674 -0.1484
  101OSM    O1310161   2.936   5.332  10.965  0.2830 -0.7212 -0.1224
  101OSM    O1410162   2.797   5.165  10.827 -0.2086 -0.6810 -0.1805
  101OSM    O1110163   3.044   5.214  10.778  0.4945 -0.2749  0.3807
  101OSM    O1210164   2.876   5.377  10.723 -0.6711  0.0832 -0.0587
  101OSM    C1S10165   3.057   5.140  10.659  1.2292  0.3042  0.1661
  101OSM    H1S10166   2.964   5.134  10.598  1.8032 -1.3256 -0.6071
  101OSM    H1T10167   3.097   5.037  10.676  0.6287 -0.2471 -1.5067
  101OSM     NF10168   3.159   5.140  10.443  0.3919 -0.1360  0.9898
  101OSM    HNF10169   3.224   5.065  10.428  1.7110  0.8217  1.7350
  101OSM    C2S10170   3.169   5.201  10.569  0.3743 -0.1561 -0.4646
  101OSM    H2S10171   3.143   5.309  10.567  2.5431  0.4080 -0.9232
  101OSM    C3S10172   3.307   5.182  10.629 -0.1633  0.8784 -0.5358
  101OSM    H3S10173   3.335   5.075  10.631  1.9681  1.3883 -1.1987
  101OSM     O310174   3.302   5.214  10.768  0.7859  0.4269  0.4831
  101OSM    HO310175   3.214   5.209  10.804  0.1812  1.5445 -0.7696
  101OSM    C4S10176   3.417   5.270  10.579 -0.4631 -0.6480  0.2024
  101OSM    H4S10177   3.378   5.365  10.540  1.2510 -0.0992 -0.2465
  101OSM    C5S10178   3.553   5.245  10.578  0.0134  0.1335  0.0414
  101OSM    H5S10179   3.598   5.148  10.603  1.8596  1.4819  2.3205
  101OSM    C6S10180   3.654   5.348  10.536  0.1304 -0.2824 -0.5656
  101OSM    H6S10181   3.754   5.301  10.524  1.1009  1.5621 -0.1495
  101OSM    H6T10182   3.674   5.429  10.610 -1.0636  0.8605 -1.4395
  101OSM    C7S10183   3.641   5.406  10.394 -0.7565  0.2542  0.0695
  101OSM    H7S10184   3.733   5.464  10.372  0.2193 -0.8201  1.1732
  101OSM    H7T10185   3.562   5.484  10.394 -2.2374 -1.1929  0.5201
  101OSM    C8S10186   3.644   5.314  10.274 -0.1682 -0.0139  0.7704
  101OSM    H8S10187   3.545   5.265  10.256 -0.1860  0.6169 -1.0542
  101OSM    H8T10188   3.728   5.241  10.282  1.8996  2.2089  0.4801
  101OSM    C9S10189   3.658   5.409  10.148 -0.9655 -0.0040 -0.3708
  101OSM    H9S10190   3.752   5.468  10.152 -0.0663 -1.3157 -1.4411
  101OSM    H9T10191   3.569   5.474  10.136 -0.7436 -0.0288 -2.4294
  101OSM   C10S10192   3.645   5.335  10.018  0.2053  0.4906 -0.3804
  101OSM   H10S10193   3.542   5.296  10.022  0.0051  1.0861  0.7802
  101OSM   H10T10194   3.714   5.248  10.019 -0.2802  0.0992 -0.7479
  101OSM   C11S10195   3.659   5.422   9.892 -0.0557  0.3013 -0.0993
  101OSM   H11S10196   3.761   5.467   9.883 -0.4060  1.2274  0.4041
  101OSM   H11T10197   3.593   5.512   9.887  2.4371  2.1821 -2.8700
  101OSM   C12S10198   3.636   5.334   9.765 -0.6891 -0.0164 -0.4530
  101OSM   H12S10199   3.708   5.253   9.741  0.6050  0.7441  0.7373
  101OSM   H12T10200   3.655   5.405   9.682 -0.0251  1.2428  0.7320
  101OSM   C13S10201   3.495   5.287   9.750 -0.3940 -0.1400  0.2742
  101OSM   H13S10202   3.438   5.276   9.845  0.3597 -0.7076  0.6685
  101OSM   H13T10203   3.498   5.188   9.699  0.2206 -0.2339  0.4844
  101OSM   C14S10204   3.410   5.369   9.652 -0.2349  0.4111  0.0697
  101OSM   H14S10205   3.422   5.478   9.672  0.3008  1.2495 -3.9951
  101OSM   H14T10206   3.302   5.347   9.667 -0.2105  0.0992 -0.2032
  101OSM   C15S10207   3.445   5.344   9.504 -0.1258 -0.3416 -0.0946
  101OSM   H15S10208   3.427   5.237   9.480  0.6217 -0.1232 -1.7854
  101OSM   H15T10209   3.545   5.382   9.473  0.1688 -0.8426  0.2320
  101OSM   C16S10210   3.345   5.426   9.416 -0.0438  0.2777 -0.5623
  101OSM   H16S10211   3.356   5.535   9.432 -1.9673  0.3579  0.5765
  101OSM   H16T10212   3.240   5.405   9.447  0.4483 -0.2400  0.8764
  101OSM   C17S10213   3.354   5.405   9.263 -0.3089  0.2291 -0.6458
  101OSM   H17S10214   3.346   5.294   9.261  1.0917  0.0574  0.9385
  101OSM   H17T10215   3.457   5.411   9.222 -0.0552  0.5427  0.0193
  101OSM   C18S10216   3.252   5.473   9.180  0.1265  0.7373  0.1240
  101OSM   H18S10217   3.269   5.580   9.203  2.3587  0.3993  0.2841
  101OSM   H18T10218   3.152   5.442   9.216  0.6617  0.6550  1.6032
  101OSM   H18U10219   3.257   5.451   9.071  0.6301 -1.1306  0.4868
  101OSM    C1F10220   3.059   5.159  10.353  0.4901 -0.0718 -0.6600
  101OSM     OF10221   2.958   5.226  10.376 -0.0044 -0.4416  0.5354
  101OSM    C2F10222   3.059   5.097  10.223 -0.2862 -0.6589 -0.2071
  101OSM    H2F10223   2.978   5.021  10.214 -0.2011 -0.9410  1.1921
  101OSM    H2G10224   3.144   5.026  10.221 -0.7806 -1.2693  0.0636
  101OSM    C3F10225   3.060   5.200  10.105 -0.1340  0.2599  0.0031
  101OSM    H3F10226   3.152   5.262  10.101 -1.9258  3.1998  1.0705
  101OSM    H3G10227   2.970   5.265  10.114 -1.0248 -1.1016  1.3366
  101OSM    C4F10228   3.051   5.119   9.969 -0.5185  0.9129 -0.0499
  101OSM    H4F10229   2.971   5.043   9.975  0.3889 -0.2547 -1.8182
  101OSM    H4G10230   3.152   5.075   9.959 -0.9662 -0.4694  1.1457
  101OSM    C5F10231   3.040   5.208   9.843  0.1455  0.9849 -0.6200
  101OSM    H5F10232   3.140   5.247   9.816  2.2048 -3.1399  0.3295
  101OSM    H5G10233   2.966   5.286   9.872  0.5456  1.2766 -0.3865
  101OSM    C6F10234   2.987   5.136   9.718 -0.1172  0.0501 -0.0297
  101OSM    H6F10235   2.950   5.202   9.637 -0.4618 -0.5456 -0.3637
  101OSM    H6G10236   2.902   5.070   9.745 -0.3575 -1.5021 -3.9226
  101OSM    C7F10237   3.090   5.049   9.644  0.4515  0.3723  0.0501
  101OSM    H7F10238   3.119   4.966   9.712 -0.0293  1.6693  1.8960
  101OSM    H7G10239   3.184   5.101   9.615  0.3594  0.6442  0.2369
  101OSM    C8F10240   3.018   4.979   9.522  0.2553  0.2138  1.0256
  101OSM    H8F10241   2.997   5.059   9.448  1.1202 -0.6907 -0.2391
  101OSM    H8G10242   2.923   4.927   9.545 -0.8399  1.1060 -1.2606
  101OSM    C9F10243   3.113   4.890   9.447 -0.4778  0.6020 -0.0757
  101OSM    H9F10244   3.119   4.785   9.480 -1.4211  0.5196 -0.1522
  101OSM   C10F10245   3.204   4.918   9.351  0.0039  0.2367  0.5545
  101OSM   H10F10246   3.273   4.843   9.309  4.1263  4.2096 -0.5872
  101OSM   C11F10247   3.218   5.055   9.297 -0.3256 -0.0597  0.1412
  101OSM   H11F10248   3.314   5.094   9.336 -0.8656  1.9755 -0.4565
  101OSM   H11G10249   3.134   5.123   9.323 -1.7004 -1.7634  0.3517
  101OSM   C12F10250   3.201   5.046   9.145 -0.9986  0.4788  0.7162
  101OSM   H12F10251   3.177   5.148   9.108 -0.0276  0.5042  0.1459
  101OSM   H12G10252   3.114   4.981   9.121 -0.0949 -0.6314  0.3579
  101OSM   C13F10253   3.325   4.993   9.064  0.3398  0.0878 -0.0345
  101OSM   H13F10254   3.352   4.898   9.115  0.6882  0.3671  0.3032
  101OSM   H13G10255   3.409   5.063   9.082  2.4534 -1.6851 -2.2820
  101OSM   C14F10256   3.308   4.966   8.909  0.2361 -0.8395  0.4062
  101OSM   H14F10257   3.208   4.919   8.898  0.8040 -2.7465  2.8079
  101OSM   H14G10258   3.380   4.890   8.872  1.2519 -0.4376  1.4996
  101OSM   C15F10259   3.318   5.093   8.823  0.0365 -0.4255  0.1859
  101OSM   H15F10260   3.409   5.147   8.857 -1.9143  1.5613  2.6241
  101OSM   H15G10261   3.235   5.165   8.840 -1.7324 -2.4349  0.4285
  101OSM   C16F10262   3.310   5.052   8.674  0.0389  0.2551  0.4746
  101OSM   H16F10263   3.356   4.953   8.655  2.7938  1.7494 -1.4118
  101OSM   H16G10264   3.385   5.118   8.625 -0.1930 -1.0977 -1.8671
  101OSM   C17F10265   3.170   5.051   8.611  0.5358 -0.1220  0.5295
  101OSM   H17F10266   3.117   5.135   8.660  0.1115  0.0075 -0.1433
  101OSM   H17G10267   3.119   4.959   8.645  0.1808 -0.0278  0.2595
  101OSM   C18F10268   3.168   5.047   8.453  0.2135 -0.1026  0.0729
  101OSM   H18F10269   3.248   4.981   8.412  1.2348 -0.1487  2.0254
  101OSM   H18G10270   3.170   5.154   8.422  0.3238 -0.2448 -0.4288
  101OSM   H18H10271   3.074   5.000   8.417  0.6800 -0.4089 -0.7906
  102OSM      N10272   1.850   4.059  11.128 -0.2520 -0.2858  0.8486
  102OSM    C1510273   1.726   4.111  11.198 -0.3742  0.2116  0.1147
  102OSM   H15A10274   1.652   4.039  11.231 -2.2803  2.1488  0.2791
  102OSM   H15B10275   1.693   4.179  11.121 -0.9704  0.6677  0.7632
  102OSM   H15C10276   1.754   4.169  11.284 -0.5187  1.3605 -0.5864
  102OSM    C1410277   1.937   4.177  11.114  0.1969  0.1401  0.4890
  102OSM   H14A10278   2.036   4.158  11.078  0.7931  1.6481  1.2286
  102OSM   H14B10279   1.951   4.222  11.211  2.3064 -3.0591  1.8458
  102OSM   H14C10280   1.896   4.245  11.040  1.0926  2.2264  1.8112
  102OSM    C1310281   1.926   3.968  11.212  0.5642  0.6554 -0.2546
  102OSM   H13A10282   1.944   4.015  11.308  0.1775 -1.9156  1.1536
  102OSM   H13B10283   2.024   3.962  11.168  0.5819  0.2537 -0.1596
  102OSM   H13C10284   1.883   3.870  11.218  0.2034  0.7634 -0.9626
  102OSM    C1210285   1.820   3.999  10.991 -0.2294  0.8267 -0.0293
  102OSM   H12A10286   1.757   3.913  11.009 -0.1840  0.5021 -1.2792
  102OSM   H12B10287   1.912   3.971  10.941  1.7521  2.6258  2.3633
  102OSM    C1110288   1.730   4.080  10.897  0.1296  0.8199  0.6283
  102OSM   H11A10289   1.630   4.097  10.943 -0.9147 -0.2175 -1.1456
  102OSM   H11B10290   1.720   4.009  10.811 -0.0557  0.3259  1.0520
  102OSM      P10291   1.722   4.336  10.847 -0.0874 -0.4212 -0.2154
  102OSM    O1310292   1.640   4.343  10.973 -0.2841 -0.0973  0.2177
  102OSM    O1410293   1.827   4.440  10.832  0.7116 -0.5359  0.5761
  102OSM    O1110294   1.635   4.320  10.713 -0.4549  0.1628  0.2301
  102OSM    O1210295   1.799   4.198  10.849 -0.2706 -0.2375 -0.1261
  102OSM    C1S10296   1.689   4.338  10.583  0.6404  0.2257 -0.4776
  102OSM    H1S10297   1.800   4.346  10.582  0.7632 -0.7147  1.3873
  102OSM    H1T10298   1.654   4.431  10.533  0.9140  0.0536 -0.9859
  102OSM     NF10299   1.711   4.235  10.374 -0.0171 -0.7167 -0.6453
  102OSM    HNF10300   1.658   4.272  10.297  2.3539 -3.7152 -4.0805
  102OSM    C2S10301   1.651   4.213  10.502 -0.1584 -0.1890  0.1820
  102OSM    H2S10302   1.690   4.117  10.541  1.1575 -0.8504 -2.5133
  102OSM    C3S10303   1.497   4.205  10.491 -0.0989 -0.1891 -0.5223
  102OSM    H3S10304   1.459   4.295  10.438 -0.8439 -0.1885 -0.0035
  102OSM     O310305   1.427   4.206  10.614  0.0929  0.2003 -0.0102
  102OSM    HO310306   1.489   4.255  10.668  1.7208 -0.2379 -1.3960
  102OSM    C4S10307   1.451   4.090  10.413 -0.5202  0.4829  0.6785
  102OSM    H4S10308   1.506   3.995  10.423 -2.0480 -0.3542  1.5039
  102OSM    C5S10309   1.347   4.091  10.328 -0.5970  0.8662 -0.1602
  102OSM    H5S10310   1.288   4.183  10.323  0.7890  1.9198  1.7834
  102OSM    C6S10311   1.303   3.972  10.249  0.7211  0.5991  0.7395
  102OSM    H6S10312   1.212   3.925  10.291  1.6688 -2.9229 -0.7872
  102OSM    H6T10313   1.379   3.891  10.252  0.1554  0.0697  0.7965
  102OSM    C7S10314   1.268   4.008  10.097  0.0216 -1.0380 -0.5983
  102OSM    H7S10315   1.360   4.042  10.045 -0.4940  1.0630 -0.2317
  102OSM    H7T10316   1.195   4.092  10.092 -0.0899 -0.9641  1.5073
  102OSM    C8S10317   1.205   3.878  10.035  0.4582  1.1020 -0.8528
  102OSM    H8S10318   1.147   3.898   9.942 -0.5446  3.0880  0.1271
  102OSM    H8T10319   1.122   3.842  10.100 -1.3362 -0.3688 -3.7244
  102OSM    C9S10320   1.302   3.759  10.024  0.3863  0.1024  0.4324
  102OSM    H9S10321   1.244   3.669   9.994  0.9999 -0.7695  1.7928
  102OSM    H9T10322   1.331   3.739  10.129 -0.9407 -4.0010  0.1758
  102OSM   C10S10323   1.421   3.778   9.927  0.5596  0.5360  0.6958
  102OSM   H10S10324   1.484   3.687   9.933 -0.7389 -0.4940 -0.6478
  102OSM   H10T10325   1.476   3.870   9.957 -0.1108  2.1858 -2.6104
  102OSM   C11S10326   1.376   3.797   9.781  0.4083 -0.4137 -0.7278
  102OSM   H11S10327   1.311   3.885   9.768  0.0086 -0.8332 -1.7051
  102OSM   H11T10328   1.311   3.710   9.756 -2.9357  1.3873  1.0508
  102OSM   C12S10329   1.488   3.812   9.681  0.7636 -0.0578  0.2149
  102OSM   H12S10330   1.550   3.720   9.686  1.9943  0.7761  1.5467
  102OSM   H12T10331   1.551   3.891   9.728  1.6127 -1.1469  0.9489
  102OSM   C13S10332   1.432   3.857   9.543  0.6761 -0.0416 -0.8094
  102OSM   H13S10333   1.517   3.858   9.471  3.1557 -0.3851  1.9374
  102OSM   H13T10334   1.401   3.963   9.554 -0.4552 -0.3234 -1.1478
  102OSM   C14S10335   1.320   3.772   9.477 -0.2055 -0.1094 -0.3340
  102OSM   H14S10336   1.222   3.793   9.525 -0.3468  1.0558 -1.0825
  102OSM   H14T10337   1.343   3.665   9.492 -0.4998 -0.2276 -0.7103
  102OSM   C15S10338   1.304   3.802   9.325 -0.5245  0.0049 -0.1115
  102OSM   H15S10339   1.286   3.910   9.304  0.7075  0.4734  1.1159
  102OSM   H15T10340   1.214   3.743   9.297 -2.0093  2.7194 -1.4809
  102OSM   C16S10341   1.418   3.759   9.235  0.1712  0.3876  0.3834
  102OSM   H16S10342   1.500   3.725   9.302  0.2739  1.7696  0.9825
  102OSM   H16T10343   1.454   3.847   9.177  1.0850 -0.1555  0.0875
  102OSM   C17S10344   1.392   3.644   9.136 -0.0779 -0.2262  0.1736
  102OSM   H17S10345   1.317   3.687   9.066  0.4681  0.6883  0.1293
  102OSM   H17T10346   1.360   3.561   9.203  3.3913  0.0308  2.4410
  102OSM   C18S10347   1.521   3.604   9.059 -0.4459  0.2023 -0.1065
  102OSM   H18S10348   1.553   3.682   8.986  1.6219  0.1479  0.6817
  102OSM   H18T10349   1.505   3.505   9.012  0.0890 -0.0328  0.2003
  102OSM   H18U10350   1.603   3.597   9.133 -0.2426 -0.2709 -0.3716
  102OSM    C1F10351   1.842   4.233  10.351 -0.0853  0.0203  0.2384
  102OSM     OF10352   1.909   4.178  10.433  0.7800  0.3544  0.2322
  102OSM    C2F10353   1.895   4.276  10.223 -0.3175  0.7114  0.6207
  102OSM    H2F10354   1.808   4.288  10.155 -0.2008  2.6867  0.7589
  102OSM    H2G10355   1.960   4.193  10.188 -0.6597  0.4706  0.5554
  102OSM    C3F10356   1.976   4.403  10.225  0.1490 -0.6992  0.2208
  102OSM    H3F10357   2.056   4.382  10.300  0.8574 -0.0535 -0.3291
  102OSM    H3G10358   1.910   4.484  10.262 -1.3637 -2.1705  0.8164
  102OSM    C4F10359   2.037   4.441  10.089 -0.6312 -0.6324 -0.7820
  102OSM    H4F10360   2.121   4.509  10.114 -1.5888  0.3544 -0.1571
  102OSM    H4G10361   1.958   4.501  10.039  0.2870  1.2963 -0.0299
  102OSM    C5F10362   2.093   4.331   9.995 -0.0078 -0.2639 -0.2786
  102OSM    H5F10363   2.025   4.243  10.002 -0.5085  0.2204  1.2234
  102OSM    H5G10364   2.194   4.297  10.023  0.7823  1.5746 -0.7479
  102OSM    C6F10365   2.096   4.372   9.847  0.0227  0.2000 -0.3998
  102OSM    H6F10366   2.179   4.446   9.833  1.6357 -1.5504 -0.4585
  102OSM    H6G10367   1.994   4.416   9.837 -1.3464 -2.0291  2.4835
  102OSM    C7F10368   2.114   4.251   9.758  0.5923  0.0199 -0.2614
  102OSM    H7F10369   2.021   4.192   9.773 -0.3925  1.6800  0.5005
  102OSM    H7G10370   2.208   4.199   9.785  0.9724  0.8283  0.0164
  102OSM    C8F10371   2.120   4.290   9.608 -0.5684 -0.3940 -1.0061
  102OSM    H8F10372   2.211   4.352   9.592 -0.0497 -0.9568 -0.2701
  102OSM    H8G10373   2.037   4.361   9.587 -1.3686 -0.3170  1.9740
  102OSM    C9F10374   2.123   4.177   9.515 -0.2671  0.2356 -0.4374
  102OSM    H9F10375   2.144   4.080   9.562 -0.1979 -1.0152 -2.8521
  102OSM   C10F10376   2.113   4.177   9.376 -0.5518  0.0895 -0.8483
  102OSM   H10F10377   2.135   4.083   9.324  1.3125  0.5868 -1.0314
  102OSM   C11F10378   2.103   4.300   9.289  0.6288 -0.5611  0.2931
  102OSM   H11F10379   2.195   4.360   9.305 -0.0808  0.6513 -0.0168
  102OSM   H11G10380   2.013   4.350   9.331  1.5725  0.8254  0.7633
  102OSM   C12F10381   2.090   4.281   9.138 -0.3414 -0.1004  0.8208
  102OSM   H12F10382   2.071   4.382   9.095  2.2681  0.6252  1.2141
  102OSM   H12G10383   2.003   4.213   9.127 -0.4941  0.2979 -0.6050
  102OSM   C13F10384   2.215   4.210   9.076 -0.0678  0.6135  0.8142
  102OSM   H13F10385   2.221   4.103   9.104  2.5668  0.8159  1.2226
  102OSM   H13G10386   2.312   4.251   9.110  0.9869 -1.1418  0.0566
  102OSM   C14F10387   2.216   4.219   8.926  0.8279 -0.7692  1.0503
  102OSM   H14F10388   2.125   4.172   8.884  2.0873 -1.2193 -1.3427
  102OSM   H14G10389   2.296   4.152   8.888  0.7682  0.8073 -2.1573
  102OSM   C15F10390   2.240   4.360   8.864 -0.3438 -0.0379  0.2011
  102OSM   H15F10391   2.152   4.424   8.886  0.9532  2.4059 -1.2850
  102OSM   H15G10392   2.242   4.349   8.754 -0.7004  1.0962  0.0697
  102OSM   C16F10393   2.370   4.436   8.907  1.2192  0.3160  0.3294
  102OSM   H16F10394   2.458   4.368   8.913  1.2721 -0.0137 -2.8135
  102OSM   H16G10395   2.345   4.480   9.006  1.9393 -0.5857  0.9288
  102OSM   C17F10396   2.401   4.551   8.810 -0.6283  0.6863  0.1133
  102OSM   H17F10397   2.451   4.632   8.867  0.4303  0.2935 -0.2321
  102OSM   H17G10398   2.300   4.584   8.779 -0.4612  1.3754  0.2972
  102OSM   C18F10399   2.486   4.504   8.690 -0.1525  0.1899  0.2379
  102OSM   H18F10400   2.495   4.585   8.614 -0.2210  1.0008  1.0717
  102OSM   H18G10401   2.437   4.422   8.634  1.2303  0.4490 -1.4362
  102OSM   H18H10402   2.588   4.481   8.726  0.1575  1.5228  0.2848
  103OSM      N10403   3.699   2.215  11.219 -0.3508  0.3103 -0.4921
  103OSM    C1510404   3.708   2.356  11.265  0.0012 -0.1714  0.2340
  103OSM   H15A10405   3.643   2.413  11.200 -1.1892 -2.6237 -0.8285
  103OSM   H15B10406   3.805   2.404  11.263 -0.1647  0.2504  1.3911
  103OSM   H15C10407   3.670   2.368  11.366  0.7367 -0.8438  0.5988
  103OSM    C1410408   3.764   2.116  11.314 -0.5218 -0.3581 -0.0720
  103OSM   H14A10409   3.872   2.122  11.313 -0.5252 -0.2336  0.1836
  103OSM   H14B10410   3.726   2.016  11.303 -1.3840 -0.2222  1.4183
  103OSM   H14C10411   3.735   2.142  11.415 -0.0867 -0.9219  0.2065
  103OSM    C1310412   3.551   2.172  11.208 -0.5067 -0.6151  0.5928
  103OSM   H13A10413   3.498   2.246  11.149 -0.4593 -1.1815 -0.1764
  103OSM   H13B10414   3.501   2.174  11.303  0.6546 -0.5847  1.2281
  103OSM   H13C10415   3.532   2.073  11.171 -0.5495 -0.7291  0.9217
  103OSM    C1210416   3.762   2.192  11.080  0.0961  0.5925  0.4797
  103OSM   H12A10417   3.863   2.230  11.086 -0.4023  1.8990  0.9478
  103OSM   H12B10418   3.709   2.257  11.012  2.2665  0.8822 -1.0405
  103OSM    C1110419   3.752   2.046  11.013 -0.0211 -0.6781 -0.3406
  103OSM   H11A10420   3.788   2.070  10.911 -1.5871  0.9528 -0.5440
  103OSM   H11B10421   3.646   2.016  10.999  0.2060 -0.9184 -1.6941
  103OSM      P10422   3.769   1.804  11.125 -0.2688  0.4816  0.0230
  103OSM    O1310423   3.884   1.727  11.175 -0.4888 -0.3630 -0.3542
  103OSM    O1410424   3.655   1.830  11.210  0.4862 -0.0820  0.9006
  103OSM    O1110425   3.703   1.730  10.996 -0.4350  0.6821 -0.5121
  103OSM    O1210426   3.829   1.942  11.071  0.4092  0.1015 -0.6036
  103OSM    C1S10427   3.771   1.725  10.869  0.6462 -0.4212  0.0511
  103OSM    H1S10428   3.882   1.715  10.870  0.6298 -0.9131 -1.0809
  103OSM    H1T10429   3.771   1.829  10.828  2.0405  0.4408  2.0914
  103OSM     NF10430   3.753   1.675  10.631  0.4010 -0.3722  0.0831
  103OSM    HNF10431   3.706   1.753  10.589  1.1447  0.2001  0.2800
  103OSM    C2S10432   3.701   1.638  10.762  0.0518 -1.0385  0.2807
  103OSM    H2S10433   3.734   1.533  10.776 -0.8816 -1.5974 -1.4093
  103OSM    C3S10434   3.543   1.665  10.767  0.4338  0.1261 -0.0174
  103OSM    H3S10435   3.525   1.773  10.747  1.1311  0.2012 -0.2641
  103OSM     O310436   3.482   1.626  10.891 -0.0610 -0.2051 -0.1067
  103OSM    HO310437   3.561   1.619  10.945 -1.2869 -0.7513  1.7012
  103OSM    C4S10438   3.471   1.592  10.655  0.8056 -0.3567 -0.0943
  103OSM    H4S10439   3.445   1.650  10.565 -0.4801  0.2266  0.6266
  103OSM    C5S10440   3.430   1.463  10.654  0.3761 -0.0752 -0.3418
  103OSM    H5S10441   3.436   1.403  10.746  0.0081  1.1888  0.5308
  103OSM    C6S10442   3.361   1.390  10.543 -0.3643  0.6020  0.2336
  103OSM    H6S10443   3.253   1.385  10.566 -0.7266 -3.2861 -1.5311
  103OSM    H6T10444   3.405   1.287  10.541  2.8313  1.8132  1.1886
  103OSM    C7S10445   3.374   1.452  10.395  0.4705  0.1702 -1.1679
  103OSM    H7S10446   3.352   1.561  10.390 -0.8153  0.4577  4.2771
  103OSM    H7T10447   3.307   1.394  10.328 -0.9956 -0.1148  0.4795
  103OSM    C8S10448   3.518   1.434  10.339 -0.8045  0.3346 -0.6853
  103OSM    H8S10449   3.594   1.487  10.399 -1.3986  0.3477  0.0786
  103OSM    H8T10450   3.511   1.480  10.238 -2.0185  0.7858 -0.4100
  103OSM    C9S10451   3.560   1.288  10.321 -0.0012  0.2115 -0.3422
  103OSM    H9S10452   3.468   1.240  10.284  0.8793 -1.3422 -0.5861
  103OSM    H9T10453   3.574   1.248  10.424 -1.5331  0.7005  0.0802
  103OSM   C10S10454   3.671   1.254  10.223  0.2868  0.5709  0.1095
  103OSM   H10S10455   3.675   1.144  10.216 -1.9761  0.4842 -0.5840
  103OSM   H10T10456   3.774   1.290  10.245  0.2851  0.0821  0.9728
  103OSM   C11S10457   3.621   1.294  10.079  0.1567  0.0910  0.0644
  103OSM   H11S10458   3.619   1.405  10.070 -0.4931  0.0260 -0.8054
  103OSM   H11T10459   3.514   1.262  10.077  0.4252 -0.9185  0.9964
  103OSM   C12S10460   3.705   1.240   9.962  1.2151  0.9353 -0.2443
  103OSM   H12S10461   3.730   1.133   9.978  1.0058  1.2129  2.3710
  103OSM   H12T10462   3.803   1.287   9.939  0.1950  1.9386 -2.9350
  103OSM   C13S10463   3.620   1.234   9.823 -0.1964 -0.5722  0.0090
  103OSM   H13S10464   3.564   1.328   9.803  1.4704  0.6969  0.9736
  103OSM   H13T10465   3.543   1.155   9.832 -0.5580 -0.1440  0.7627
  103OSM   C14S10466   3.721   1.205   9.708  0.4777  0.2845  0.9984
  103OSM   H14S10467   3.786   1.130   9.758  0.1636  0.6741  2.0040
  103OSM   H14T10468   3.785   1.290   9.675 -0.5606 -0.1145 -2.4965
  103OSM   C15S10469   3.651   1.159   9.583 -0.0273 -0.1000  0.4896
  103OSM   H15S10470   3.597   1.249   9.546 -2.0206 -1.8641 -1.1272
  103OSM   H15T10471   3.570   1.084   9.597  1.3481 -1.4692  1.3891
  103OSM   C16S10472   3.742   1.099   9.480  0.0818 -0.3293  0.3956
  103OSM   H16S10473   3.794   1.009   9.517  1.8171  0.6918  0.5331
  103OSM   H16T10474   3.824   1.172   9.465 -1.0873  1.2252  1.2355
  103OSM   C17S10475   3.679   1.057   9.347  0.4318  0.3188  0.7044
  103OSM   H17S10476   3.613   0.971   9.367  1.0352  0.3355  3.0314
  103OSM   H17T10477   3.763   1.028   9.279 -0.6184 -0.7538 -0.1665
  103OSM   C18S10478   3.593   1.168   9.280 -0.1097  0.0164  0.4277
  103OSM   H18S10479   3.614   1.271   9.317 -0.0892  0.3623 -0.5178
  103OSM   H18T10480   3.490   1.151   9.318  0.5891 -1.8635  1.6332
  103OSM   H18U10481   3.583   1.148   9.171 -0.0655 -1.1449  0.6268
  103OSM    C1F10482   3.866   1.626  10.574 -0.0413  0.0299 -0.2966
  103OSM     OF10483   3.926   1.535  10.629 -0.1271 -0.4831  0.1091
  103OSM    C2F10484   3.913   1.686  10.442 -0.6098 -0.1502  0.4470
  103OSM    H2F10485   4.019   1.660  10.418 -0.4417  0.7528  0.1908
  103OSM    H2G10486   3.902   1.796  10.447 -0.6787 -0.1465  0.2002
  103OSM    C3F10487   3.820   1.634  10.326 -0.4028 -0.1286 -0.6794
  103OSM    H3F10488   3.718   1.671  10.346 -0.4329 -1.2991  1.6819
  103OSM    H3G10489   3.805   1.524  10.322 -0.9188 -0.0389 -1.3946
  103OSM    C4F10490   3.866   1.685  10.184  0.1111  0.3022 -0.6409
  103OSM    H4F10491   3.977   1.682  10.187  0.0750 -0.3104  0.2588
  103OSM    H4G10492   3.847   1.794  10.170  1.3707  0.4463 -1.3918
  103OSM    C5F10493   3.825   1.605  10.063  0.7606 -0.3760 -0.4582
  103OSM    H5F10494   3.723   1.636  10.033  0.2081 -1.3315  0.3663
  103OSM    H5G10495   3.812   1.496  10.075 -0.2878 -0.6227 -3.1183
  103OSM    C6F10496   3.920   1.637   9.947  0.6692 -0.1027 -0.4842
  103OSM    H6F10497   4.023   1.643   9.988  0.1144  0.2188  0.9318
  103OSM    H6G10498   3.900   1.740   9.912  0.4250 -0.9021 -2.9013
  103OSM    C7F10499   3.916   1.533   9.839  0.4878 -0.0302 -0.0989
  103OSM    H7F10500   3.815   1.535   9.793  0.3874 -0.7775  0.0783
  103OSM    H7G10501   3.931   1.434   9.886 -1.0222 -1.0647 -1.6517
  103OSM    C8F10502   4.016   1.584   9.730  0.0722  0.2223  0.4628
  103OSM    H8F10503   4.116   1.613   9.768  0.3271  1.8529 -1.2723
  103OSM    H8G10504   3.978   1.674   9.675 -1.2717  0.5143  1.7927
  103OSM    C9F10505   4.037   1.468   9.635 -0.3656  0.3212 -0.4694
  103OSM    H9F10506   4.032   1.368   9.681  0.4621 -0.0352 -1.1194
  103OSM   C10F10507   4.071   1.476   9.505  0.1353  0.1991 -0.2065
  103OSM   H10F10508   4.092   1.379   9.456 -0.0028  0.4057 -0.6840
  103OSM   C11F10509   4.095   1.602   9.419  0.0331  0.8214 -0.2001
  103OSM   H11F10510   4.200   1.593   9.383 -0.4041 -1.3466 -1.0752
  103OSM   H11G10511   4.070   1.687   9.487 -1.2307 -0.3685  0.8616
  103OSM   C12F10512   3.999   1.609   9.294  0.5464  0.9663 -0.4639
  103OSM   H12F10513   4.008   1.708   9.245 -1.8806  1.1532 -0.6536
  103OSM   H12G10514   3.899   1.584   9.335  1.5804  1.4057  2.5648
  103OSM   C13F10515   4.040   1.504   9.187 -0.1698 -0.4178 -0.0293
  103OSM   H13F10516   4.136   1.535   9.140 -0.0951  1.9056  1.4873
  103OSM   H13G10517   4.050   1.405   9.235 -0.0200  0.5470  2.0544
  103OSM   C14F10518   3.935   1.484   9.077 -0.3164 -0.6344 -0.4011
  103OSM   H14F10519   3.892   1.575   9.031 -4.0091 -1.8521  0.2540
  103OSM   H14G10520   3.838   1.450   9.121 -0.4456 -0.0502 -0.2225
  103OSM   C15F10521   3.995   1.395   8.965  0.2449  0.7083  0.4399
  103OSM   H15F10522   4.050   1.323   9.030  0.2259  2.1261  2.0768
  103OSM   H15G10523   4.073   1.450   8.909 -1.9209  1.9294 -1.5879
  103OSM   C16F10524   3.903   1.309   8.886  0.3027 -0.6099  0.2600
  103OSM   H16F10525   3.955   1.251   8.807  0.2665  0.2133 -0.3865
  103OSM   H16G10526   3.832   1.376   8.832  0.7911  1.8194  2.4144
  103OSM   C17F10527   3.820   1.212   8.962 -0.4789  0.7028 -0.4483
  103OSM   H17F10528   3.744   1.269   9.020 -0.3765  0.0798  0.3125
  103OSM   H17G10529   3.888   1.170   9.038 -0.5340 -0.8959 -1.2457
  103OSM   C18F10530   3.738   1.111   8.883  0.5722  0.1299  0.7334
  103OSM   H18F10531   3.664   1.161   8.817 -0.6723  1.3002  2.9344
  103OSM   H18G10532   3.681   1.041   8.947 -0.0598 -0.4532 -0.4381
  103OSM   H18H10533   3.805   1.054   8.814  0.4995  1.8567 -0.8604
  104OSM      N10534   1.351   1.093  10.656 -0.1918  0.8401 -0.3792
  104OSM    C1510535   1.394   1.204  10.570 -0.5965 -0.9973 -0.1976
  104OSM   H15A10536   1.325   1.220  10.489 -2.4438 -3.9186  0.6690
  104OSM   H15B10537   1.490   1.183  10.525 -0.5267  0.0067 -0.5502
  104OSM   H15C10538   1.405   1.293  10.631 -0.5740 -1.0450 -0.1328
  104OSM    C1410539   1.443   1.087  10.778  0.4736 -0.0709 -0.5710
  104OSM   H14A10540   1.418   1.012  10.852 -0.0580  0.2656 -0.3999
  104OSM   H14B10541   1.435   1.181  10.830 -0.1426 -1.0583  1.2090
  104OSM   H14C10542   1.548   1.070  10.760  0.5493  0.7111 -0.8904
  104OSM    C1310543   1.209   1.118  10.693 -0.2199  0.4372  0.2517
  104OSM   H13A10544   1.180   1.032  10.751  2.0052 -0.9837 -0.6570
  104OSM   H13B10545   1.151   1.119  10.602 -0.7536 -0.1120  0.5808
  104OSM   H13C10546   1.192   1.204  10.757  2.6056  1.7408 -0.5904
  104OSM    C1210547   1.360   0.953  10.586 -0.7680 -0.6099 -0.7188
  104OSM   H12A10548   1.278   0.938  10.517  0.7774 -0.3864 -2.6851
  104OSM   H12B10549   1.339   0.870  10.652  1.3092 -1.2022 -0.7458
  104OSM    C1110550   1.492   0.917  10.509  0.0600  0.6302 -0.7646
  104OSM   H11A10551   1.504   0.981  10.419 -1.8896 -0.2195 -1.7031
  104OSM   H11B10552   1.474   0.811  10.482 -0.9978  0.5674  0.0790
  104OSM      P10553   1.745   0.977  10.553  0.6027 -0.9638 -0.2738
  104OSM    O1310554   1.819   0.999  10.680 -0.3796 -0.7154 -0.6120
  104OSM    O1410555   1.792   0.880  10.462 -0.1720  0.0167  0.5290
  104OSM    O1110556   1.720   1.115  10.478 -0.6146 -0.1502 -0.3801
  104OSM    O1210557   1.603   0.927  10.594 -0.3581 -0.4887  0.4147
  104OSM    C1S10558   1.798   1.234  10.508 -0.0005 -0.7306 -0.2091
  104OSM    H1S10559   1.880   1.203  10.576 -0.4067 -1.5423 -0.0832
  104OSM    H1T10560   1.732   1.295  10.574 -0.1818  0.7070 -1.6506
  104OSM     NF10561   1.937   1.415  10.397  0.3214 -0.0539 -0.4091
  104OSM    HNF10562   1.896   1.505  10.394  0.2847 -0.0936 -2.9328
  104OSM    C2S10563   1.854   1.294  10.378 -0.2961 -0.0947  0.2200
  104OSM    H2S10564   1.915   1.212  10.334  0.3403  0.6373 -0.2897
  104OSM    C3S10565   1.744   1.319  10.266  0.1095 -0.0652 -0.0584
  104OSM    H3S10566   1.678   1.398  10.306  0.8790 -0.0924  1.3350
  104OSM     O310567   1.666   1.202  10.223 -0.2972  0.2053  0.1947
  104OSM    HO310568   1.667   1.146  10.302 -1.9248 -1.0477 -0.6031
  104OSM    C4S10569   1.802   1.362  10.138 -0.1462 -0.1049 -0.4577
  104OSM    H4S10570   1.890   1.305  10.104 -1.0459 -1.0388 -1.3049
  104OSM    C5S10571   1.764   1.469  10.061 -0.1219 -0.4574 -0.2527
  104OSM    H5S10572   1.678   1.529  10.094 -0.6049 -1.2144 -0.1060
  104OSM    C6S10573   1.823   1.492   9.923  0.8513 -0.2030 -0.7332
  104OSM    H6S10574   1.880   1.587   9.922 -1.9454  1.6081  0.4831
  104OSM    H6T10575   1.736   1.512   9.857  0.1512 -2.1825 -0.4763
  104OSM    C7S10576   1.902   1.382   9.855 -0.7952 -0.0041  0.3050
  104OSM    H7S10577   1.847   1.285   9.862  1.3464 -1.3365 -0.4611
  104OSM    H7T10578   1.999   1.356   9.902  0.0063 -0.2692 -1.3887
  104OSM    C8S10579   1.930   1.413   9.709  0.7234 -0.0864  0.0557
  104OSM    H8S10580   2.015   1.349   9.675 -0.9473 -1.7459 -1.2076
  104OSM    H8T10581   1.945   1.521   9.689  0.9930 -0.2439 -0.6692
  104OSM    C9S10582   1.818   1.363   9.615 -0.1112  0.2713  0.3849
  104OSM    H9S10583   1.719   1.405   9.641 -1.0090 -2.4602  1.7521
  104OSM    H9T10584   1.803   1.256   9.642 -1.4026  0.9026  2.2971
  104OSM   C10S10585   1.864   1.386   9.472  0.1681  0.1819  0.0103
  104OSM   H10S10586   1.967   1.345   9.470  0.1273 -0.2574  2.7779
  104OSM   H10T10587   1.857   1.497   9.470 -1.3405  0.0966 -0.3224
  104OSM   C11S10588   1.776   1.317   9.368  0.1497 -0.4350  1.1581
  104OSM   H11S10589   1.671   1.354   9.371 -0.5836 -2.2259 -0.4452
  104OSM   H11T10590   1.772   1.207   9.382 -1.5081 -0.6490 -0.5865
  104OSM   C12S10591   1.827   1.359   9.226 -0.4194  0.1813  0.1489
  104OSM   H12S10592   1.930   1.319   9.213  0.0927  1.5450 -0.2079
  104OSM   H12T10593   1.837   1.470   9.220 -0.4122  0.1930  0.3707
  104OSM   C13S10594   1.728   1.331   9.120 -0.9524  0.3783 -0.0969
  104OSM   H13S10595   1.741   1.405   9.038 -0.6480 -0.5348 -0.8953
  104OSM   H13T10596   1.630   1.355   9.165  0.0417 -1.2225  3.2162
  104OSM   C14S10597   1.741   1.192   9.059 -0.2652  0.2020  0.7785
  104OSM   H14S10598   1.755   1.112   9.135  0.7731 -0.4910 -0.1230
  104OSM   H14T10599   1.829   1.186   8.992 -1.3314 -2.6853 -0.5234
  104OSM   C15S10600   1.613   1.155   8.983 -0.6653  0.3518  0.5343
  104OSM   H15S10601   1.599   1.222   8.896 -2.6665 -1.6662 -0.8203
  104OSM   H15T10602   1.535   1.168   9.061  0.7040 -0.9640  2.2109
  104OSM   C16S10603   1.611   1.010   8.946  0.1342 -0.6968 -0.3749
  104OSM   H16S10604   1.632   0.953   9.039 -1.7768 -0.5061  0.2261
  104OSM   H16T10605   1.678   0.980   8.864  0.1967 -0.5177 -0.3891
  104OSM   C17S10606   1.468   0.963   8.906 -1.1785  0.3742  0.2345
  104OSM   H17S10607   1.452   0.999   8.802  1.3078  2.3549  0.4268
  104OSM   H17T10608   1.384   0.998   8.968 -5.0814 -1.5714 -3.4528
  104OSM   C18S10609   1.468   0.806   8.906 -0.2112  0.0658 -0.1673
  104OSM   H18S10610   1.549   0.761   8.846  1.7298 -0.6443  2.7672
  104OSM   H18T10611   1.370   0.759   8.885 -1.4260  1.7759  1.3077
  104OSM   H18U10612   1.484   0.773   9.011  0.7171  0.6804 -0.0987
  104OSM    C1F10613   2.051   1.403  10.470 -0.3331  0.3195 -0.2839
  104OSM     OF10614   2.087   1.292  10.507 -0.8046 -0.5239  0.6674
  104OSM    C2F10615   2.131   1.526  10.500 -0.1783 -0.0742  0.9962
  104OSM    H2F10616   2.223   1.511  10.560  2.1246  1.2041 -1.9774
  104OSM    H2G10617   2.057   1.591  10.552 -1.7004  0.8052 -1.9912
  104OSM    C3F10618   2.168   1.582  10.362 -0.8970  0.3603  0.3077
  104OSM    H3F10619   2.204   1.687  10.369  1.2920 -0.3956  1.4013
  104OSM    H3G10620   2.074   1.598  10.305  0.3460  2.1078 -1.3598
  104OSM    C4F10621   2.260   1.513  10.265 -0.5132 -0.5130 -0.0169
  104OSM    H4F10622   2.224   1.417  10.222 -0.0248 -1.3290  1.3384
  104OSM    H4G10623   2.356   1.493  10.317  0.8468  1.8995 -1.4436
  104OSM    C5F10624   2.303   1.592  10.142 -0.2420  0.1148 -0.1654
  104OSM    H5F10625   2.369   1.677  10.171  2.4222 -1.6769 -0.6293
  104OSM    H5G10626   2.205   1.630  10.104 -1.2705 -1.4460  0.8022
  104OSM    C6F10627   2.379   1.504  10.051 -0.6546 -0.6654 -0.0703
  104OSM    H6F10628   2.322   1.410  10.033 -3.1916  0.3728  1.8822
  104OSM    H6G10629   2.462   1.487  10.122 -0.7890  2.3465  0.9221
  104OSM    C7F10630   2.425   1.562   9.917  0.4995 -0.3723  0.4504
  104OSM    H7F10631   2.492   1.495   9.859  0.4859 -0.4425  0.5146
  104OSM    H7G10632   2.494   1.646   9.938  2.1613 -1.7481  0.7216
  104OSM    C8F10633   2.301   1.584   9.813  0.0600 -0.2955 -0.1649
  104OSM    H8F10634   2.237   1.653   9.873  0.1666 -0.6734  0.3962
  104OSM    H8G10635   2.255   1.485   9.792 -2.2267 -0.4014  4.1837
  104OSM    C9F10636   2.349   1.667   9.703  0.3931  0.8481 -0.0651
  104OSM    H9F10637   2.396   1.765   9.720  0.3835  1.3110 -2.3087
  104OSM   C10F10638   2.339   1.617   9.576 -1.0452  0.5264 -0.0509
  104OSM   H10F10639   2.374   1.687   9.499  0.6294  1.6647  1.6691
  104OSM   C11F10640   2.280   1.489   9.533 -0.6352 -0.2380  0.1096
  104OSM   H11F10641   2.178   1.469   9.571 -0.0952  0.2647  1.9057
  104OSM   H11G10642   2.343   1.404   9.566  1.6732  1.8523  1.3738
  104OSM   C12F10643   2.278   1.475   9.379 -0.3781  0.2470  0.2201
  104OSM   H12F10644   2.271   1.371   9.340  0.0359  1.0970 -2.3121
  104OSM   H12G10645   2.375   1.511   9.338  0.0048  0.9054  1.6094
  104OSM   C13F10646   2.160   1.552   9.322 -0.2803  0.8191  0.2122
  104OSM   H13F10647   2.183   1.656   9.356 -0.0747  0.8232  0.0615
  104OSM   H13G10648   2.067   1.514   9.369  0.6989 -3.3349 -0.8138
  104OSM   C14F10649   2.169   1.545   9.170 -0.0026  0.2273 -0.0986
  104OSM   H14F10650   2.143   1.442   9.138  2.4125 -0.1285 -1.1807
  104OSM   H14G10651   2.273   1.565   9.135  0.1947 -0.0088  0.3509
  104OSM   C15F10652   2.084   1.644   9.091 -1.0872  0.6577 -0.4933
  104OSM   H15F10653   2.146   1.736   9.091  1.2966 -0.8457 -1.8679
  104OSM   H15G10654   1.980   1.654   9.130 -1.5640 -0.8182 -1.3226
  104OSM   C16F10655   2.083   1.603   8.944  0.3125 -0.0817  0.1353
  104OSM   H16F10656   2.037   1.502   8.944  1.5908 -0.6959  0.9482
  104OSM   H16G10657   2.188   1.583   8.912  1.2251  1.0395  2.2115
  104OSM   C17F10658   2.005   1.704   8.874  0.1916  0.5519 -0.0467
  104OSM   H17F10659   1.999   1.682   8.765  0.7971 -2.4407  0.4479
  104OSM   H17G10660   2.066   1.795   8.891  2.7617 -0.9317 -0.8327
  104OSM   C18F10661   1.862   1.744   8.924  0.1092 -0.2935 -0.3097
  104OSM   H18F10662   1.811   1.817   8.858  0.7498  2.9438  2.4919
  104OSM   H18G10663   1.876   1.797   9.021  1.4945 -0.3683 -0.4550
  104OSM   H18H10664   1.798   1.660   8.959  1.2544 -1.7016 -1.4862
  105OSM      N10665   0.303   0.013  11.058 -0.4839  0.4877 -0.2523
  105OSM    C1510666   0.232  -0.045  10.941 -0.4684 -0.2733 -0.1450
  105OSM   H15A10667   0.307  -0.064  10.866  0.4181  2.7094 -0.1216
  105OSM   H15B10668   0.167   0.027  10.894 -1.6282 -1.5963 -0.6503
  105OSM   H15C10669   0.183  -0.141  10.954  0.7197 -1.2869 -2.5653
  105OSM    C1410670   0.207   0.033  11.166  0.3741 -0.2407 -0.3599
  105OSM   H14A10671   0.144  -0.049  11.197 -0.3183  1.1668  2.2885
  105OSM   H14B10672   0.135   0.110  11.142  0.0280  1.0418  3.9128
  105OSM   H14C10673   0.252   0.078  11.253  1.8957  0.5147 -1.4885
  105OSM    C1310674   0.405  -0.083  11.110  0.2848  0.2930 -0.6151
  105OSM   H13A10675   0.356  -0.172  11.146  0.6574  1.2182  2.4411
  105OSM   H13B10676   0.454  -0.034  11.193 -1.8272  1.1050  0.2161
  105OSM   H13C10677   0.484  -0.095  11.037  2.4089  0.0678  1.5857
  105OSM    C1210678   0.370   0.146  11.017 -0.7088 -0.1221  0.0526
  105OSM   H12A10679   0.413   0.191  11.106 -2.1666 -1.1131  1.3173
  105OSM   H12B10680   0.294   0.218  10.992  0.9797  1.2244 -1.4123
  105OSM    C1110681   0.483   0.137  10.910 -0.5138 -0.1687  0.2474
  105OSM   H11A10682   0.489   0.242  10.875 -1.2354 -0.7220 -1.6579
  105OSM   H11B10683   0.442   0.075  10.828 -1.5768  1.5147 -0.5651
  105OSM      P10684   0.707   0.201  11.023 -0.1310 -0.1159  0.1482
  105OSM    O1310685   0.637   0.302  11.107  0.0597  0.1505 -0.3545
  105OSM    O1410686   0.809   0.123  11.093  0.2705 -0.1545 -0.5841
  105OSM    O1110687   0.780   0.272  10.905  0.5528 -0.4028  0.0082
  105OSM    O1210688   0.611   0.097  10.951  0.0987 -0.0820 -0.5400
  105OSM    C1S10689   0.827   0.214  10.790  0.1327  0.0379 -0.1581
  105OSM    H1S10690   0.741   0.212  10.719 -1.5301 -0.0204  1.7650
  105OSM    H1T10691   0.846   0.106  10.811 -0.0770  0.0157 -0.0780
  105OSM     NF10692   0.963   0.256  10.593  0.0970 -0.3742 -0.7691
  105OSM    HNF10693   1.049   0.208  10.574 -0.1473 -1.3733  0.4793
  105OSM    C2S10694   0.933   0.302  10.729 -0.2126 -0.2367 -1.0512
  105OSM    H2S10695   0.900   0.408  10.727  0.2435 -0.0949 -2.9020
  105OSM    C3S10696   1.054   0.299  10.829  0.0740 -1.6138  0.2326
  105OSM    H3S10697   1.088   0.194  10.826  1.7736 -1.0963 -0.0240
  105OSM     O310698   1.030   0.328  10.968 -0.3409 -0.8696  0.2672
  105OSM    HO310699   0.934   0.336  10.973 -0.5876 -2.0736 -1.4819
  105OSM    C4S10700   1.161   0.389  10.776 -0.2969 -0.0542 -0.0747
  105OSM    H4S10701   1.124   0.486  10.741 -0.3277  0.1995  0.6296
  105OSM    C5S10702   1.286   0.347  10.753  0.6386  0.1983 -0.2883
  105OSM    H5S10703   1.326   0.252  10.790 -1.5346 -1.2960 -1.5692
  105OSM    C6S10704   1.389   0.439  10.693  0.0116 -0.1520 -0.6969
  105OSM    H6S10705   1.446   0.383  10.616 -0.5205 -1.4516 -0.1687
  105OSM    H6T10706   1.464   0.476  10.766 -0.4882  2.8038 -1.5312
  105OSM    C7S10707   1.340   0.568  10.615  1.4996  0.8015  0.5612
  105OSM    H7S10708   1.426   0.632  10.587  2.1156 -0.1123  0.3084
  105OSM    H7T10709   1.270   0.631  10.674  0.1042  0.1834 -0.3771
  105OSM    C8S10710   1.263   0.539  10.488  0.4267  0.3508  0.7953
  105OSM    H8S10711   1.192   0.455  10.502 -1.3159  1.5444 -0.3166
  105OSM    H8T10712   1.337   0.531  10.406  1.9452 -1.8971  2.2821
  105OSM    C9S10713   1.159   0.654  10.457  0.2856 -0.3957  0.6305
  105OSM    H9S10714   1.222   0.740  10.426  4.2248 -3.2359  0.0300
  105OSM    H9T10715   1.108   0.663  10.555 -1.2827  2.3755 -0.3322
  105OSM   C10S10716   1.061   0.618  10.342  0.0369  0.1704 -0.4459
  105OSM   H10S10717   1.004   0.711  10.322 -0.6080  0.0146  0.5682
  105OSM   H10T10718   0.980   0.548  10.371  0.1021  0.7035  1.1158
  105OSM   C11S10719   1.137   0.578  10.213 -0.3612 -0.2033 -0.0871
  105OSM   H11S10720   1.172   0.472  10.216  1.6473  0.3981 -0.7135
  105OSM   H11T10721   1.225   0.646  10.212 -0.6712  0.1992 -0.2672
  105OSM   C12S10722   1.060   0.610  10.086  0.2036  0.1787 -0.4602
  105OSM   H12S10723   1.039   0.719  10.077  0.0531  0.1786 -0.1393
  105OSM   H12T10724   0.960   0.560  10.089  0.9458 -1.3005  1.6586
  105OSM   C13S10725   1.141   0.577   9.961 -0.8068 -0.2493 -0.2522
  105OSM   H13S10726   1.171   0.472   9.944  1.1994  0.3919 -0.9578
  105OSM   H13T10727   1.230   0.643   9.961 -2.1624  1.8081  3.0332
  105OSM   C14S10728   1.056   0.600   9.833 -0.0636  0.2850  0.3706
  105OSM   H14S10729   1.010   0.701   9.825 -3.0240 -0.9786  0.0845
  105OSM   H14T10730   0.970   0.530   9.840 -0.5389  0.6543 -1.3083
  105OSM   C15S10731   1.133   0.569   9.711 -0.3839  0.4128 -0.1530
  105OSM   H15S10732   1.143   0.459   9.697  2.7726  0.4306  1.2941
  105OSM   H15T10733   1.233   0.617   9.711 -0.6527  1.1978  3.1707
  105OSM   C16S10734   1.068   0.625   9.577  0.0547  0.1000  0.0139
  105OSM   H16S10735   1.043   0.733   9.585  0.0797 -0.0260  2.6151
  105OSM   H16T10736   0.970   0.575   9.563 -0.1604  0.1487  1.2601
  105OSM   C17S10737   1.148   0.592   9.450  0.2345  0.4009 -0.8410
  105OSM   H17S10738   1.133   0.483   9.439 -0.5544  0.6150 -1.9775
  105OSM   H17T10739   1.259   0.597   9.458  0.2056  1.9458 -1.0710
  105OSM   C18S10740   1.106   0.656   9.318 -0.3213  0.2164  0.4449
  105OSM   H18S10741   1.053   0.750   9.346  1.6367  1.5924 -0.2741
  105OSM   H18T10742   1.026   0.594   9.272  2.0865 -1.3459 -1.8820
  105OSM   H18U10743   1.178   0.683   9.238 -0.7619 -0.2844 -0.1219
  105OSM    C1F10744   0.885   0.291  10.498 -0.1208  0.2200  0.7219
  105OSM     OF10745   0.780   0.352  10.512  0.6053 -0.0240 -0.3464
  105OSM    C2F10746   0.946   0.252  10.367  0.7551  0.2492  0.1061
  105OSM    H2F10747   0.994   0.153  10.378 -0.7991 -0.5773 -0.3413
  105OSM    H2G10748   1.025   0.325  10.339  0.4098  1.1028  1.2521
  105OSM    C3F10749   0.840   0.228  10.262  0.0811  0.0078  0.0823
  105OSM    H3F10750   0.776   0.318  10.248  0.7164  0.2794 -1.2508
  105OSM    H3G10751   0.772   0.144  10.289  2.2009 -0.9613  2.7845
  105OSM    C4F10752   0.905   0.209  10.122 -0.1271 -0.0232  0.0811
  105OSM    H4F10753   0.998   0.148  10.132 -0.5147 -0.4074  1.6370
  105OSM    H4G10754   0.934   0.311  10.089  1.9087 -0.6973 -0.3565
  105OSM    C5F10755   0.808   0.167  10.012 -0.2258 -0.5186 -0.1006
  105OSM    H5F10756   0.704   0.196  10.035 -0.2965 -2.2010  2.0266
  105OSM    H5G10757   0.814   0.057  10.003  0.7766 -0.4249 -0.7485
  105OSM    C6F10758   0.851   0.215   9.873 -1.1082  1.0405 -0.0882
  105OSM    H6F10759   0.962   0.207   9.879 -1.0819  0.7594 -0.7911
  105OSM    H6G10760   0.841   0.325   9.860 -2.3751  1.0643  0.9313
  105OSM    C7F10761   0.788   0.152   9.744 -0.3809  0.7277 -0.3914
  105OSM    H7F10762   0.678   0.144   9.752 -0.2135 -4.6322  0.1240
  105OSM    H7G10763   0.832   0.050   9.745 -1.4150  0.2487 -1.3310
  105OSM    C8F10764   0.828   0.216   9.610  0.1429  0.0191 -1.2293
  105OSM    H8F10765   0.785   0.318   9.608 -1.7915 -0.6571  1.2992
  105OSM    H8G10766   0.775   0.165   9.527  0.3693 -0.1421 -1.2777
  105OSM    C9F10767   0.971   0.210   9.584 -0.3705  0.2544 -0.1668
  105OSM    H9F10768   1.043   0.192   9.666 -0.5474  0.2004 -0.0230
  105OSM   C10F10769   1.017   0.195   9.460  0.2046 -0.7300 -0.6923
  105OSM   H10F10770   1.125   0.193   9.437  0.4702  1.2367  0.1251
  105OSM   C11F10771   0.934   0.200   9.331  0.4065  0.2298  0.0080
  105OSM   H11F10772   0.980   0.266   9.254 -0.7484 -0.4936 -1.3407
  105OSM   H11G10773   0.838   0.254   9.345  1.7520  3.0309 -0.8277
  105OSM   C12F10774   0.909   0.065   9.259  0.1960  0.5825 -0.2939
  105OSM   H12F10775   0.803   0.033   9.265  0.5511 -0.7157 -0.6116
  105OSM   H12G10776   0.965  -0.021   9.301  0.6850  0.1451 -1.7884
  105OSM   C13F10777   0.941   0.048   9.104 -0.0999 -0.5325 -0.4245
  105OSM   H13F10778   0.983  -0.053   9.090  1.5630 -0.1300  1.1983
  105OSM   H13G10779   1.027   0.114   9.079 -0.0613  1.6043  4.2341
  105OSM   C14F10780   0.825   0.079   9.011  0.2741 -0.4011  0.6092
  105OSM   H14F10781   0.780   0.174   9.046 -1.7401 -1.6841  1.7289
  105OSM   H14G10782   0.739   0.013   9.035 -2.8714  2.9362 -0.5877
  105OSM   C15F10783   0.870   0.084   8.864 -0.0093  0.3423  0.2053
  105OSM   H15F10784   0.854  -0.018   8.824  0.0026  0.6741 -0.6645
  105OSM   H15G10785   0.977   0.112   8.853  0.1928 -1.1364 -2.2835
  105OSM   C16F10786   0.782   0.175   8.772 -0.0113  0.0568  0.2217
  105OSM   H16F10787   0.673   0.156   8.786 -0.2059  0.5170 -0.5739
  105OSM   H16G10788   0.804   0.149   8.666 -0.5292  0.3560  0.0342
  105OSM   C17F10789   0.814   0.329   8.781  0.0359 -0.6115 -0.3189
  105OSM   H17F10790   0.923   0.349   8.784 -0.1998  0.8533 -0.7667
  105OSM   H17G10791   0.777   0.366   8.879  0.7592  0.5898 -0.4736
  105OSM   C18F10792   0.754   0.401   8.662 -0.7005 -0.3025  0.3431
  105OSM   H18F10793   0.761   0.511   8.677  0.8672 -0.2017 -0.7946
  105OSM   H18G10794   0.652   0.366   8.636  0.6304 -3.3791 -1.1959
  105OSM   H18H10795   0.820   0.381   8.575 -2.5997 -2.1620 -0.7599
  106OSM      N10796   2.222   5.366  11.086  0.1863 -0.4728  0.1533
  106OSM    C1510797   2.247   5.231  11.034  0.4257  0.4610  0.5170
  106OSM   H15A10798   2.242   5.157  11.112 -2.1824 -0.3876 -0.3396
  106OSM   H15B10799   2.345   5.231  10.987  0.6494  2.7393  0.8610
  106OSM   H15C10800   2.179   5.208  10.954  0.2915 -0.7247  0.9529
  106OSM    C1410801   2.080   5.380  11.133  0.1070 -0.0695 -0.7233
  106OSM   H14A10802   2.008   5.363  11.055 -1.0495  0.5393  0.1751
  106OSM   H14B10803   2.058   5.468  11.191  0.4752 -0.9205  0.7594
  106OSM   H14C10804   2.064   5.298  11.201  0.3021  0.5688  0.1096
  106OSM    C1310805   2.312   5.386  11.197 -0.2491  0.0382 -0.1857
  106OSM   H13A10806   2.408   5.416  11.158 -1.1085  0.5756 -1.9936
  106OSM   H13B10807   2.322   5.293  11.250 -1.2774  1.1631  2.1436
  106OSM   H13C10808   2.276   5.465  11.262 -1.5336  0.3562 -1.2454
  106OSM    C1210809   2.259   5.453  10.967  0.0874 -0.3085  0.2950
  106OSM   H12A10810   2.362   5.435  10.941 -0.1457 -1.2742  0.0016
  106OSM   H12B10811   2.247   5.557  10.991  1.1775  0.2202 -1.3208
  106OSM    C1110812   2.175   5.455  10.839  0.0174  0.6368  0.7064
  106OSM   H11A10813   2.167   5.352  10.798 -0.2605 -0.5616  3.4946
  106OSM   H11B10814   2.229   5.521  10.768 -0.9336 -0.1308 -0.7853
  106OSM      P10815   1.994   5.640  10.864 -0.8752  0.2748  0.2064
  106OSM    O1310816   1.853   5.640  10.907  0.0069  0.2345 -0.3091
  106OSM    O1410817   2.096   5.721  10.935 -0.3490 -0.1812  0.3840
  106OSM    O1110818   2.006   5.679  10.705 -0.6000  1.0555 -0.6818
  106OSM    O1210819   2.039   5.488  10.861  0.5300 -0.5297  0.7177
  106OSM    C1S10820   1.899   5.663  10.616  0.7308 -0.0937 -0.0189
  106OSM    H1S10821   1.801   5.691  10.660  0.8194  0.0276  0.1010
  106OSM    H1T10822   1.888   5.556  10.587  1.2886 -0.5149  1.2465
  106OSM     NF10823   1.791   5.733  10.393 -0.1098  0.5333  0.5520
  106OSM    HNF10824   1.787   5.663  10.322  1.4625  1.5914 -0.6767
  106OSM    C2S10825   1.915   5.737  10.473 -0.1556 -0.3218  0.6782
  106OSM    H2S10826   1.937   5.844  10.494  1.4494 -0.4413 -0.2649
  106OSM    C3S10827   2.025   5.672  10.387 -0.0751  0.3262 -0.7420
  106OSM    H3S10828   1.987   5.582  10.333 -1.0676  1.2940 -1.7290
  106OSM     O310829   2.129   5.632  10.469  0.0652 -0.3773  0.0211
  106OSM    HO310830   2.106   5.663  10.557 -1.9736 -1.1253 -0.1908
  106OSM    C4S10831   2.073   5.780  10.287 -0.2278  0.3679 -0.2327
  106OSM    H4S10832   2.110   5.871  10.336 -1.6300  0.0575  1.5188
  106OSM    C5S10833   2.079   5.763  10.153 -0.0285  0.1066 -0.1911
  106OSM    H5S10834   2.060   5.666  10.103  0.3495 -2.4791  4.1078
  106OSM    C6S10835   2.121   5.863  10.058  0.1823 -0.2276  0.3601
  106OSM    H6S10836   2.056   5.858   9.968 -1.6167  0.8573  1.5237
  106OSM    H6T10837   2.220   5.835  10.016  1.4070 -0.3225  3.1019
  106OSM    C7S10838   2.110   6.014  10.102 -0.6091 -0.2135  0.4537
  106OSM    H7S10839   2.169   6.018  10.196 -0.1487 -2.5476  0.3121
  106OSM    H7T10840   2.003   6.029  10.128 -0.3555  1.3551  0.7301
  106OSM    C8S10841   2.152   6.105   9.989 -0.3324  0.4862 -0.1322
  106OSM    H8S10842   2.225   6.045   9.931  0.9880  1.0229  0.9207
  106OSM    H8T10843   2.204   6.196  10.025 -1.8648  0.6432  1.8150
  106OSM    C9S10844   2.038   6.151   9.896  0.8855 -0.7597  0.8169
  106OSM    H9S10845   1.947   6.168   9.957  0.2215  0.6494 -0.5106
  106OSM    H9T10846   2.008   6.068   9.827  0.1981  0.6469 -0.6480
  106OSM   C10S10847   2.082   6.263   9.792  0.6511 -0.2439 -0.3416
  106OSM   H10S10848   2.168   6.232   9.728  0.3297  0.7811 -1.2970
  106OSM   H10T10849   2.123   6.343   9.857  1.3923 -2.8533  2.6270
  106OSM   C11S10850   1.964   6.312   9.712 -0.0920  0.7462 -0.0095
  106OSM   H11S10851   1.975   6.421   9.696 -5.1447  2.0724  3.1248
  106OSM   H11T10852   1.872   6.311   9.775  0.4262 -1.5695  0.8240
  106OSM   C12S10853   1.942   6.256   9.569 -0.5397  0.8347 -0.7177
  106OSM   H12S10854   1.940   6.145   9.580 -1.4187  0.9327  0.2519
  106OSM   H12T10855   2.024   6.295   9.505 -0.9293  2.7608 -0.0937
  106OSM   C13S10856   1.818   6.306   9.491  0.6613 -0.5224  0.3430
  106OSM   H13S10857   1.840   6.412   9.468 -1.1432 -0.5478 -1.7953
  106OSM   H13T10858   1.727   6.293   9.553 -0.2463  2.0134 -0.3284
  106OSM   C14S10859   1.804   6.223   9.362 -0.0865  0.4226  0.0131
  106OSM   H14S10860   1.774   6.120   9.393 -1.0353  1.5050  3.0680
  106OSM   H14T10861   1.906   6.214   9.319 -0.1562 -0.7194  0.0639
  106OSM   C15S10862   1.704   6.270   9.253  0.6632 -0.0277 -0.4383
  106OSM   H15S10863   1.739   6.368   9.214  0.1858  0.9812  1.5123
  106OSM   H15T10864   1.600   6.277   9.292  0.5738  0.1354 -0.7030
  106OSM   C16S10865   1.685   6.175   9.135  0.1695  0.6598  0.9677
  106OSM   H16S10866   1.597   6.213   9.079 -0.5791 -1.5305  0.5555
  106OSM   H16T10867   1.655   6.075   9.174  1.6928 -0.4453 -0.5481
  106OSM   C17S10868   1.803   6.178   9.030  0.5125 -0.0205 -0.2503
  106OSM   H17S10869   1.790   6.092   8.960 -0.8932  0.5865 -0.7764
  106OSM   H17T10870   1.896   6.161   9.087  0.7735  1.4934 -0.1886
  106OSM   C18S10871   1.816   6.310   8.955  0.1591 -0.4710  0.0841
  106OSM   H18S10872   1.726   6.333   8.894  0.8614 -0.0131 -0.7963
  106OSM   H18T10873   1.882   6.294   8.867  0.2027  0.7499 -0.1175
  106OSM   H18U10874   1.851   6.402   9.005 -0.7718  0.2598 -0.5580
  106OSM    C1F10875   1.683   5.809  10.413 -0.3749  0.0397  0.2881
  106OSM     OF10876   1.672   5.888  10.506  0.5840  0.1654 -0.1361
  106OSM    C2F10877   1.564   5.776  10.333  0.1539  0.4138 -0.0840
  106OSM    H2F10878   1.477   5.767  10.402 -0.4738  0.0131 -0.9030
  106OSM    H2G10879   1.565   5.673  10.291 -0.3457  0.6605 -0.7178
  106OSM    C3F10880   1.547   5.879  10.225 -0.6267 -0.3088  0.5218
  106OSM    H3F10881   1.514   5.972  10.276 -1.3205 -0.9982  1.3626
  106OSM    H3G10882   1.458   5.844  10.168  0.9184 -1.4400 -1.3548
  106OSM    C4F10883   1.668   5.894  10.130  0.0759 -0.2793 -0.0183
  106OSM    H4F10884   1.755   5.940  10.182 -1.6526  2.2872  0.7618
  106OSM    H4G10885   1.629   5.966  10.055  0.4829 -0.6820 -0.6334
  106OSM    C5F10886   1.708   5.768  10.043  0.0572  0.0805  1.0740
  106OSM    H5F10887   1.620   5.704  10.022 -0.7675  1.0146  1.5967
  106OSM    H5G10888   1.777   5.709  10.106  1.2661  0.3502  0.0464
  106OSM    C6F10889   1.786   5.801   9.915 -0.0783  0.0952  0.3447
  106OSM    H6F10890   1.838   5.713   9.871  0.8482 -0.2618  2.0613
  106OSM    H6G10891   1.867   5.868   9.953  1.3228 -2.2388  1.7203
  106OSM    C7F10892   1.703   5.866   9.804 -0.3543 -0.3871  0.0964
  106OSM    H7F10893   1.672   5.961   9.852  1.3785  0.4028 -0.2649
  106OSM    H7G10894   1.604   5.817   9.788 -0.5167 -0.0026 -0.0818
  106OSM    C8F10895   1.774   5.912   9.673 -0.0044  0.6929 -0.1523
  106OSM    H8F10896   1.861   5.969   9.712 -0.3732  1.0447  0.1706
  106OSM    H8G10897   1.711   5.986   9.619  0.9638 -0.4240 -3.0277
  106OSM    C9F10898   1.814   5.803   9.571  0.3990  0.1514 -0.4014
  106OSM    H9F10899   1.731   5.767   9.507 -0.1522 -1.1725  0.9894
  106OSM   C10F10900   1.936   5.759   9.555  0.4303  0.0766  0.3890
  106OSM   H10F10901   1.957   5.693   9.469  2.3468  2.5531 -1.1797
  106OSM   C11F10902   2.071   5.793   9.618 -0.1415 -0.1330  0.2485
  106OSM   H11F10903   2.133   5.701   9.619 -1.1147 -0.8643 -1.6650
  106OSM   H11G10904   2.051   5.829   9.721 -3.1889 -0.0523 -0.2811
  106OSM   C12F10905   2.153   5.901   9.556  0.3682  0.0888  0.2855
  106OSM   H12F10906   2.238   5.912   9.627  0.6999  0.5758 -0.1799
  106OSM   H12G10907   2.096   5.996   9.552  1.0357  0.4526 -1.1760
  106OSM   C13F10908   2.190   5.881   9.413  0.6781 -0.0066 -0.3309
  106OSM   H13F10909   2.095   5.875   9.354 -1.6059  1.8232  2.8736
  106OSM   H13G10910   2.247   5.787   9.403 -1.1522 -1.2458  0.2904
  106OSM   C14F10911   2.283   5.985   9.351 -0.3440  0.2453 -0.2797
  106OSM   H14F10912   2.366   6.006   9.421 -0.4871  2.9878 -0.7852
  106OSM   H14G10913   2.241   6.087   9.335  0.8868  0.7937 -0.1442
  106OSM   C15F10914   2.343   5.930   9.216  0.4388 -0.7124 -0.2391
  106OSM   H15F10915   2.273   5.939   9.131  1.1528 -0.3710 -0.8064
  106OSM   H15G10916   2.392   5.831   9.225  0.3450 -0.6339  1.5843
  106OSM   C16F10917   2.459   6.017   9.163 -0.5369 -0.1582  0.2978
  106OSM   H16F10918   2.550   6.030   9.225  0.2096  0.6718 -0.9265
  106OSM   H16G10919   2.415   6.119   9.167 -0.4876 -0.1874  3.1407
  106OSM   C17F10920   2.510   5.976   9.028 -0.0013 -0.0206  0.3951
  106OSM   H17F10921   2.428   5.966   8.953  0.5371  0.4383 -0.2588
  106OSM   H17G10922   2.573   5.885   9.031  0.4583  0.3167  1.9174
  106OSM   C18F10923   2.605   6.085   8.966  0.7669  0.3881  0.7833
  106OSM   H18F10924   2.696   6.094   9.029  1.5260  0.2023 -0.2619
  106OSM   H18G10925   2.539   6.174   8.955 -0.5033 -0.6546 -0.4001
  106OSM   H18H10926   2.629   6.044   8.866 -0.8945  0.3997  0.3392
  107OSM      N10927   4.432   2.282  11.208 -0.3810  0.5888 -1.2000
  107OSM    C1510928   4.361   2.213  11.092  0.2330  0.2324 -0.6344
  107OSM   H15A10929   4.353   2.107  11.110 -2.4606  0.7282  1.9792
  107OSM   H15B10930   4.427   2.226  11.008 -0.2344  0.2078 -1.0161
  107OSM   H15C10931   4.264   2.260  11.081  0.6794  0.9716 -1.5576
  107OSM    C1410932   4.384   2.237  11.341  0.1170 -0.4480  0.3606
  107OSM   H14A10933   4.428   2.284  11.428  2.1850  0.8609 -1.3191
  107OSM   H14B10934   4.412   2.136  11.364 -0.5275 -0.7525 -0.1544
  107OSM   H14C10935   4.276   2.231  11.335  0.2465 -1.6662 -1.2832
  107OSM    C1310936   4.582   2.249  11.194 -0.4457 -0.1961 -1.0858
  107OSM   H13A10937   4.632   2.278  11.103  1.3407 -0.0645 -0.1065
  107OSM   H13B10938   4.601   2.144  11.202 -1.5307 -0.4719 -1.8413
  107OSM   H13C10939   4.639   2.292  11.276 -1.9115 -0.6308  0.2080
  107OSM    C1210940   4.424   2.435  11.203 -0.5244  0.2016  0.5322
  107OSM   H12A10941   4.470   2.471  11.112  1.9566 -3.6531  0.0124
  107OSM   H12B10942   4.491   2.469  11.280  0.8958 -1.5628  0.1547
  107OSM    C1110943   4.288   2.495  11.231 -0.7235  0.5942 -0.2013
  107OSM   H11A10944   4.298   2.603  11.207  3.5295  0.4962  0.3921
  107OSM   H11B10945   4.267   2.470  11.337  0.6148  0.3480  0.0246
  107OSM      P10946   4.050   2.476  11.167  0.0005 -0.0582  0.3942
  107OSM    O1310947   4.007   2.411  11.290  0.5426 -0.1913 -0.3915
  107OSM    O1410948   4.026   2.621  11.161 -0.0052 -0.1506 -0.1152
  107OSM    O1110949   3.976   2.406  11.043  0.0542  0.2889 -1.0430
  107OSM    O1210950   4.201   2.438  11.136 -0.6424 -0.2864  0.4613
  107OSM    C1S10951   4.056   2.353  10.933  0.2317  0.3390  0.3943
  107OSM    H1S10952   4.079   2.245  10.950 -2.6980 -0.4162  0.0959
  107OSM    H1T10953   4.151   2.408  10.916  0.5394 -0.9597 -2.6444
  107OSM     NF10954   4.068   2.322  10.704 -0.0662  0.5665  0.3541
  107OSM    HNF10955   4.127   2.382  10.650 -0.2010  0.1013 -0.3120
  107OSM    C2S10956   3.982   2.384  10.798  0.0956  0.0139 -0.3463
  107OSM    H2S10957   3.884   2.332  10.806  0.7325 -1.0436  0.9487
  107OSM    C3S10958   3.973   2.536  10.781  0.2374  0.1844  0.3476
  107OSM    H3S10959   4.073   2.580  10.803 -0.6369  1.7756  1.3390
  107OSM     O310960   3.873   2.594  10.865 -0.8360  0.4021 -0.1558
  107OSM    HO310961   3.866   2.532  10.938 -4.4325  1.1127  0.2874
  107OSM    C4S10962   3.949   2.570  10.641 -0.1967 -0.4736 -0.3228
  107OSM    H4S10963   4.043   2.605  10.595  0.9257 -1.3074  1.2637
  107OSM    C5S10964   3.834   2.577  10.572 -0.2067  0.0868 -0.9682
  107OSM    H5S10965   3.742   2.553  10.627 -0.4289  0.6879 -1.0730
  107OSM    C6S10966   3.809   2.607  10.428  0.3011 -0.6086 -0.1197
  107OSM    H6S10967   3.737   2.691  10.426 -1.9530 -2.4665 -1.2370
  107OSM    H6T10968   3.757   2.517  10.389  0.9416 -0.7931 -0.5634
  107OSM    C7S10969   3.930   2.633  10.342 -0.4681 -0.8653 -0.4722
  107OSM    H7S10970   3.991   2.540  10.341  1.0341  0.0967 -0.4902
  107OSM    H7T10971   3.990   2.715  10.385 -0.4099 -2.3084  2.4359
  107OSM    C8S10972   3.889   2.659  10.196 -0.9232  0.0919  0.2674
  107OSM    H8S10973   3.983   2.688  10.146 -0.3553  1.5936  2.0759
  107OSM    H8T10974   3.821   2.748  10.200 -1.5203 -0.3720  0.6807
  107OSM    C9S10975   3.807   2.548  10.120 -0.3923 -0.8166 -0.7032
  107OSM    H9S10976   3.707   2.571  10.162  0.8930  1.1353  1.5378
  107OSM    H9T10977   3.844   2.459  10.176  2.5601 -0.6060 -2.1286
  107OSM   C10S10978   3.834   2.559   9.973 -0.6489 -0.6554 -0.5808
  107OSM   H10S10979   3.936   2.541   9.934 -0.7771  0.1401 -1.3087
  107OSM   H10T10980   3.814   2.666   9.955 -0.8365 -0.4846  0.5983
  107OSM   C11S10981   3.732   2.469   9.896 -0.5197 -0.0344 -0.1190
  107OSM   H11S10982   3.634   2.513   9.924 -0.7611 -0.0251 -0.9786
  107OSM   H11T10983   3.741   2.362   9.923  0.4629 -0.1703 -0.9411
  107OSM   C12S10984   3.755   2.489   9.744 -0.1611  0.0559  0.6293
  107OSM   H12S10985   3.862   2.463   9.734 -0.4564 -0.5349 -1.4234
  107OSM   H12T10986   3.752   2.595   9.709 -0.7690 -0.7149 -1.8304
  107OSM   C13S10987   3.656   2.401   9.663 -0.0127 -0.5403  0.2842
  107OSM   H13S10988   3.563   2.461   9.669  1.2626  2.0141 -2.4969
  107OSM   H13T10989   3.637   2.301   9.708  0.4004 -0.5614  0.4164
  107OSM   C14S10990   3.700   2.381   9.521  0.3300  0.3883 -0.5799
  107OSM   H14S10991   3.629   2.312   9.470 -1.4998  1.1396  0.8383
  107OSM   H14T10992   3.799   2.332   9.522  0.7340  1.1157  1.8757
  107OSM   C15S10993   3.715   2.516   9.439 -0.5073  0.2935 -0.0628
  107OSM   H15S10994   3.810   2.562   9.473  1.0533 -3.7749  1.5710
  107OSM   H15T10995   3.639   2.593   9.465  0.3763  0.9505  0.6521
  107OSM   C16S10996   3.726   2.503   9.283 -0.3198 -0.3968  0.5204
  107OSM   H16S10997   3.647   2.435   9.245 -1.0579 -0.1178  1.5236
  107OSM   H16T10998   3.809   2.431   9.265 -1.8980 -2.1034 -0.3423
  107OSM   C17S10999   3.760   2.628   9.199  0.6347 -0.3483  0.4165
  107OSM   H17S11000   3.841   2.693   9.237  0.4141  0.4863 -0.4829
  107OSM   H17T11001   3.664   2.684   9.200 -0.6718 -2.0667 -3.8233
  107OSM   C18S11002   3.794   2.589   9.054  0.0012 -0.8789 -0.7453
  107OSM   H18S11003   3.709   2.536   9.006 -0.9753  1.6351 -1.9829
  107OSM   H18T11004   3.886   2.527   9.060 -0.8317 -2.0213  1.0548
  107OSM   H18U11005   3.808   2.678   8.989 -1.5068  0.5871  0.7954
  107OSM    C1F11006   4.063   2.190  10.691 -0.3185 -0.0369  0.6304
  107OSM     OF11007   3.989   2.127  10.758 -0.1228 -0.2549  0.2847
  107OSM    C2F11008   4.163   2.114  10.609  0.4698  0.0333 -0.1164
  107OSM    H2F11009   4.219   2.043  10.673 -1.7201 -0.8334  0.9762
  107OSM    H2G11010   4.239   2.180  10.564 -0.5894  0.1158 -1.8708
  107OSM    C3F11011   4.096   2.025  10.494  0.0971  0.0705  0.4383
  107OSM    H3F11012   4.018   1.957  10.535 -0.8518 -0.0004 -1.4065
  107OSM    H3G11013   4.184   1.969  10.455  1.6132  0.8268  2.5413
  107OSM    C4F11014   4.028   2.104  10.378 -0.2198  0.1008 -0.4810
  107OSM    H4F11015   3.965   2.179  10.430 -0.7578  1.2308 -2.6291
  107OSM    H4G11016   3.961   2.036  10.321 -2.0960  1.1676  0.3684
  107OSM    C5F11017   4.124   2.173  10.284 -0.0820 -0.1293  0.7959
  107OSM    H5F11018   4.215   2.111  10.291 -0.6963 -1.0631  0.7533
  107OSM    H5G11019   4.164   2.274  10.305 -1.5973  0.9340 -1.0694
  107OSM    C6F11020   4.056   2.161  10.144  0.1518 -0.4702 -0.2200
  107OSM    H6F11021   3.960   2.215  10.156  0.0556 -0.9470  1.4273
  107OSM    H6G11022   4.044   2.057  10.107 -0.6761 -0.2653 -0.5658
  107OSM    C7F11023   4.141   2.233  10.043  0.4756  0.0385  0.4745
  107OSM    H7F11024   4.242   2.187  10.055  1.2856  1.3129 -1.0649
  107OSM    H7G11025   4.148   2.338  10.079 -1.0685  1.5403 -3.1453
  107OSM    C8F11026   4.090   2.224   9.899 -0.2039  0.5408 -0.8443
  107OSM    H8F11027   3.989   2.271   9.898 -0.5985 -0.2913 -1.8588
  107OSM    H8G11028   4.073   2.117   9.875  0.0617  0.3557 -0.2271
  107OSM    C9F11029   4.192   2.284   9.810 -0.5183 -0.5303  0.0446
  107OSM    H9F11030   4.261   2.350   9.865 -1.6440  0.8987 -0.1914
  107OSM   C10F11031   4.193   2.296   9.676  0.7701  0.1735  0.6733
  107OSM   H10F11032   4.276   2.356   9.635  0.7824  0.7499  1.5246
  107OSM   C11F11033   4.097   2.237   9.578 -0.1815  0.0582 -0.2208
  107OSM   H11F11034   3.994   2.275   9.592 -0.3283 -0.5778  0.4549
  107OSM   H11G11035   4.093   2.127   9.565  0.8419 -0.2599  1.8179
  107OSM   C12F11036   4.152   2.270   9.429 -0.6104  0.0439 -0.0044
  107OSM   H12F11037   4.254   2.229   9.412  0.4624  2.3145  0.6002
  107OSM   H12G11038   4.166   2.377   9.403 -0.7259 -0.4193 -2.1418
  107OSM   C13F11039   4.058   2.213   9.323  0.3221 -0.3740  0.3030
  107OSM   H13F11040   3.955   2.248   9.344 -0.1005 -0.7515 -1.0523
  107OSM   H13G11041   4.063   2.102   9.321  2.9168 -0.3101 -1.4825
  107OSM   C14F11042   4.088   2.278   9.181 -0.0330 -0.6444 -0.1981
  107OSM   H14F11043   4.190   2.242   9.157  0.7922  1.3780  0.0610
  107OSM   H14G11044   4.085   2.388   9.190 -3.5682 -0.6559  0.2791
  107OSM   C15F11045   3.998   2.222   9.061  0.1481 -0.4159 -0.0895
  107OSM   H15F11046   3.893   2.252   9.082 -0.4694 -1.1746 -1.9025
  107OSM   H15G11047   3.990   2.112   9.066 -2.3651 -0.3504 -1.0030
  107OSM   C16F11048   4.036   2.262   8.912 -0.0234  0.6369  0.6780
  107OSM   H16F11049   4.097   2.179   8.869 -0.4836  0.3620  0.5543
  107OSM   H16G11050   4.091   2.359   8.919 -1.4107  1.4629  0.4305
  107OSM   C17F11051   3.916   2.290   8.824 -0.2158 -0.0680  1.1022
  107OSM   H17F11052   3.857   2.370   8.875  0.1455  0.7756  0.2230
  107OSM   H17G11053   3.856   2.196   8.822  0.4475 -0.4816 -0.5754
  107OSM   C18F11054   3.952   2.349   8.686  0.1361  0.2921  0.2222
  107OSM   H18F11055   4.004   2.446   8.702 -0.0147  0.5371 -0.6814
  107OSM   H18G11056   3.863   2.356   8.620  1.5550  1.6798 -1.6727
  107OSM   H18H11057   4.032   2.282   8.647  0.5807  1.3549 -0.7431
  108OSM      N11058   0.678   0.664  11.043 -0.6642 -0.3560  0.5580
  108OSM    C1511059   0.797   0.577  11.026 -0.3478  0.1006  0.6569
  108OSM   H15A11060   0.789   0.478  10.982 -2.2053  0.0884  0.9428
  108OSM   H15B11061   0.844   0.559  11.121  0.7821  0.1804  0.1294
  108OSM   H15C11062   0.876   0.631  10.976  0.0242 -1.6002 -0.6954
  108OSM    C1411063   0.711   0.778  11.140  0.0993 -0.2488 -0.1592
  108OSM   H14A11064   0.797   0.830  11.102 -0.9779  1.7723  0.0527
  108OSM   H14B11065   0.722   0.730  11.236  0.4711 -1.6150 -0.8582
  108OSM   H14C11066   0.624   0.841  11.130 -0.6980 -1.4040 -0.8041
  108OSM    C1311067   0.649   0.734  10.907  0.2286 -0.2950 -0.3318
  108OSM   H13A11068   0.552   0.780  10.901 -0.6163 -2.0109 -0.2574
  108OSM   H13B11069   0.653   0.663  10.826 -1.1180  1.4484 -2.0011
  108OSM   H13C11070   0.725   0.807  10.882 -0.9718  1.2601  0.3745
  108OSM    C1211071   0.557   0.583  11.081 -0.1265  0.1746  0.0476
  108OSM   H12A11072   0.582   0.519  11.164  1.9023 -0.0695 -0.7142
  108OSM   H12B11073   0.538   0.507  11.007  0.6788 -0.8935  0.9110
  108OSM    C1111074   0.435   0.663  11.110  0.5500  0.2656  0.3537
  108OSM   H11A11075   0.457   0.754  11.169  0.4813 -0.9451  2.3503
  108OSM   H11B11076   0.366   0.605  11.176  0.1176 -0.7031 -0.9070
  108OSM      P11077   0.253   0.615  10.927 -0.0683  0.4920  0.2059
  108OSM    O1311078   0.252   0.484  10.997 -0.0502 -0.6510  0.2929
  108OSM    O1411079   0.124   0.698  10.923 -0.3397 -0.3665  0.7332
  108OSM    O1111080   0.306   0.596  10.779  0.2666  0.6523 -0.6598
  108OSM    O1211081   0.369   0.702  10.986 -0.2969 -0.3003  0.0334
  108OSM    C1S11082   0.396   0.487  10.746 -0.3516  0.2997 -0.7452
  108OSM    H1S11083   0.349   0.392  10.779  0.3997 -0.1010 -0.7902
  108OSM    H1T11084   0.490   0.494  10.806  0.0225 -1.4139 -1.0626
  108OSM     NF11085   0.491   0.363  10.549 -0.2943  0.8329 -0.4454
  108OSM    HNF11086   0.590   0.363  10.532  0.2513  0.4675  2.3003
  108OSM    C2S11087   0.438   0.493  10.596 -0.0565  0.1498  0.3942
  108OSM    H2S11088   0.347   0.508  10.534  0.6351 -1.4051 -1.0698
  108OSM    C3S11089   0.542   0.610  10.569  0.0031 -0.4327 -0.3216
  108OSM    H3S11090   0.636   0.573  10.615 -0.7026  0.6087  2.0599
  108OSM     O311091   0.512   0.737  10.629  0.1826 -0.1674  0.3606
  108OSM    HO311092   0.425   0.731  10.670  1.4658  0.4673  3.4384
  108OSM    C4S11093   0.569   0.623  10.420 -0.1606  0.1442 -0.3589
  108OSM    H4S11094   0.637   0.545  10.383  1.6366  0.5367  1.9121
  108OSM    C5S11095   0.507   0.696  10.330 -0.2158 -0.6310  0.6081
  108OSM    H5S11096   0.425   0.758  10.369 -1.2858 -1.6798  0.1073
  108OSM    C6S11097   0.532   0.694  10.173  0.0766 -0.4262 -0.0182
  108OSM    H6S11098   0.590   0.784  10.142  2.0134 -2.5439 -3.0042
  108OSM    H6T11099   0.441   0.692  10.110  0.5811  1.0087 -0.8589
  108OSM    C7S11100   0.604   0.565  10.125  0.1054 -0.4264  0.8471
  108OSM    H7S11101   0.546   0.480  10.168  0.0105  0.6026  2.8931
  108OSM    H7T11102   0.700   0.573  10.181  1.0656  1.2013 -0.9348
  108OSM    C8S11103   0.628   0.540   9.975 -0.0256 -0.1396  0.3236
  108OSM    H8S11104   0.686   0.445   9.978 -2.1081 -1.4942  3.1067
  108OSM    H8T11105   0.693   0.615   9.927  1.4441 -0.3892  1.8270
  108OSM    C9S11106   0.503   0.532   9.881 -0.2231 -0.1024 -0.3861
  108OSM    H9S11107   0.465   0.636   9.877  0.1866  0.1816  1.7751
  108OSM    H9T11108   0.423   0.467   9.924  0.8394 -2.3675 -1.6537
  108OSM   C10S11109   0.545   0.491   9.742  0.0085  0.2145  0.1896
  108OSM   H10S11110   0.630   0.421   9.752 -1.0961 -0.9368  2.3972
  108OSM   H10T11111   0.575   0.582   9.686 -0.2298  0.7119  0.8439
  108OSM   C11S11112   0.439   0.436   9.648  0.5933  0.2819  0.2144
  108OSM   H11S11113   0.355   0.508   9.651 -0.5369 -0.9371 -1.0329
  108OSM   H11T11114   0.410   0.334   9.682  0.7314 -1.0998 -3.3826
  108OSM   C12S11115   0.499   0.405   9.514  0.0023  0.2440  0.3567
  108OSM   H12S11116   0.569   0.319   9.523  0.0262  0.2918  0.6080
  108OSM   H12T11117   0.560   0.494   9.489  1.9865 -0.8102  1.2074
  108OSM   C13S11118   0.402   0.358   9.403 -0.6556  0.3335 -0.4333
  108OSM   H13S11119   0.317   0.430   9.395  0.4921  1.9209  0.8897
  108OSM   H13T11120   0.361   0.263   9.445 -0.0030  0.5469  0.7279
  108OSM   C14S11121   0.472   0.351   9.266  0.2952 -0.4403  0.0791
  108OSM   H14S11122   0.575   0.310   9.265  0.3814 -0.2561  0.7911
  108OSM   H14T11123   0.469   0.453   9.221 -0.2430 -1.6793 -2.9574
  108OSM   C15S11124   0.391   0.261   9.173  0.4630 -0.7937 -0.8237
  108OSM   H15S11125   0.286   0.293   9.161  1.0709  1.0710 -1.4868
  108OSM   H15T11126   0.385   0.167   9.232  2.7688 -0.6970 -0.3497
  108OSM   C16S11127   0.442   0.239   9.023  0.0554 -0.5244  0.1657
  108OSM   H16S11128   0.366   0.175   8.972 -0.0151 -0.0440 -0.3387
  108OSM   H16T11129   0.534   0.178   9.029 -0.9265 -1.9669  1.7215
  108OSM   C17S11130   0.456   0.356   8.927 -0.4574  0.0169 -0.0203
  108OSM   H17S11131   0.488   0.325   8.826 -1.4893  1.4288 -0.8292
  108OSM   H17T11132   0.537   0.420   8.968 -0.9654 -1.0238  2.8458
  108OSM   C18S11133   0.327   0.436   8.917  0.5543  0.3112 -0.6948
  108OSM   H18S11134   0.298   0.460   9.022  2.5488  0.6887 -0.1917
  108OSM   H18T11135   0.254   0.374   8.860  0.8605  0.1105 -0.8723
  108OSM   H18U11136   0.345   0.523   8.850  2.0608  0.0157 -0.7121
  108OSM    C1F11137   0.422   0.248  10.555  1.2420  0.7412  0.5039
  108OSM     OF11138   0.302   0.247  10.577 -0.1044 -0.3855 -0.1532
  108OSM    C2F11139   0.495   0.120  10.537  0.6530  0.2528 -0.0466
  108OSM    H2F11140   0.496   0.054  10.626  1.9335 -2.2766 -1.8175
  108OSM    H2G11141   0.603   0.135  10.516  1.5103 -0.7022  3.1991
  108OSM    C3F11142   0.442   0.033  10.417  0.0198 -0.1369 -0.1435
  108OSM    H3F11143   0.344  -0.013  10.443 -0.8262  0.6432 -1.8515
  108OSM    H3G11144   0.513  -0.053  10.424  0.9941  0.7484  1.2584
  108OSM    C4F11145   0.449   0.088  10.273  0.5006 -0.2193  1.2854
  108OSM    H4F11146   0.545   0.138  10.248 -0.6056  1.2698 -0.1781
  108OSM    H4G11147   0.373   0.163  10.242  2.0868  0.5749 -0.9607
  108OSM    C5F11148   0.440  -0.035  10.180 -0.9179  0.2543  0.6835
  108OSM    H5F11149   0.344  -0.087  10.200 -0.3144 -0.2609  2.3766
  108OSM    H5G11150   0.522  -0.108  10.198 -0.4970  0.2477 -1.0778
  108OSM    C6F11151   0.421  -0.000  10.029  0.4062  0.3539 -0.1265
  108OSM    H6F11152   0.522   0.041  10.007  1.6161 -2.3478 -0.0464
  108OSM    H6G11153   0.347   0.082  10.025 -0.2717 -0.2402 -0.0148
  108OSM    C7F11154   0.370  -0.116   9.946 -0.2540 -0.3710 -0.2853
  108OSM    H7F11155   0.351  -0.075   9.845 -0.6617  1.1077  0.3529
  108OSM    H7G11156   0.273  -0.154   9.986 -0.3106 -0.0844 -0.1450
  108OSM    C8F11157   0.475  -0.232   9.927  0.7933 -0.1086  0.5395
  108OSM    H8F11158   0.419  -0.323   9.895 -0.0031 -1.0477  4.1641
  108OSM    H8G11159   0.498  -0.258  10.033 -0.8368  1.8334  1.4319
  108OSM    C9F11160   0.598  -0.206   9.848  0.5074 -0.1428 -0.2371
  108OSM    H9F11161   0.682  -0.180   9.915 -0.0713  0.3540  0.3118
  108OSM   C10F11162   0.617  -0.219   9.718 -0.0583  0.4324  0.3599
  108OSM   H10F11163   0.709  -0.171   9.682  2.1717 -1.5784  2.9672
  108OSM   C11F11164   0.516  -0.269   9.617 -0.2448  0.0259 -0.4402
  108OSM   H11F11165   0.425  -0.274   9.680  0.0622 -2.2000 -0.0973
  108OSM   H11G11166   0.538  -0.372   9.584 -1.5176 -0.8437  1.2796
  108OSM   C12F11167   0.484  -0.198   9.486  0.5516  0.1795  0.8175
  108OSM   H12F11168   0.474  -0.088   9.502  0.0053  0.2077  0.3206
  108OSM   H12G11169   0.389  -0.243   9.449  2.6460 -2.1413 -2.2209
  108OSM   C13F11170   0.593  -0.227   9.381  0.1263  0.3962  0.0404
  108OSM   H13F11171   0.608  -0.337   9.368  0.0677  0.4975 -0.9918
  108OSM   H13G11172   0.687  -0.181   9.416 -0.9399  0.6321  2.7862
  108OSM   C14F11173   0.558  -0.176   9.246  0.1442  0.1225  0.0439
  108OSM   H14F11174   0.649  -0.144   9.190  0.3947 -0.2263  0.2436
  108OSM   H14G11175   0.500  -0.084   9.267  0.0603 -0.1210  0.9092
  108OSM   C15F11176   0.476  -0.280   9.169  0.4267  0.0644 -0.6554
  108OSM   H15F11177   0.386  -0.300   9.231 -1.0649  2.4059 -1.8822
  108OSM   H15G11178   0.523  -0.380   9.158  2.1368  0.4419  2.2385
  108OSM   C16F11179   0.423  -0.226   9.037  0.1448 -0.2924 -1.0438
  108OSM   H16F11180   0.358  -0.140   9.064  0.8102  0.2123 -1.0298
  108OSM   H16G11181   0.350  -0.298   8.995  0.8026 -1.2653 -0.5481
  108OSM   C17F11182   0.523  -0.181   8.923 -0.2396  0.2761 -0.3918
  108OSM   H17F11183   0.578  -0.275   8.898  1.7399  1.2562  0.0852
  108OSM   H17G11184   0.591  -0.104   8.965 -2.1142  0.7800  1.8897
  108OSM   C18F11185   0.441  -0.125   8.805  0.4403 -0.1784 -0.0548
  108OSM   H18F11186   0.420  -0.214   8.742  0.0462  0.2799 -0.5795
  108OSM   H18G11187   0.495  -0.048   8.745  0.1940  0.3588  0.4037
  108OSM   H18H11188   0.349  -0.079   8.846 -1.1667 -3.6722  0.5460
  109OSM      N11189   1.783   2.098  10.961  0.0303 -0.3761 -0.1181
  109OSM    C1511190   1.715   2.134  10.835  0.1185 -0.2533 -0.1314
  109OSM   H15A11191   1.619   2.179  10.857 -0.1113 -0.7301 -0.1678
  109OSM   H15B11192   1.692   2.052  10.770  0.9339 -0.7339  0.1824
  109OSM   H15C11193   1.766   2.202  10.768 -1.3240  1.7351  0.6783
  109OSM    C1411194   1.815   2.211  11.047 -0.4958 -0.7522  0.1397
  109OSM   H14A11195   1.730   2.272  11.071 -0.6856 -1.1702  0.5599
  109OSM   H14B11196   1.887   2.281  11.009 -0.8826 -0.3873  0.0807
  109OSM   H14C11197   1.841   2.168  11.143  2.1331 -0.7438 -0.4840
  109OSM    C1311198   1.687   2.010  11.039 -0.7491  0.6758 -0.5343
  109OSM   H13A11199   1.586   2.048  11.044 -0.6132  1.0845 -0.8569
  109OSM   H13B11200   1.729   2.002  11.139 -1.1779  2.8576 -0.1441
  109OSM   H13C11201   1.688   1.915  10.987 -1.9728  1.1438 -1.4332
  109OSM    C1211202   1.910   2.016  10.930  0.2142  0.2483  0.7079
  109OSM   H12A11203   1.943   1.981  11.026  0.8903  4.0207  2.0371
  109OSM   H12B11204   1.990   2.076  10.887 -1.1298  1.5792 -0.0496
  109OSM    C1111205   1.903   1.900  10.830 -0.2809 -0.5884 -0.3233
  109OSM   H11A11206   2.007   1.873  10.802  0.6097  2.9643 -0.8750
  109OSM   H11B11207   1.858   1.943  10.738  0.2387  0.4573 -0.1009
  109OSM      P11208   1.787   1.667  10.799 -0.0097 -0.0911  0.0924
  109OSM    O1311209   1.899   1.575  10.776 -0.1433  0.4410 -0.1842
  109OSM    O1411210   1.661   1.605  10.858  0.0753  0.5709 -0.6227
  109OSM    O1111211   1.747   1.734  10.662 -0.6560 -0.5886 -0.5985
  109OSM    O1211212   1.816   1.795  10.887 -0.6372 -0.6577  0.0902
  109OSM    C1S11213   1.613   1.789  10.651 -0.1217 -0.0401  0.3494
  109OSM    H1S11214   1.609   1.880  10.715 -0.4677  0.1351  0.0831
  109OSM    H1T11215   1.535   1.714  10.679 -2.7193  2.4881  0.3075
  109OSM     NF11216   1.461   1.912  10.511  0.1265 -0.1947  0.4278
  109OSM    HNF11217   1.380   1.861  10.486 -1.2636  2.7931 -1.6802
  109OSM    C2S11218   1.584   1.830  10.502  0.6180  0.1190  0.3443
  109OSM    H2S11219   1.670   1.896  10.477  0.1400  0.9293  0.8001
  109OSM    C3S11220   1.585   1.700  10.413  0.2564 -0.0604  0.0906
  109OSM    H3S11221   1.514   1.623  10.450 -0.5499  0.2373 -0.7673
  109OSM     O311222   1.706   1.622  10.425 -0.1193  0.0042 -0.4557
  109OSM    HO311223   1.735   1.653  10.511 -0.8966 -0.8936  0.1523
  109OSM    C4S11224   1.561   1.733  10.269  0.0192  0.0104  0.2632
  109OSM    H4S11225   1.644   1.789  10.225 -0.1533  0.0576 -0.0069
  109OSM    C5S11226   1.458   1.685  10.185 -0.3600  0.1273  0.0406
  109OSM    H5S11227   1.378   1.621  10.225 -0.8810 -0.7508 -2.2860
  109OSM    C6S11228   1.443   1.723  10.034 -0.0982  0.3697 -0.5281
  109OSM    H6S11229   1.346   1.776  10.019 -0.6074 -0.4752 -0.3051
  109OSM    H6T11230   1.443   1.633   9.968  0.0879 -0.1604  0.1857
  109OSM    C7S11231   1.549   1.815   9.976  0.0701  0.0311 -0.4092
  109OSM    H7S11232   1.655   1.782   9.977  0.6737  1.8658 -0.7190
  109OSM    H7T11233   1.546   1.908  10.036 -0.7756 -0.8930  1.0719
  109OSM    C8S11234   1.504   1.840   9.827 -0.4845  0.0537 -0.1899
  109OSM    H8S11235   1.552   1.936   9.798 -0.1088 -0.2698 -0.6565
  109OSM    H8T11236   1.396   1.863   9.813 -0.7018  0.7500  2.1686
  109OSM    C9S11237   1.561   1.742   9.728 -0.3223 -0.4617  0.4484
  109OSM    H9S11238   1.549   1.648   9.786  3.1207  0.9698  3.9214
  109OSM    H9T11239   1.666   1.747   9.693  0.3316  2.4892  2.4140
  109OSM   C10S11240   1.459   1.748   9.604  0.9512  0.1769 -0.3335
  109OSM   H10S11241   1.463   1.854   9.571 -0.7740  0.2806 -0.3054
  109OSM   H10T11242   1.357   1.723   9.639  0.4618 -1.6847 -2.7868
  109OSM   C11S11243   1.507   1.672   9.482 -0.5927 -0.3396 -0.3585
  109OSM   H11S11244   1.511   1.566   9.513  0.8416 -0.1931  0.0510
  109OSM   H11T11245   1.607   1.710   9.451 -0.9864  0.0077 -1.2441
  109OSM   C12S11246   1.416   1.692   9.363 -0.1657 -0.4713  0.1778
  109OSM   H12S11247   1.401   1.798   9.334  2.9166 -0.8399 -3.7072
  109OSM   H12T11248   1.317   1.646   9.384 -1.2121  0.9142 -1.4156
  109OSM   C13S11249   1.481   1.635   9.228  0.6710 -0.5614 -1.0525
  109OSM   H13S11250   1.474   1.524   9.226  3.6859 -0.8375 -2.9956
  109OSM   H13T11251   1.588   1.665   9.221  0.0547  1.6318 -2.0222
  109OSM   C14S11252   1.423   1.703   9.103  0.2983 -0.8153 -0.0278
  109OSM   H14S11253   1.314   1.700   9.123 -0.0356 -3.1436 -1.7298
  109OSM   H14T11254   1.433   1.631   9.018  1.4790 -2.5763  1.5102
  109OSM   C15S11255   1.476   1.843   9.064  0.1223 -0.1299 -0.3264
  109OSM   H15S11256   1.585   1.821   9.058  0.1166  0.2442 -2.3056
  109OSM   H15T11257   1.461   1.908   9.153 -0.0720 -0.6899  0.0596
  109OSM   C16S11258   1.427   1.904   8.935  0.1914 -0.3454 -0.2435
  109OSM   H16S11259   1.494   1.989   8.908 -1.4027  1.7025  1.8283
  109OSM   H16T11260   1.328   1.953   8.947  0.2800 -0.6522  2.3610
  109OSM   C17S11261   1.414   1.809   8.819  0.6723  0.2558 -0.1244
  109OSM   H17S11262   1.330   1.739   8.838  0.1131  0.9072 -0.1446
  109OSM   H17T11263   1.503   1.743   8.810  0.1122 -0.2231 -3.1214
  109OSM   C18S11264   1.386   1.881   8.686 -0.0420  0.1727 -0.0862
  109OSM   H18S11265   1.348   1.807   8.611  0.8364  0.8586 -1.2408
  109OSM   H18T11266   1.478   1.931   8.649  0.1675  0.5675  0.9426
  109OSM   H18U11267   1.304   1.954   8.701  0.0393 -0.1470  2.1910
  109OSM    C1F11268   1.455   2.032  10.570 -0.0163  0.2570 -0.1899
  109OSM     OF11269   1.559   2.091  10.597 -0.6810 -0.6381  0.1170
  109OSM    C2F11270   1.315   2.080  10.602  0.2814 -0.6427 -0.2396
  109OSM    H2F11271   1.246   1.992  10.599 -1.0556  0.1298  3.3138
  109OSM    H2G11272   1.281   2.146  10.519 -0.6683 -0.4811  0.2652
  109OSM    C3F11273   1.307   2.172  10.723  0.4357 -0.7899 -0.1536
  109OSM    H3F11274   1.353   2.271  10.704 -0.2424 -0.3306  0.4941
  109OSM    H3G11275   1.361   2.127  10.810  0.8581  1.1805  0.6686
  109OSM    C4F11276   1.163   2.199  10.771  0.0801  0.4321  0.3128
  109OSM    H4F11277   1.154   2.266  10.860  0.2697  0.5724  0.2268
  109OSM    H4G11278   1.109   2.103  10.786  0.4902  0.2174  0.4317
  109OSM    C5F11279   1.072   2.258  10.660 -0.2942  1.0946 -0.2340
  109OSM    H5F11280   0.968   2.251  10.699 -0.1922 -0.9648 -0.2362
  109OSM    H5G11281   1.072   2.187  10.574 -0.7096  0.9971 -0.1576
  109OSM    C6F11282   1.108   2.396  10.610 -0.2998  0.2234  0.4830
  109OSM    H6F11283   1.209   2.397  10.563 -0.2883 -2.1250  0.3392
  109OSM    H6G11284   1.110   2.454  10.705 -1.9471 -0.4233  0.9457
  109OSM    C7F11285   1.009   2.438  10.506 -0.0188  0.6736 -0.7098
  109OSM    H7F11286   0.908   2.418  10.546  0.5662  1.3093  1.2137
  109OSM    H7G11287   1.019   2.366  10.422 -1.7835  0.4798 -0.7863
  109OSM    C8F11288   1.007   2.583  10.466 -0.3717 -0.6633 -0.1449
  109OSM    H8F11289   0.953   2.634  10.549 -2.1407 -0.0907 -1.5926
  109OSM    H8G11290   0.942   2.585  10.376  0.7232 -1.0953 -0.9700
  109OSM    C9F11291   1.147   2.636  10.441 -0.8128 -0.0743  0.0369
  109OSM    H9F11292   1.196   2.671  10.533 -0.1582  1.2228 -0.7830
  109OSM   C10F11293   1.227   2.639  10.331  0.3881  0.0078 -0.0992
  109OSM   H10F11294   1.331   2.674  10.335  1.1120 -1.2681 -3.9223
  109OSM   C11F11295   1.172   2.591  10.201 -0.8817  0.1595  0.3028
  109OSM   H11F11296   1.065   2.561  10.210 -0.3287 -1.5869  1.5785
  109OSM   H11G11297   1.226   2.500  10.169  1.2682  1.5036 -0.1251
  109OSM   C12F11298   1.185   2.708  10.098 -0.5725  0.4927 -0.2526
  109OSM   H12F11299   1.294   2.727  10.086 -0.5781  0.8106  0.1763
  109OSM   H12G11300   1.161   2.809  10.137 -1.4281  0.3255 -0.3388
  109OSM   C13F11301   1.123   2.672   9.963  0.1347 -0.3597 -0.0472
  109OSM   H13F11302   1.012   2.662   9.972 -0.0329  1.6845  0.5383
  109OSM   H13G11303   1.158   2.570   9.935 -2.3797 -1.1879 -0.4225
  109OSM   C14F11304   1.154   2.780   9.857 -0.1834  0.1492  0.1973
  109OSM   H14F11305   1.262   2.790   9.836 -0.8665  1.6113 -3.3389
  109OSM   H14G11306   1.119   2.880   9.890 -0.4658  0.9630 -2.3616
  109OSM   C15F11307   1.091   2.751   9.722 -0.1937  0.0572  0.3769
  109OSM   H15F11308   1.103   2.836   9.651  0.1486 -0.5930 -0.3651
  109OSM   H15G11309   0.984   2.761   9.748 -0.1001  2.2474  0.0901
  109OSM   C16F11310   1.113   2.613   9.657  0.3177 -0.3904 -0.3645
  109OSM   H16F11311   1.032   2.557   9.708  0.2605 -0.7269 -0.8198
  109OSM   H16G11312   1.212   2.575   9.688  2.0313  2.3383 -2.0558
  109OSM   C17F11313   1.095   2.629   9.506  0.4117  0.0737  0.1870
  109OSM   H17F11314   1.001   2.688   9.494  0.7509  0.3081 -1.6578
  109OSM   H17G11315   1.072   2.530   9.462 -0.5615 -0.1379  1.1233
  109OSM   C18F11316   1.210   2.699   9.429 -0.1944  0.3943 -0.2458
  109OSM   H18F11317   1.201   2.682   9.320 -0.4809 -0.6605 -0.0742
  109OSM   H18G11318   1.299   2.644   9.467  0.5237  1.8865  0.3057
  109OSM   H18H11319   1.223   2.807   9.450 -1.4625  0.3306  1.0168
  110OSM      N11320   1.334   6.279  10.888 -0.4777 -0.1258 -0.0039
  110OSM    C1511321   1.207   6.243  10.809 -0.6496 -0.4139  0.1733
  110OSM   H15A11322   1.229   6.190  10.718  0.5150 -1.1505  0.8585
  110OSM   H15B11323   1.164   6.340  10.788 -1.3591 -0.1715  2.4272
  110OSM   H15C11324   1.137   6.200  10.879  0.1452 -0.2384  1.1061
  110OSM    C1411325   1.299   6.369  11.008 -0.1679 -0.3649  0.7946
  110OSM   H14A11326   1.232   6.451  10.987  0.3866  0.2023  1.2178
  110OSM   H14B11327   1.396   6.401  11.042  0.1752 -1.3144  0.7473
  110OSM   H14C11328   1.247   6.301  11.073  1.0449 -0.4580  1.6819
  110OSM    C1311329   1.406   6.150  10.943  0.2043 -0.0151 -0.2784
  110OSM   H13A11330   1.340   6.082  10.994 -1.4309  1.0742 -0.8410
  110OSM   H13B11331   1.485   6.174  11.012 -1.1446 -1.0915  1.7284
  110OSM   H13C11332   1.447   6.093  10.861  2.0885 -0.3159  0.8146
  110OSM    C1211333   1.427   6.342  10.790 -0.2058 -0.5403 -0.2953
  110OSM   H12A11334   1.441   6.276  10.706 -1.7150 -2.9181  1.1899
  110OSM   H12B11335   1.522   6.346  10.842 -0.9605 -0.5529  1.1425
  110OSM    C1111336   1.395   6.486  10.730  0.4655 -0.1189  0.8648
  110OSM   H11A11337   1.291   6.488  10.694  1.5939  2.4123 -2.7822
  110OSM   H11B11338   1.462   6.509  10.645 -0.6668  0.9648  0.2414
  110OSM      P11339   1.340   6.718  10.855 -0.5123 -0.1999  0.1673
  110OSM    O1311340   1.205   6.684  10.898 -0.0673  0.3584  0.5917
  110OSM    O1411341   1.421   6.808  10.942 -0.4702 -0.1836  0.0248
  110OSM    O1111342   1.343   6.772  10.704 -0.4852 -0.2745 -0.0448
  110OSM    O1211343   1.414   6.583  10.837 -0.4796  0.6718  0.1186
  110OSM    C1S11344   1.470   6.811  10.651 -0.1065  0.2083  0.5842
  110OSM    H1S11345   1.560   6.749  10.671  0.6791  1.5769  1.4328
  110OSM    H1T11346   1.507   6.909  10.687  0.0272  2.0146 -3.8063
  110OSM     NF11347   1.590   6.861  10.434  0.3001  0.0676  0.1293
  110OSM    HNF11348   1.614   6.956  10.414  1.5007 -0.0156  1.0305
  110OSM    C2S11349   1.461   6.825  10.493 -0.2650  0.7947 -0.0547
  110OSM    H2S11350   1.436   6.723  10.456 -0.2608  1.1522 -1.0691
  110OSM    C3S11351   1.351   6.920  10.449  0.7122  0.8046 -0.0894
  110OSM    H3S11352   1.373   7.027  10.468  1.0259  0.7607 -0.1901
  110OSM     O311353   1.225   6.899  10.506  0.6398  0.1771  0.2845
  110OSM    HO311354   1.238   6.852  10.589 -2.7891  0.2003  0.9891
  110OSM    C4S11355   1.327   6.907  10.292  0.1346 -0.0604  0.0914
  110OSM    H4S11356   1.326   6.806  10.250 -0.7536 -1.3433  2.9722
  110OSM    C5S11357   1.339   7.010  10.203 -0.0379  0.8919  0.6678
  110OSM    H5S11358   1.374   7.110  10.234 -1.6777  1.1661  1.7690
  110OSM    C6S11359   1.327   7.012  10.049  0.1848  0.0798 -0.6325
  110OSM    H6S11360   1.388   7.099  10.014 -0.2754  1.0113  0.8078
  110OSM    H6T11361   1.220   7.034  10.029 -0.8479 -0.0455  3.6963
  110OSM    C7S11362   1.372   6.876   9.996 -0.5600 -1.0650  1.1205
  110OSM    H7S11363   1.321   6.793  10.050 -0.8260  0.5983  3.5530
  110OSM    H7T11364   1.483   6.867  10.005 -0.2533  1.3541  0.3322
  110OSM    C8S11365   1.339   6.840   9.857  0.3042 -0.8555 -0.7739
  110OSM    H8S11366   1.231   6.816   9.846  0.2221 -1.8003  1.5605
  110OSM    H8T11367   1.391   6.745   9.833  1.4062 -1.0670  2.0313
  110OSM    C9S11368   1.383   6.944   9.763  0.3076  0.1197  0.2363
  110OSM    H9S11369   1.487   6.974   9.786  0.7005 -0.8724 -0.2075
  110OSM    H9T11370   1.320   7.034   9.782 -0.6602 -0.3803 -0.4656
  110OSM   C10S11371   1.375   6.910   9.611  0.2961  0.1067 -0.7070
  110OSM   H10S11372   1.281   6.852   9.600 -0.3969  0.9661  0.5121
  110OSM   H10T11373   1.459   6.842   9.582  1.4431  0.0246  2.4423
  110OSM   C11S11374   1.367   7.027   9.504  0.2881 -0.2144 -0.7381
  110OSM   H11S11375   1.448   7.098   9.532 -0.6537  0.1910  1.1963
  110OSM   H11T11376   1.274   7.087   9.516  0.1171 -0.7933  1.1241
  110OSM   C12S11377   1.389   6.977   9.361 -0.3772 -0.3795 -0.6625
  110OSM   H12S11378   1.319   6.898   9.328 -2.5582  0.4921  1.5698
  110OSM   H12T11379   1.490   6.931   9.362 -0.6309 -0.9359 -0.0917
  110OSM   C13S11380   1.395   7.081   9.250 -0.4918 -0.3782 -0.8571
  110OSM   H13S11381   1.489   7.138   9.268 -0.2394 -0.7967 -0.8250
  110OSM   H13T11382   1.308   7.142   9.280  0.1161 -0.1326  0.4791
  110OSM   C14S11383   1.371   7.025   9.111  0.0653  0.2892 -0.2682
  110OSM   H14S11384   1.290   6.950   9.120 -0.5066  1.0760  1.5627
  110OSM   H14T11385   1.464   6.970   9.084 -0.0686 -0.9042  1.5242
  110OSM   C15S11386   1.356   7.126   9.002  0.4076  0.0009  0.3605
  110OSM   H15S11387   1.442   7.178   8.955 -0.2555 -0.0759 -0.9685
  110OSM   H15T11388   1.302   7.214   9.043 -2.0476  0.0391 -2.6314
  110OSM   C16S11389   1.254   7.073   8.896 -0.0320 -0.3737 -0.0490
  110OSM   H16S11390   1.161   7.039   8.946  0.5455 -2.7148 -0.4345
  110OSM   H16T11391   1.302   6.993   8.836 -0.4769  0.0267 -0.9660
  110OSM   C17S11392   1.216   7.189   8.799  0.7189 -0.1346 -0.3986
  110OSM   H17S11393   1.160   7.269   8.853  0.4912 -0.8329  0.4218
  110OSM   H17T11394   1.139   7.131   8.743 -1.3348  1.1830  0.9272
  110OSM   C18S11395   1.329   7.248   8.712 -0.3644  0.3780 -0.6653
  110OSM   H18S11396   1.294   7.322   8.637 -2.4539  0.4733  0.3187
  110OSM   H18T11397   1.390   7.175   8.655 -0.4155  0.6072 -1.0189
  110OSM   H18U11398   1.407   7.290   8.779 -1.0304 -2.3260  2.0456
  110OSM    C1F11399   1.703   6.788  10.452  1.0580 -0.0066  0.5677
  110OSM     OF11400   1.693   6.672  10.497 -0.3509  0.1280 -0.1968
  110OSM    C2F11401   1.830   6.860  10.406  0.3624  0.3403 -0.4195
  110OSM    H2F11402   1.900   6.844  10.491  0.0683  2.6638  0.3440
  110OSM    H2G11403   1.821   6.970  10.398 -0.1649  0.4833  1.5336
  110OSM    C3F11404   1.873   6.784  10.277  0.1699  0.4616 -0.3234
  110OSM    H3F11405   1.888   6.675  10.293 -0.5908  0.5723  1.3977
  110OSM    H3G11406   1.970   6.820  10.236 -0.4382  1.7637 -0.6776
  110OSM    C4F11407   1.786   6.805  10.157 -0.1299  0.3250 -0.2777
  110OSM    H4F11408   1.689   6.843  10.196  0.1168  1.6627 -0.9378
  110OSM    H4G11409   1.762   6.706  10.113 -3.0596  0.1468  1.4612
  110OSM    C5F11410   1.828   6.901  10.046  0.2003  0.1100  0.0468
  110OSM    H5F11411   1.936   6.886  10.027  0.8598  1.4857  2.2844
  110OSM    H5G11412   1.825   7.007  10.081 -1.9703 -0.2734  1.1487
  110OSM    C6F11413   1.755   6.875   9.909  1.1521  0.7058 -0.4176
  110OSM    H6F11414   1.667   6.943   9.902  1.7489  1.5546  0.1321
  110OSM    H6G11415   1.730   6.769   9.887  0.4834  1.0101 -1.1814
  110OSM    C7F11416   1.853   6.907   9.796 -0.4254  0.1790 -0.3874
  110OSM    H7F11417   1.945   6.849   9.817 -0.8184 -1.2986 -2.5232
  110OSM    H7G11418   1.882   7.014   9.798 -0.8250  0.2826  0.1011
  110OSM    C8F11419   1.800   6.861   9.655 -1.2031 -0.2892  0.2443
  110OSM    H8F11420   1.693   6.891   9.660 -0.7934  1.3895 -0.2494
  110OSM    H8G11421   1.805   6.750   9.650 -0.4823 -0.2129 -1.2771
  110OSM    C9F11422   1.857   6.926   9.528  0.3286 -0.3513 -1.2338
  110OSM    H9F11423   1.880   7.033   9.522  1.1510 -0.5272 -1.2392
  110OSM   C10F11424   1.884   6.860   9.413 -0.3423 -0.6682  0.4146
  110OSM   H10F11425   1.939   6.931   9.350 -1.2265  0.5912  1.0311
  110OSM   C11F11426   1.868   6.711   9.382  0.1870  0.3558 -0.4397
  110OSM   H11F11427   1.777   6.669   9.430  0.0160  1.0420 -0.1674
  110OSM   H11G11428   1.957   6.655   9.420  0.0759 -0.8246 -1.8057
  110OSM   C12F11429   1.866   6.685   9.229  0.4028 -0.9071  0.0726
  110OSM   H12F11430   1.871   6.574   9.224  2.1907 -0.8117 -1.2455
  110OSM   H12G11431   1.963   6.723   9.191  0.2017  0.2872  0.7039
  110OSM   C13F11432   1.734   6.740   9.160 -0.0973  0.4767 -0.0318
  110OSM   H13F11433   1.722   6.848   9.182  2.7424  1.1616 -1.4075
  110OSM   H13G11434   1.649   6.685   9.206  0.3096  0.0622  0.2357
  110OSM   C14F11435   1.741   6.732   9.006 -0.2601 -0.1287  0.7261
  110OSM   H14F11436   1.643   6.755   8.960  0.9668  2.4310 -0.8273
  110OSM   H14G11437   1.765   6.626   8.982  0.4760  0.3781 -0.8966
  110OSM   C15F11438   1.847   6.830   8.938  0.9030  0.5364  0.0297
  110OSM   H15F11439   1.942   6.793   8.982  0.4763 -1.4871 -0.6391
  110OSM   H15G11440   1.817   6.933   8.966 -0.8715  0.0456  0.0236
  110OSM   C16F11441   1.845   6.820   8.781  0.1764  0.0151 -0.9579
  110OSM   H16F11442   1.925   6.881   8.735  0.1840  0.1365 -0.7845
  110OSM   H16G11443   1.754   6.874   8.748  0.9465  2.4942  0.7112
  110OSM   C17F11444   1.864   6.669   8.747 -0.4430  0.1831  0.6631
  110OSM   H17F11445   1.850   6.660   8.638  3.1921  2.5293 -0.1810
  110OSM   H17G11446   1.788   6.609   8.802  0.4976 -1.1591  0.5348
  110OSM   C18F11447   2.012   6.615   8.767  0.2675 -1.0530  0.8512
  110OSM   H18F11448   2.040   6.588   8.872  1.3467  0.4703  0.9956
  110OSM   H18G11449   2.081   6.694   8.731  0.1165 -1.1341  0.3772
  110OSM   H18H11450   2.031   6.528   8.700  1.6032  0.1344 -0.3662
  111OSM      N11451   4.593   6.500  10.992  0.4300 -0.0938 -0.5311
  111OSM    C1511452   4.502   6.533  10.875  0.0772  0.2216 -0.3329
  111OSM   H15A11453   4.399   6.528  10.907 -0.0181 -3.2471 -0.7448
  111OSM   H15B11454   4.511   6.458  10.797  1.3055 -1.0302  0.9488
  111OSM   H15C11455   4.530   6.633  10.848  0.9220 -0.4563 -2.1269
  111OSM    C1411456   4.619   6.618  11.081  0.3260 -0.8183  1.1392
  111OSM   H14A11457   4.692   6.591  11.156  0.2318 -2.8822  0.5551
  111OSM   H14B11458   4.524   6.647  11.122 -0.0086 -2.4686  1.6163
  111OSM   H14C11459   4.657   6.697  11.019 -0.2070 -1.8865 -0.6086
  111OSM    C1311460   4.532   6.387  11.076  0.5138  0.0013 -0.6107
  111OSM   H13A11461   4.440   6.420  11.122 -0.9806  0.6943 -3.8030
  111OSM   H13B11462   4.594   6.355  11.158  0.4415 -1.3829 -1.0749
  111OSM   H13C11463   4.504   6.306  11.011  1.8480 -0.1994 -0.9816
  111OSM    C1211464   4.714   6.455  10.924 -0.4073  0.4893  0.1917
  111OSM   H12A11465   4.786   6.417  10.996  0.5975 -0.3804 -1.2215
  111OSM   H12B11466   4.760   6.541  10.878 -0.4853  0.0665 -0.6963
  111OSM    C1111467   4.689   6.341  10.810  0.7331  0.2833  0.0101
  111OSM   H11A11468   4.781   6.317  10.752 -0.5421 -2.6021 -1.0443
  111OSM   H11B11469   4.629   6.389  10.730  0.3558  1.7345  1.1274
  111OSM      P11470   4.721   6.104  10.910  0.8560 -0.1565 -0.3694
  111OSM    O1311471   4.831   6.168  10.984  0.3898 -0.0837 -0.4893
  111OSM    O1411472   4.639   6.008  10.995 -0.0992 -0.2336 -0.0320
  111OSM    O1111473   4.778   6.040  10.779 -0.2061  0.2575  0.2801
  111OSM    O1211474   4.622   6.217  10.854  0.4672  0.1438 -0.1286
  111OSM    C1S11475   4.749   5.905  10.744  0.5607 -0.8886  0.5831
  111OSM    H1S11476   4.640   5.888  10.733  0.7823 -2.5296  0.6584
  111OSM    H1T11477   4.791   5.838  10.822  0.3242 -0.1412  1.3672
  111OSM     NF11478   4.773   5.726  10.578 -0.1144 -0.3666  0.0040
  111OSM    HNF11479   4.856   5.671  10.568  0.7538  0.9582 -0.3288
  111OSM    C2S11480   4.802   5.863  10.606 -0.0273  0.1645  0.2635
  111OSM    H2S11481   4.737   5.913  10.530 -0.4096 -1.2029 -0.3365
  111OSM    C3S11482   4.952   5.907  10.584 -0.4686 -0.1710  0.5656
  111OSM    H3S11483   5.005   5.845  10.659 -0.1883  0.1623  0.6444
  111OSM     O311484   4.971   6.043  10.612  0.5337 -0.0466 -0.2496
  111OSM    HO311485   4.896   6.064  10.668  0.4563 -1.8140  0.3423
  111OSM    C4S11486   4.996   5.860  10.443  0.7297  0.1306 -0.4627
  111OSM    H4S11487   5.044   5.760  10.443 -0.9411 -0.7332  1.1216
  111OSM    C5S11488   4.968   5.930  10.328 -0.1712  0.0771  0.3712
  111OSM    H5S11489   4.898   6.014  10.335 -0.3596 -0.0564  0.1226
  111OSM    C6S11490   5.009   5.881  10.195 -0.8530  0.3671  0.5344
  111OSM    H6S11491   5.092   5.945  10.159  0.0992 -1.2069 -0.2028
  111OSM    H6T11492   4.927   5.899  10.122 -0.2587 -0.5937 -0.4050
  111OSM    C7S11493   5.052   5.731  10.188 -0.3074  0.5477 -0.7092
  111OSM    H7S11494   4.968   5.675  10.236 -0.4834 -0.4352 -2.1107
  111OSM    H7T11495   5.140   5.720  10.255 -2.3175  0.4657  2.1102
  111OSM    C8S11496   5.095   5.686  10.044  0.0850  0.0311 -0.4515
  111OSM    H8S11497   5.121   5.580  10.065 -0.2912  0.4063  2.1882
  111OSM    H8T11498   5.179   5.741   9.997 -0.9745  1.4314 -0.7834
  111OSM    C9S11499   4.972   5.677   9.945  0.0908  0.3730  0.1416
  111OSM    H9S11500   4.950   5.776   9.899 -0.9520 -0.0145 -0.2387
  111OSM    H9T11501   4.884   5.634   9.999 -0.4822 -0.6438 -1.5190
  111OSM   C10S11502   4.989   5.573   9.823  0.3362  0.1583 -0.2341
  111OSM   H10S11503   4.937   5.483   9.863 -0.5813  0.8361  0.1213
  111OSM   H10T11504   5.097   5.546   9.826  0.0615 -0.9076  1.2559
  111OSM   C11S11505   4.925   5.614   9.690 -0.6258  0.3633 -0.3696
  111OSM   H11S11506   4.818   5.630   9.711 -0.6578 -0.3982  0.1003
  111OSM   H11T11507   4.931   5.531   9.616  1.8224  1.0481 -1.0501
  111OSM   C12S11508   4.993   5.734   9.631 -0.5766 -0.5144  0.1648
  111OSM   H12S11509   5.103   5.719   9.626 -0.3004  0.7252  1.7595
  111OSM   H12T11510   4.985   5.826   9.693 -0.4942 -1.0368  0.9636
  111OSM   C13S11511   4.928   5.773   9.493 -0.5213 -0.1173  0.3607
  111OSM   H13S11512   4.959   5.690   9.427 -0.6017  1.8769 -2.3476
  111OSM   H13T11513   4.990   5.859   9.460  1.2447 -0.5024  2.4925
  111OSM   C14S11514   4.781   5.806   9.481  0.9240 -0.1039 -0.4784
  111OSM   H14S11515   4.762   5.898   9.539  0.4419 -0.3012 -0.3144
  111OSM   H14T11516   4.720   5.722   9.520 -1.3885  1.0532 -1.4088
  111OSM   C15S11517   4.737   5.832   9.338  0.3757 -0.2743  0.0419
  111OSM   H15S11518   4.733   5.735   9.284 -2.2496 -1.1438  1.6231
  111OSM   H15T11519   4.819   5.889   9.289 -1.8379  3.5962  0.4508
  111OSM   C16S11520   4.603   5.904   9.321 -0.4892  0.0463 -0.2924
  111OSM   H16S11521   4.613   6.004   9.367 -0.0336  0.2726 -0.8725
  111OSM   H16T11522   4.518   5.844   9.359 -2.1245  1.1887 -1.9651
  111OSM   C17S11523   4.557   5.951   9.179 -0.4710  0.4691 -0.7374
  111OSM   H17S11524   4.464   6.011   9.176 -0.2165  0.9068 -0.0674
  111OSM   H17T11525   4.531   5.860   9.121  1.2239  0.5862 -1.7832
  111OSM   C18S11526   4.667   6.030   9.102  0.2424  0.0641 -0.0822
  111OSM   H18S11527   4.630   6.068   9.004  0.2904  0.3703  0.0178
  111OSM   H18T11528   4.751   5.961   9.077 -0.9229 -0.7632 -1.9261
  111OSM   H18U11529   4.701   6.118   9.159  0.6753 -1.0167  1.3877
  111OSM    C1F11530   4.655   5.669  10.571 -0.3554  0.1126 -0.6503
  111OSM     OF11531   4.551   5.719  10.614  1.0247 -0.2042 -0.6461
  111OSM    C2F11532   4.657   5.531  10.522  0.4168 -0.2167 -0.0880
  111OSM    H2F11533   4.605   5.473  10.602 -0.4944 -1.4465 -1.5030
  111OSM    H2G11534   4.763   5.500  10.513  0.5600  0.5334 -1.1880
  111OSM    C3F11535   4.585   5.514  10.385 -0.4014 -0.4779  0.7462
  111OSM    H3F11536   4.481   5.552  10.396 -0.0423  0.4256  1.1177
  111OSM    H3G11537   4.579   5.406  10.359  0.5435  0.0087 -1.7518
  111OSM    C4F11538   4.658   5.586  10.264 -0.0027  0.2395  0.1723
  111OSM    H4F11539   4.764   5.555  10.260 -0.0817  0.0889 -2.4791
  111OSM    H4G11540   4.668   5.694  10.287  1.7556  0.8064 -2.7637
  111OSM    C5F11541   4.592   5.568  10.123  0.1356 -1.1321  0.3907
  111OSM    H5F11542   4.654   5.621  10.048 -1.2248 -2.7703 -2.0170
  111OSM    H5G11543   4.495   5.621  10.113 -0.4776 -2.3629 -0.4036
  111OSM    C6F11544   4.581   5.422  10.065 -0.2733  0.4485  0.5691
  111OSM    H6F11545   4.538   5.359  10.145  1.1511  0.4360  1.3467
  111OSM    H6G11546   4.681   5.381  10.038 -0.7331  0.5140 -1.4487
  111OSM    C7F11547   4.500   5.412   9.940  0.1294 -0.3734 -0.4796
  111OSM    H7F11548   4.559   5.478   9.874  0.7215 -0.1899  0.2192
  111OSM    H7G11549   4.397   5.455   9.949  0.7672  1.5751 -1.8261
  111OSM    C8F11550   4.480   5.267   9.882  0.4236  0.5248  0.1879
  111OSM    H8F11551   4.415   5.220   9.960 -0.1013  1.0270  0.0621
  111OSM    H8G11552   4.576   5.212   9.889  0.8146  1.3263  1.4770
  111OSM    C9F11553   4.405   5.255   9.755  0.5983 -0.2810  0.6026
  111OSM    H9F11554   4.295   5.246   9.758  0.4904  0.9641  1.1284
  111OSM   C10F11555   4.461   5.279   9.635  0.3390  1.0232 -0.0494
  111OSM   H10F11556   4.405   5.292   9.542  1.0771  0.6348 -0.5573
  111OSM   C11F11557   4.608   5.308   9.607  0.5465  0.4115  0.1245
  111OSM   H11F11558   4.650   5.215   9.564  1.1980 -0.5434  2.6906
  111OSM   H11G11559   4.669   5.336   9.695  0.5147  2.6555 -0.4912
  111OSM   C12F11560   4.623   5.419   9.505  0.4339  0.1990  0.2553
  111OSM   H12F11561   4.731   5.446   9.499  0.5355  0.4916  2.4915
  111OSM   H12G11562   4.577   5.516   9.535  2.1379  1.2942 -0.5301
  111OSM   C13F11563   4.574   5.380   9.361 -0.1616 -0.0950 -0.3013
  111OSM   H13F11564   4.466   5.352   9.369 -0.1283 -0.4178 -0.9653
  111OSM   H13G11565   4.627   5.286   9.335  0.9448  0.5743 -0.5380
  111OSM   C14F11566   4.602   5.477   9.249 -0.7826 -0.2263 -0.4164
  111OSM   H14F11567   4.710   5.500   9.237 -0.8759  0.0040 -0.8548
  111OSM   H14G11568   4.557   5.574   9.279  0.6039 -0.2496  2.0159
  111OSM   C15F11569   4.552   5.416   9.113 -0.1541  0.4526  0.2128
  111OSM   H15F11570   4.507   5.496   9.051 -1.1044 -1.6297 -1.9790
  111OSM   H15G11571   4.458   5.361   9.135  0.4332 -0.7680 -0.2564
  111OSM   C16F11572   4.654   5.330   9.045 -0.0639  0.0556 -1.2308
  111OSM   H16F11573   4.672   5.247   9.117 -0.6997  1.0177  0.0683
  111OSM   H16G11574   4.748   5.389   9.043 -1.3575  2.3485  1.0289
  111OSM   C17F11575   4.611   5.286   8.905 -0.2929 -0.0570 -0.1388
  111OSM   H17F11576   4.591   5.370   8.836 -2.2105 -0.0434  0.3705
  111OSM   H17G11577   4.511   5.240   8.924 -0.1164 -0.5074 -0.2735
  111OSM   C18F11578   4.712   5.182   8.847  0.2707 -0.0097 -0.0353
  111OSM   H18F11579   4.693   5.077   8.880  0.4694 -0.7510 -2.1732
  111OSM   H18G11580   4.810   5.217   8.888  0.7148  0.8064 -1.7226
  111OSM   H18H11581   4.713   5.185   8.736 -0.0484  1.8409 -0.0240
  112OSM      N11582   3.076   2.053  11.149  0.0673 -0.7521 -0.2316
  112OSM    C1511583   2.967   2.070  11.047 -0.9527  0.6231  0.3053
  112OSM   H15A11584   2.991   2.005  10.964 -4.0054 -3.4919  2.2799
  112OSM   H15B11585   2.953   2.173  11.015 -2.4021 -0.2323 -2.1545
  112OSM   H15C11586   2.878   2.027  11.089 -0.2516 -1.2873 -0.0690
  112OSM    C1411587   3.095   1.912  11.191  0.1728 -0.1990 -0.4613
  112OSM   H14A11588   3.143   1.851  11.116  1.9200  0.1638  0.3369
  112OSM   H14B11589   3.003   1.861  11.217 -1.4580  2.3849 -0.7386
  112OSM   H14C11590   3.152   1.901  11.281 -0.1365  2.3800  0.1102
  112OSM    C1311591   3.196   2.109  11.088 -0.6788  0.4264 -0.2393
  112OSM   H13A11592   3.210   2.058  10.994 -1.1858 -2.4449  1.1570
  112OSM   H13B11593   3.281   2.084  11.149 -1.2346 -2.6703 -0.5883
  112OSM   H13C11594   3.182   2.213  11.059 -0.8215  0.3568 -0.4211
  112OSM    C1211595   3.026   2.134  11.267 -0.4678 -0.4957  0.6632
  112OSM   H12A11596   3.092   2.116  11.351  1.2270 -0.8556 -0.6849
  112OSM   H12B11597   2.929   2.105  11.303 -0.6165 -1.1892 -0.2516
  112OSM    C1111598   3.007   2.287  11.258  0.0342 -0.1731 -0.6246
  112OSM   H11A11599   3.093   2.340  11.211  0.7261 -2.4880 -2.1640
  112OSM   H11B11600   2.996   2.317  11.364 -0.8526 -2.7745  0.0999
  112OSM      P11601   2.755   2.327  11.248  0.4179  0.0107  0.2262
  112OSM    O1311602   2.743   2.221  11.353  0.0450 -0.6523  0.0147
  112OSM    O1411603   2.720   2.461  11.293  0.4843  0.5554 -0.2920
  112OSM    O1111604   2.655   2.286  11.133 -0.8566 -0.4925  0.0870
  112OSM    O1211605   2.891   2.319  11.174 -0.1255 -0.1915 -0.1788
  112OSM    C1S11606   2.682   2.322  10.997  0.2468  1.0596 -1.2180
  112OSM    H1S11607   2.773   2.277  10.952  0.4580 -0.0767  0.2650
  112OSM    H1T11608   2.688   2.433  10.989 -0.1500  0.9971 -2.7442
  112OSM     NF11609   2.601   2.294  10.772  0.5701  0.4700  0.0275
  112OSM    HNF11610   2.573   2.379  10.728  1.0593 -0.1626 -1.5577
  112OSM    C2S11611   2.568   2.265  10.913  0.1033 -0.4964  0.0319
  112OSM    H2S11612   2.555   2.156  10.929  1.1994 -0.4779  1.1078
  112OSM    C3S11613   2.435   2.321  10.969  0.1684  0.5177 -0.4824
  112OSM    H3S11614   2.446   2.430  10.990  0.7312  0.4549 -0.4469
  112OSM     O311615   2.391   2.253  11.086  0.0573  0.3832 -0.2078
  112OSM    HO311616   2.470   2.210  11.120 -0.7181  0.6662  2.1718
  112OSM    C4S11617   2.322   2.318  10.858 -0.4409  1.3465 -0.6495
  112OSM    H4S11618   2.310   2.417  10.812  0.1902  1.0772 -1.4050
  112OSM    C5S11619   2.235   2.220  10.830 -0.1518  0.5242 -0.0679
  112OSM    H5S11620   2.242   2.120  10.875 -0.8812  1.0409  1.2535
  112OSM    C6S11621   2.127   2.239  10.735 -0.3843 -0.8793  0.6648
  112OSM    H6S11622   2.141   2.339  10.689  2.4718 -0.5699  1.9576
  112OSM    H6T11623   2.028   2.251  10.784 -0.6347  2.0993 -0.3833
  112OSM    C7S11624   2.110   2.130  10.625 -0.3632 -0.3777  0.2886
  112OSM    H7S11625   2.084   2.029  10.663 -3.1901  0.4852  0.9012
  112OSM    H7T11626   2.199   2.124  10.559  0.5666  1.2812  1.3276
  112OSM    C8S11627   1.984   2.160  10.531 -0.4159  0.2797 -0.6576
  112OSM    H8S11628   1.993   2.257  10.477 -0.0039  0.1422 -0.8488
  112OSM    H8T11629   1.891   2.184  10.586  0.8001  3.2761  0.2974
  112OSM    C9S11630   1.954   2.040  10.436 -0.6236  0.2018  0.2725
  112OSM    H9S11631   1.846   2.058  10.414 -0.9832 -0.2609  1.5275
  112OSM    H9T11632   1.960   1.948  10.498 -1.0923 -0.4780 -0.6695
  112OSM   C10S11633   2.041   2.048  10.318  0.2105  0.1294  0.2546
  112OSM   H10S11634   2.142   2.014  10.349 -0.1642 -0.5094  0.8072
  112OSM   H10T11635   2.050   2.153  10.283  0.1712  0.8090  2.2025
  112OSM   C11S11636   2.000   1.953  10.209 -0.8012 -0.2651  0.3870
  112OSM   H11S11637   1.895   1.971  10.178 -0.6757 -1.1449 -0.5990
  112OSM   H11T11638   2.005   1.845  10.237  0.3250 -0.5132 -0.6662
  112OSM   C12S11639   2.078   1.971  10.076  0.0750 -0.1895 -0.9943
  112OSM   H12S11640   2.186   1.976  10.102  0.3293 -1.7184 -1.6780
  112OSM   H12T11641   2.053   2.064  10.020 -2.3579 -0.8791 -1.1576
  112OSM   C13S11642   2.034   1.871   9.973 -0.5661  1.0990 -0.5318
  112OSM   H13S11643   1.926   1.848   9.983 -0.1410 -0.0384  2.1777
  112OSM   H13T11644   2.088   1.777   9.997 -1.7285  0.4719 -0.3345
  112OSM   C14S11645   2.066   1.907   9.829 -0.1525  1.0747 -0.0333
  112OSM   H14S11646   2.176   1.906   9.815 -0.2923  0.1353 -1.1411
  112OSM   H14T11647   2.033   2.011   9.807 -1.5952  0.7580  0.4926
  112OSM   C15S11648   1.995   1.812   9.730 -0.4057  0.3811  0.0508
  112OSM   H15S11649   1.891   1.798   9.766  0.7451 -1.2628  3.1246
  112OSM   H15T11650   2.042   1.711   9.735  1.2124  1.1428  0.8141
  112OSM   C16S11651   1.991   1.875   9.584  0.2876  0.1155 -0.2513
  112OSM   H16S11652   2.094   1.855   9.548  0.2263  1.3253 -1.1280
  112OSM   H16T11653   1.970   1.983   9.592 -0.7347  0.0042 -1.2075
  112OSM   C17S11654   1.878   1.820   9.493 -0.3061 -0.2223  0.0725
  112OSM   H17S11655   1.777   1.839   9.535 -0.6385  0.2709 -0.9148
  112OSM   H17T11656   1.887   1.710   9.502  1.2606 -0.1201  0.0866
  112OSM   C18S11657   1.885   1.863   9.342  0.4882 -0.0570 -0.8425
  112OSM   H18S11658   1.787   1.832   9.300 -0.9231  0.3416  1.8854
  112OSM   H18T11659   1.964   1.804   9.293 -0.6065 -2.5279  0.2080
  112OSM   H18U11660   1.884   1.974   9.334 -1.3795  0.0185 -0.1958
  112OSM    C1F11661   2.691   2.221  10.697  0.3962  0.3278  0.8096
  112OSM     OF11662   2.743   2.116  10.735 -0.1152  0.8804 -0.8141
  112OSM    C2F11663   2.706   2.271  10.552  0.0478 -0.1367  0.1582
  112OSM    H2F11664   2.774   2.358  10.544  0.8264 -0.8671 -2.3482
  112OSM    H2G11665   2.608   2.303  10.510  0.5085  1.4898  0.2632
  112OSM    C3F11666   2.764   2.162  10.468  0.3170  0.2295  0.3673
  112OSM    H3F11667   2.708   2.069  10.494  0.7820  0.2404  1.4488
  112OSM    H3G11668   2.872   2.149  10.487 -0.1874 -0.1516  3.4550
  112OSM    C4F11669   2.752   2.183  10.318  0.6496  0.5964  0.2797
  112OSM    H4F11670   2.646   2.175  10.285  0.6549  0.3288  0.3262
  112OSM    H4G11671   2.797   2.091  10.274 -0.9807  0.3141 -0.9294
  112OSM    C5F11672   2.824   2.317  10.256  0.1959  0.2318 -0.9783
  112OSM    H5F11673   2.917   2.316  10.317 -0.3395 -3.9245  0.1124
  112OSM    H5G11674   2.781   2.411  10.297 -0.0007 -1.1251  2.2470
  112OSM    C6F11675   2.840   2.318  10.105 -0.1400  0.4106 -0.6167
  112OSM    H6F11676   2.875   2.220  10.068  1.3409  0.8309 -0.4091
  112OSM    H6G11677   2.922   2.390  10.083  0.9815 -0.9565 -0.9887
  112OSM    C7F11678   2.715   2.352  10.031  0.1944  0.2252 -0.1660
  112OSM    H7F11679   2.665   2.442  10.073 -0.8083 -0.9389  1.2056
  112OSM    H7G11680   2.651   2.263  10.046  0.8990  0.0340  2.0460
  112OSM    C8F11681   2.730   2.380   9.885  0.6966  0.0537  0.2424
  112OSM    H8F11682   2.782   2.474   9.860 -0.3425  0.7538  0.6492
  112OSM    H8G11683   2.633   2.404   9.837  0.0829 -2.5391  0.0454
  112OSM    C9F11684   2.797   2.269   9.810  0.3453 -0.0278  0.5655
  112OSM    H9F11685   2.800   2.173   9.864  1.0016  0.8907  2.2471
  112OSM   C10F11686   2.853   2.290   9.690  0.1382  0.5562  0.4300
  112OSM   H10F11687   2.885   2.202   9.633 -0.8076  1.0376 -0.9026
  112OSM   C11F11688   2.863   2.413   9.609  0.1082  0.7880  0.2089
  112OSM   H11F11689   2.952   2.469   9.645  0.5171 -0.9247  2.0429
  112OSM   H11G11690   2.772   2.476   9.615 -0.7150 -0.3943  0.6426
  112OSM   C12F11691   2.898   2.387   9.456 -0.1112 -0.2432 -0.1988
  112OSM   H12F11692   2.988   2.321   9.454 -1.1317 -1.6822 -0.0755
  112OSM   H12G11693   2.924   2.490   9.423 -0.3957  0.4823  1.7229
  112OSM   C13F11694   2.777   2.334   9.360 -0.6378 -0.6670 -0.1671
  112OSM   H13F11695   2.680   2.357   9.409  0.4536  0.4136  1.6563
  112OSM   H13G11696   2.769   2.224   9.369  1.8262 -1.0787 -2.1600
  112OSM   C14F11697   2.780   2.379   9.209  0.5311 -0.4931  0.2291
  112OSM   H14F11698   2.884   2.387   9.171  1.5404 -3.5627  2.0039
  112OSM   H14G11699   2.750   2.486   9.211  0.7343 -0.3898 -1.0514
  112OSM   C15F11700   2.695   2.302   9.109  0.4140  0.3295  0.0003
  112OSM   H15F11701   2.586   2.295   9.128  0.1181 -0.1599 -1.7040
  112OSM   H15G11702   2.741   2.200   9.106  1.7218  0.8597  1.0393
  112OSM   C16F11703   2.708   2.359   8.964 -0.2377 -0.4281 -0.2740
  112OSM   H16F11704   2.804   2.336   8.913  0.2083  0.9917 -0.1418
  112OSM   H16G11705   2.694   2.469   8.971  0.1932 -0.3561 -0.5218
  112OSM   C17F11706   2.600   2.318   8.865 -0.4350  0.1467  0.2711
  112OSM   H17F11707   2.503   2.331   8.917  0.4928  4.2213  1.2961
  112OSM   H17G11708   2.616   2.209   8.853 -0.0863  0.0385  1.5415
  112OSM   C18F11709   2.598   2.399   8.737 -0.0362 -0.2664  0.3798
  112OSM   H18F11710   2.701   2.392   8.695  1.3007 -0.4049  3.4237
  112OSM   H18G11711   2.568   2.504   8.754  0.0397 -0.0749 -0.5824
  112OSM   H18H11712   2.525   2.359   8.663 -1.6499  0.8720  1.3154
  113OSM      N11713   0.219   4.893  11.356 -0.7858  0.0385 -0.2921
  113OSM    C1511714   0.141   4.780  11.298  0.1349 -0.6825  0.3849
  113OSM   H15A11715   0.105   4.807  11.200 -1.0549 -1.2980  0.6281
  113OSM   H15B11716   0.054   4.753  11.356  0.8330 -0.7759  1.4145
  113OSM   H15C11717   0.199   4.690  11.284  1.2772  0.2695 -1.3009
  113OSM    C1411718   0.131   5.010  11.360  0.4638 -0.3547  0.6315
  113OSM   H14A11719   0.096   5.037  11.261 -2.7795 -1.0054  1.4619
  113OSM   H14B11720   0.185   5.087  11.413  2.4682 -2.2028  1.4271
  113OSM   H14C11721   0.046   4.993  11.425  0.6356 -0.8080  0.7420
  113OSM    C1311722   0.261   4.857  11.493 -0.2698  0.0744 -0.4574
  113OSM   H13A11723   0.177   4.854  11.561  0.3086 -0.0924  0.2589
  113OSM   H13B11724   0.317   4.935  11.542 -0.7357 -1.0719  2.0631
  113OSM   H13C11725   0.312   4.762  11.496  1.5246  0.9936 -0.6139
  113OSM    C1211726   0.357   4.901  11.284  0.0200 -0.1044  0.3021
  113OSM   H12A11727   0.408   4.808  11.300 -0.1870  0.2641  3.8685
  113OSM   H12B11728   0.416   4.968  11.345  1.2901 -1.4249  0.5568
  113OSM    C1111729   0.348   4.941  11.136  0.4726 -0.4640  0.4837
  113OSM   H11A11730   0.281   4.879  11.074  1.4939  1.0207 -2.2551
  113OSM   H11B11731   0.444   4.911  11.089 -0.0686  1.0656 -1.7501
  113OSM      P11732   0.249   5.132  10.989  0.3735  0.0408  0.1458
  113OSM    O1311733   0.104   5.133  11.021 -0.1895 -0.4345  0.5509
  113OSM    O1411734   0.300   5.264  10.940  0.3724  0.4442 -0.1069
  113OSM    O1111735   0.270   5.018  10.880  0.1443 -0.4283  0.5834
  113OSM    O1211736   0.326   5.081  11.114 -0.2681 -0.0474  0.1006
  113OSM    C1S11737   0.392   5.016  10.799  0.1560 -0.1535 -0.4846
  113OSM    H1S11738   0.459   4.943  10.848 -0.0966  0.7180  1.2598
  113OSM    H1T11739   0.440   5.117  10.798 -0.6730  0.2902  0.9150
  113OSM     NF11740   0.480   4.999  10.566  0.0920  0.0035  0.1609
  113OSM    HNF11741   0.498   5.084  10.517  0.0828  0.3218  0.7040
  113OSM    C2S11742   0.360   4.985  10.648 -0.0599  0.3816 -0.2657
  113OSM    H2S11743   0.318   4.882  10.644  0.6587  0.0214  0.9718
  113OSM    C3S11744   0.251   5.074  10.584  0.0072  0.9053 -0.0479
  113OSM    H3S11745   0.289   5.175  10.559  1.6053  0.2903 -0.2598
  113OSM     O311746   0.138   5.092  10.670  0.3357  0.5096 -0.4970
  113OSM    HO311747   0.159   5.049  10.753  1.1876  2.6465  0.4681
  113OSM    C4S11748   0.199   5.011  10.457  0.8126 -0.2730 -1.1528
  113OSM    H4S11749   0.132   4.924  10.466 -1.3470  1.2363 -1.9919
  113OSM    C5S11750   0.216   5.065  10.336 -0.0285 -0.1213 -0.7823
  113OSM    H5S11751   0.273   5.159  10.337  0.8097 -0.5116  2.6858
  113OSM    C6S11752   0.151   4.994  10.219  0.3903  0.2514  0.4326
  113OSM    H6S11753   0.078   5.072  10.187  0.8611  1.7849  2.8605
  113OSM    H6T11754   0.093   4.909  10.261  1.5640 -1.0730 -0.5217
  113OSM    C7S11755   0.245   4.962  10.104 -0.6597  0.4704 -0.0204
  113OSM    H7S11756   0.325   4.892  10.136 -0.8252  1.0771  1.8953
  113OSM    H7T11757   0.290   5.061  10.078 -0.8378  0.4953 -0.2401
  113OSM    C8S11758   0.170   4.896   9.999 -0.0564  0.3867 -0.2177
  113OSM    H8S11759   0.081   4.959   9.978  0.6865  1.6919  0.4182
  113OSM    H8T11760   0.130   4.796  10.028 -0.6183  1.1751  1.9165
  113OSM    C9S11761   0.252   4.870   9.874  0.2370 -0.0430  0.2087
  113OSM    H9S11762   0.346   4.822   9.907  1.1295  0.4048 -1.5598
  113OSM    H9T11763   0.268   4.964   9.817 -1.8220 -0.0364 -0.4514
  113OSM   C10S11764   0.180   4.773   9.776  0.3407  0.2973 -0.4822
  113OSM   H10S11765   0.086   4.822   9.743 -0.3728  0.0222  1.0572
  113OSM   H10T11766   0.161   4.678   9.830  4.3232  0.7605  2.1384
  113OSM   C11S11767   0.262   4.752   9.649 -0.8342  0.2628 -0.0554
  113OSM   H11S11768   0.352   4.693   9.678  0.0453  2.0629  1.0268
  113OSM   H11T11769   0.290   4.849   9.603 -0.6474  0.9287  1.4179
  113OSM   C12S11770   0.176   4.678   9.547  0.5637  0.2417  0.5104
  113OSM   H12S11771   0.092   4.748   9.528  0.1332 -1.0997 -3.4856
  113OSM   H12T11772   0.139   4.574   9.561 -0.1096  0.4441  0.2798
  113OSM   C13S11773   0.253   4.686   9.409  0.3396  0.3516  0.3609
  113OSM   H13S11774   0.347   4.626   9.413  0.0452 -0.0866  0.8621
  113OSM   H13T11775   0.287   4.786   9.375  2.5549 -0.3303  0.3860
  113OSM   C14S11776   0.159   4.638   9.292 -0.0732 -0.2598  0.3377
  113OSM   H14S11777   0.058   4.684   9.291  0.0515  0.0327 -1.1284
  113OSM   H14T11778   0.141   4.529   9.280 -0.1464 -0.0081 -2.5593
  113OSM   C15S11779   0.236   4.672   9.156 -0.5440  0.6757  0.4218
  113OSM   H15S11780   0.341   4.638   9.160 -0.7894 -0.0505  0.9619
  113OSM   H15T11781   0.242   4.782   9.147 -1.5772  0.6737 -0.5657
  113OSM   C16S11782   0.173   4.617   9.020 -0.2673 -0.4884 -0.5295
  113OSM   H16S11783   0.063   4.614   9.039  0.1342 -0.2017  2.2841
  113OSM   H16T11784   0.217   4.517   9.038  1.6819  0.8957  3.8051
  113OSM   C17S11785   0.227   4.696   8.903 -0.2881  0.1964 -0.7356
  113OSM   H17S11786   0.204   4.637   8.813 -2.9101 -1.3375  0.8266
  113OSM   H17T11787   0.336   4.721   8.906 -0.3559  0.5838 -1.3258
  113OSM   C18S11788   0.149   4.827   8.885  0.6072 -0.1559 -0.1501
  113OSM   H18S11789   0.180   4.902   8.809  2.3806 -1.6866 -1.0081
  113OSM   H18T11790   0.157   4.876   8.985  0.5062 -0.7132  0.1326
  113OSM   H18U11791   0.044   4.793   8.879  0.9999 -2.0037  1.9533
  113OSM    C1F11792   0.580   4.922  10.594  0.0656  0.0754  0.5812
  113OSM     OF11793   0.559   4.821  10.665  0.3178  0.5728  0.0754
  113OSM    C2F11794   0.716   4.957  10.539  0.1321  0.8750 -0.7195
  113OSM    H2F11795   0.783   4.870  10.552  0.1700  1.0413  0.2661
  113OSM    H2G11796   0.754   5.045  10.595 -0.5402  0.5372  0.2877
  113OSM    C3F11797   0.716   4.994  10.385 -0.5396 -0.1878  0.0945
  113OSM    H3F11798   0.816   5.039  10.366 -1.6400  3.2431  1.5430
  113OSM    H3G11799   0.641   5.075  10.372 -1.1705 -0.8530 -0.4560
  113OSM    C4F11800   0.688   4.878  10.290 -0.1096 -0.3985  0.7480
  113OSM    H4F11801   0.603   4.816  10.325  0.5702 -1.7769  0.0359
  113OSM    H4G11802   0.782   4.822  10.271  0.7782  0.7640  1.6251
  113OSM    C5F11803   0.647   4.938  10.157 -0.1352  0.0152  0.2814
  113OSM    H5F11804   0.734   5.005  10.138  1.5945 -2.2322 -0.1236
  113OSM    H5G11805   0.545   4.982  10.149 -0.4671 -0.6286  0.9238
  113OSM    C6F11806   0.641   4.831  10.052 -0.1081 -0.3594  0.4555
  113OSM    H6F11807   0.555   4.770  10.087 -0.1656 -0.4774  0.1179
  113OSM    H6G11808   0.737   4.775  10.042  0.0939  0.1330 -0.4560
  113OSM    C7F11809   0.612   4.897   9.915  1.0475 -0.1115 -0.3632
  113OSM    H7F11810   0.681   4.977   9.880 -0.3634  1.6983  0.7450
  113OSM    H7G11811   0.510   4.942   9.910  0.7209 -0.7274  0.6280
  113OSM    C8F11812   0.622   4.781   9.811  0.3418 -0.1607 -0.2319
  113OSM    H8F11813   0.546   4.704   9.839  1.7820 -2.2340 -1.7219
  113OSM    H8G11814   0.722   4.742   9.840  0.7794  1.8870  1.2074
  113OSM    C9F11815   0.626   4.816   9.665 -0.3945  0.1769 -0.0029
  113OSM    H9F11816   0.530   4.859   9.632  0.1083 -0.2075 -2.1451
  113OSM   C10F11817   0.728   4.806   9.580 -0.6721  0.6324 -0.1543
  113OSM   H10F11818   0.714   4.848   9.480 -0.3084  0.0333 -0.4599
  113OSM   C11F11819   0.865   4.752   9.619 -0.1292 -0.1023  0.1405
  113OSM   H11F11820   0.881   4.642   9.623 -1.1581 -0.3933 -2.1322
  113OSM   H11G11821   0.906   4.798   9.711  0.1314  0.9228 -0.4785
  113OSM   C12F11822   0.955   4.785   9.498  0.2967  0.5687 -0.3861
  113OSM   H12F11823   0.937   4.887   9.458  0.1809  1.1723  1.1495
  113OSM   H12G11824   0.930   4.712   9.418 -3.8456  2.4532 -1.0390
  113OSM   C13F11825   1.101   4.775   9.539 -0.1511 -0.4324 -0.1353
  113OSM   H13F11826   1.126   4.687   9.602  1.4600 -0.6614 -1.0231
  113OSM   H13G11827   1.114   4.860   9.609 -0.5224 -1.3614  1.1022
  113OSM   C14F11828   1.197   4.816   9.430  0.1058 -0.3214 -0.2186
  113OSM   H14F11829   1.292   4.840   9.482  0.5026 -0.7209 -0.7485
  113OSM   H14G11830   1.166   4.909   9.378  3.0981  1.4798  0.9389
  113OSM   C15F11831   1.230   4.716   9.323  0.2528 -0.4659  0.3799
  113OSM   H15F11832   1.224   4.613   9.366 -0.9716 -0.4066  0.3899
  113OSM   H15G11833   1.327   4.726   9.271 -0.6393  2.2377 -0.9126
  113OSM   C16F11834   1.143   4.718   9.200  0.9518 -0.0534  0.0601
  113OSM   H16F11835   1.175   4.807   9.141  1.8066  0.9640  1.9824
  113OSM   H16G11836   1.035   4.736   9.218  0.4921 -0.9153 -1.6566
  113OSM   C17F11837   1.160   4.598   9.112 -0.1500 -0.0668 -0.3216
  113OSM   H17F11838   1.145   4.502   9.165  0.4337 -1.4387 -2.5277
  113OSM   H17G11839   1.267   4.596   9.081 -0.1048  0.6097 -0.2340
  113OSM   C18F11840   1.051   4.602   9.006 -0.5519  0.3527 -0.1930
  113OSM   H18F11841   0.955   4.565   9.049 -0.0365 -0.8572 -0.0610
  113OSM   H18G11842   1.076   4.547   8.913  0.7895  0.2536  0.2085
  113OSM   H18H11843   1.022   4.707   8.982 -1.6648  0.2749  0.7178
  114OSM      N11844   2.272   1.398  11.516  0.6274  0.2178 -0.6035
  114OSM    C1511845   2.258   1.278  11.606 -0.3729  0.1462  0.4117
  114OSM   H15A11846   2.215   1.194  11.553 -0.2894 -0.6664  1.6008
  114OSM   H15B11847   2.193   1.295  11.690 -1.4833 -0.0369 -0.3909
  114OSM   H15C11848   2.351   1.240  11.645 -0.4525  1.2483  1.7589
  114OSM    C1411849   2.134   1.426  11.465 -0.6877  0.1680 -0.1027
  114OSM   H14A11850   2.063   1.448  11.543 -0.6916  2.9093 -0.8056
  114OSM   H14B11851   2.095   1.342  11.408 -2.8351 -1.1160  2.9603
  114OSM   H14C11852   2.138   1.518  11.410  2.1255  1.0999  1.4562
  114OSM    C1311853   2.316   1.522  11.590 -0.5252 -0.1556 -0.6723
  114OSM   H13A11854   2.377   1.591  11.533  0.0008  1.3788  1.6353
  114OSM   H13B11855   2.361   1.509  11.687  0.8688  1.5333 -1.0273
  114OSM   H13C11856   2.233   1.582  11.624 -0.2911  0.0581 -0.4760
  114OSM    C1211857   2.372   1.361  11.414 -0.3732  0.4004  0.2096
  114OSM   H12A11858   2.341   1.276  11.356 -3.0538  0.4141  1.5025
  114OSM   H12B11859   2.462   1.333  11.466 -0.7433  1.0181  1.2054
  114OSM    C1111860   2.415   1.471  11.311 -0.3212  0.3586  0.2854
  114OSM   H11A11861   2.513   1.442  11.269 -0.4566 -1.5356  1.1316
  114OSM   H11B11862   2.439   1.565  11.364 -2.4399 -0.6062  3.2474
  114OSM      P11863   2.325   1.435  11.068  0.0628  0.3909 -0.0790
  114OSM    O1311864   2.355   1.287  11.065 -0.0437  0.1758  0.2775
  114OSM    O1411865   2.205   1.461  10.983  0.3892 -0.6049  0.0544
  114OSM    O1111866   2.447   1.515  11.014 -0.0964  0.2225  0.3161
  114OSM    O1211867   2.310   1.491  11.216 -0.7203 -1.0142 -0.3752
  114OSM    C1S11868   2.516   1.465  10.891  0.0395 -0.4614  0.0866
  114OSM    H1S11869   2.483   1.362  10.868  0.3308 -0.3649 -0.7637
  114OSM    H1T11870   2.627   1.466  10.901  0.0682  0.7360 -0.1704
  114OSM     NF11871   2.524   1.471  10.641 -0.4161 -0.5109  0.0423
  114OSM    HNF11872   2.617   1.489  10.609 -0.7075 -0.2627 -0.6725
  114OSM    C2S11873   2.476   1.543  10.761 -0.0032 -0.0046  0.3575
  114OSM    H2S11874   2.366   1.553  10.751  0.0092 -0.5691 -0.5177
  114OSM    C3S11875   2.522   1.695  10.776  0.5829  0.1540  0.6063
  114OSM    H3S11876   2.633   1.695  10.765  0.5469 -0.3684  0.1967
  114OSM     O311877   2.493   1.752  10.903  0.6189  0.2264 -0.3800
  114OSM    HO311878   2.458   1.675  10.948  1.7852 -1.8899 -2.8506
  114OSM    C4S11879   2.460   1.773  10.663 -0.4409 -0.2909  0.6891
  114OSM    H4S11880   2.359   1.747  10.630  0.0199 -1.9596  0.5262
  114OSM    C5S11881   2.533   1.857  10.581 -0.4292 -0.3551  0.7057
  114OSM    H5S11882   2.639   1.883  10.593 -0.2893  0.4947 -1.7242
  114OSM    C6S11883   2.473   1.926  10.459 -0.1473 -1.0740  0.5932
  114OSM    H6S11884   2.474   2.037  10.466 -0.1857 -1.0598  0.3809
  114OSM    H6T11885   2.363   1.906  10.456 -0.5352  0.9461  0.1357
  114OSM    C7S11886   2.543   1.890  10.316 -0.1634 -0.2003 -0.6577
  114OSM    H7S11887   2.555   1.780  10.304 -2.1141 -0.6297  0.7000
  114OSM    H7T11888   2.642   1.939  10.319 -0.2310 -0.1002  0.3282
  114OSM    C8S11889   2.469   1.956  10.201 -0.2841  0.3195 -0.1392
  114OSM    H8S11890   2.452   2.061  10.230 -1.0942  0.4441 -1.0486
  114OSM    H8T11891   2.371   1.911  10.175 -0.0675  0.1466 -0.6552
  114OSM    C9S11892   2.543   1.954  10.068 -0.1486 -0.4880  0.1001
  114OSM    H9S11893   2.572   1.849  10.049 -0.0134 -0.4232 -0.0548
  114OSM    H9T11894   2.633   2.019  10.075  0.0583 -0.9212  1.9492
  114OSM   C10S11895   2.451   2.006   9.958 -0.4345  0.0781 -0.7149
  114OSM   H10S11896   2.410   2.106   9.980  0.6329  0.1374  1.2687
  114OSM   H10T11897   2.366   1.935   9.951 -1.7538  1.4521  0.5654
  114OSM   C11S11898   2.529   2.009   9.826  0.3807  0.0937 -0.1972
  114OSM   H11S11899   2.557   1.913   9.778  1.7323  0.4960 -0.2463
  114OSM   H11T11900   2.622   2.068   9.840  1.6114 -2.2190  2.0884
  114OSM   C12S11901   2.448   2.081   9.721 -0.2257 -0.0263 -0.6945
  114OSM   H12S11902   2.434   2.190   9.739  0.6403  0.5757 -3.3202
  114OSM   H12T11903   2.341   2.050   9.723  0.0005 -0.8478 -1.0437
  114OSM   C13S11904   2.503   2.047   9.584  0.8025 -1.0302 -0.0971
  114OSM   H13S11905   2.516   1.942   9.551 -1.9649 -1.0147 -1.5101
  114OSM   H13T11906   2.598   2.105   9.587 -1.9357  3.9688  1.7110
  114OSM   C14S11907   2.405   2.105   9.473 -0.5545  0.1062 -0.7531
  114OSM   H14S11908   2.416   2.215   9.477  1.4517 -0.1028  2.0401
  114OSM   H14T11909   2.299   2.082   9.498 -0.2904  0.3229  0.5968
  114OSM   C15S11910   2.428   2.060   9.331 -0.5695 -0.1793 -0.0283
  114OSM   H15S11911   2.428   1.949   9.339 -2.0011 -0.1399  0.7024
  114OSM   H15T11912   2.533   2.083   9.301  0.2415 -1.3908  1.7223
  114OSM   C16S11913   2.334   2.120   9.222 -0.2297  0.3128  0.6402
  114OSM   H16S11914   2.356   2.229   9.217  0.7684  0.0741 -1.1330
  114OSM   H16T11915   2.236   2.096   9.269 -2.1973 -0.3684 -3.3410
  114OSM   C17S11916   2.337   2.050   9.089 -0.5748 -0.1972  0.6524
  114OSM   H17S11917   2.322   1.943   9.111 -3.0080 -0.0160  0.1509
  114OSM   H17T11918   2.439   2.068   9.050 -0.7327  1.4496  0.9101
  114OSM   C18S11919   2.238   2.085   8.982 -0.7015  0.3811 -0.1353
  114OSM   H18S11920   2.216   2.195   8.981 -2.3703  0.1013 -2.1196
  114OSM   H18T11921   2.138   2.041   9.004 -0.5894 -0.4211 -1.1728
  114OSM   H18U11922   2.274   2.049   8.883  0.0514 -0.1031  0.3105
  114OSM    C1F11923   2.472   1.357  10.598  0.0870 -0.4314 -0.3683
  114OSM     OF11924   2.374   1.304  10.642  0.3161  0.0664  0.0012
  114OSM    C2F11925   2.542   1.302  10.477  0.8126  0.2218 -0.2228
  114OSM    H2F11926   2.641   1.261  10.505  1.5510  1.7515 -0.4851
  114OSM    H2G11927   2.559   1.380  10.399 -1.2384  0.6612 -0.2877
  114OSM    C3F11928   2.467   1.180  10.412  0.6978 -0.1207 -0.0363
  114OSM    H3F11929   2.397   1.239  10.349  1.6830  2.4870  1.1307
  114OSM    H3G11930   2.418   1.112  10.486 -0.6757  1.4012  0.5213
  114OSM    C4F11931   2.561   1.114  10.310  0.2537 -0.3297 -0.7886
  114OSM    H4F11932   2.492   1.037  10.270  0.1815 -1.5276  1.4297
  114OSM    H4G11933   2.647   1.074  10.368 -2.2026 -2.5280  1.6439
  114OSM    C5F11934   2.614   1.195  10.195 -0.1150 -0.1418 -0.5384
  114OSM    H5F11935   2.669   1.285  10.230 -2.1949  0.9540  0.1138
  114OSM    H5G11936   2.531   1.244  10.138 -0.0173  1.7715  0.8547
  114OSM    C6F11937   2.702   1.118  10.101 -0.2649  0.0138  0.1556
  114OSM    H6F11938   2.707   1.014  10.140  0.3689 -1.4791 -3.4825
  114OSM    H6G11939   2.802   1.166  10.099 -0.7867  1.1898  1.0189
  114OSM    C7F11940   2.642   1.116   9.961  0.2710  0.5094  0.1163
  114OSM    H7F11941   2.584   1.206   9.931 -2.9236 -0.9266  1.5315
  114OSM    H7G11942   2.557   1.046   9.971 -1.5420  2.3017 -1.7573
  114OSM    C8F11943   2.737   1.070   9.848 -0.0058  0.0628 -0.1264
  114OSM    H8F11944   2.676   1.035   9.762  0.8240  4.0500 -2.6238
  114OSM    H8G11945   2.798   0.984   9.883 -0.5092 -0.7671 -1.2287
  114OSM    C9F11946   2.826   1.177   9.801 -0.1594 -0.3851  0.1338
  114OSM    H9F11947   2.910   1.199   9.869 -1.2745 -1.0847  1.8003
  114OSM   C10F11948   2.816   1.248   9.690  0.7341  0.1108  1.4162
  114OSM   H10F11949   2.895   1.318   9.659 -0.0297  0.2289 -0.3908
  114OSM   C11F11950   2.706   1.235   9.586  0.3655  0.8086  0.1134
  114OSM   H11F11951   2.607   1.278   9.613  0.4045  1.8316 -1.2295
  114OSM   H11G11952   2.695   1.125   9.579  1.9473  0.7134 -2.6009
  114OSM   C12F11953   2.743   1.303   9.450  0.8673 -0.8483  0.0210
  114OSM   H12F11954   2.753   1.414   9.455  1.3670 -0.7217 -2.6014
  114OSM   H12G11955   2.666   1.274   9.375 -0.5689  0.4367  0.9369
  114OSM   C13F11956   2.879   1.259   9.401  0.1914 -0.2219 -0.1683
  114OSM   H13F11957   2.888   1.150   9.381  2.4562  0.0486 -0.8631
  114OSM   H13G11958   2.967   1.285   9.463 -0.0333 -1.1232  0.5618
  114OSM   C14F11959   2.920   1.317   9.262 -0.0006 -0.6241  0.1012
  114OSM   H14F11960   3.030   1.329   9.271  0.1310 -2.9149  2.7694
  114OSM   H14G11961   2.870   1.416   9.262 -0.4601 -0.8380 -0.9276
  114OSM   C15F11962   2.880   1.253   9.133 -0.1930  0.1138  0.7041
  114OSM   H15F11963   2.911   1.146   9.125 -0.9742  0.0006 -2.3391
  114OSM   H15G11964   2.925   1.311   9.049 -0.8105 -1.7110 -0.9741
  114OSM   C16F11965   2.730   1.288   9.104 -0.4283 -0.1926  0.0986
  114OSM   H16F11966   2.716   1.396   9.127  1.5815 -0.5172  3.5564
  114OSM   H16G11967   2.666   1.225   9.170 -2.3625  1.8344  0.2651
  114OSM   C17F11968   2.689   1.252   8.956  0.6943  0.1064  0.0138
  114OSM   H17F11969   2.732   1.151   8.939  0.1250 -0.1354  0.0025
  114OSM   H17G11970   2.720   1.326   8.879 -1.3136  0.1359 -0.8222
  114OSM   C18F11971   2.538   1.233   8.935 -0.8037 -0.2893  0.0439
  114OSM   H18F11972   2.521   1.207   8.828  2.7867 -0.9113 -0.5141
  114OSM   H18G11973   2.474   1.318   8.967 -3.1734 -2.1455  0.5036
  114OSM   H18H11974   2.510   1.147   9.001  1.0586  0.7780  2.4039
  115OSM      N11975   5.249   6.683  11.338  0.0099 -0.3250 -0.5288
  115OSM    C1511976   5.130   6.708  11.424 -0.3053  0.3100  0.5655
  115OSM   H15A11977   5.090   6.804  11.393  1.9897  1.2449  0.2856
  115OSM   H15B11978   5.152   6.695  11.529 -0.6624 -0.3641  0.5614
  115OSM   H15C11979   5.052   6.638  11.398  1.0506 -0.9167 -0.3989
  115OSM    C1411980   5.362   6.772  11.386  0.4366  0.0277 -0.1939
  115OSM   H14A11981   5.327   6.873  11.400  0.5138  0.2886 -1.7187
  115OSM   H14B11982   5.435   6.774  11.307  1.7063 -0.8096  0.9167
  115OSM   H14C11983   5.408   6.737  11.477 -0.0384  1.6434  0.7198
  115OSM    C1311984   5.300   6.540  11.342  0.2887 -0.2784 -0.4825
  115OSM   H13A11985   5.216   6.475  11.321 -1.9100  2.4185 -0.6563
  115OSM   H13B11986   5.339   6.530  11.442 -3.5012 -0.7597  1.1265
  115OSM   H13C11987   5.371   6.535  11.261 -0.9267  0.6183 -1.6452
  115OSM    C1211988   5.213   6.733  11.198 -0.3052  0.5282  0.4136
  115OSM   H12A11989   5.153   6.664  11.141  3.3372 -0.7998 -2.2034
  115OSM   H12B11990   5.308   6.735  11.146  0.4203  1.5138  1.7230
  115OSM    C1111991   5.145   6.870  11.172  0.1160  0.5208 -0.1133
  115OSM   H11A11992   5.046   6.856  11.220  0.2887 -1.1843 -0.1895
  115OSM   H11B11993   5.121   6.881  11.064 -1.0252 -1.1060 -0.0584
  115OSM      P11994   5.323   7.047  11.129 -0.3741  0.0787  0.0685
  115OSM    O1311995   5.373   7.175  11.185  0.0004 -0.3374 -0.0139
  115OSM    O1411996   5.417   6.936  11.098  0.6363 -0.0198  0.8329
  115OSM    O1111997   5.238   7.071  10.999 -0.1113  0.0181  0.6078
  115OSM    O1211998   5.219   6.981  11.230  0.3695 -0.1233  0.7941
  115OSM    C1S11999   5.138   7.172  10.999  0.2589 -0.8832  0.3874
  115OSM    H1S12000   5.146   7.249  11.079 -0.2432  1.4042 -1.6665
  115OSM    H1T12001   5.039   7.131  11.032 -0.4107 -0.7005 -1.3223
  115OSM     NF12002   5.038   7.353  10.854  0.2807  0.6803 -0.0607
  115OSM    HNF12003   4.948   7.336  10.817  0.8904 -3.1764 -0.1784
  115OSM    C2S12004   5.132   7.241  10.863  0.0570  0.3028  0.3650
  115OSM    H2S12005   5.232   7.276  10.828  0.4295  0.1024  1.1960
  115OSM    C3S12006   5.096   7.135  10.754 -0.3700 -0.2690  0.1242
  115OSM    H3S12007   4.996   7.089  10.773 -1.2067 -0.0699 -3.2348
  115OSM     O312008   5.180   7.022  10.751 -0.2091 -0.1234  0.0259
  115OSM    HO312009   5.234   7.030  10.830 -1.2880  0.0100  0.7734
  115OSM    C4S12010   5.092   7.205  10.618  0.3383  0.3248 -0.3854
  115OSM    H4S12011   4.987   7.218  10.588 -0.5395  0.0259  2.2520
  115OSM    C5S12012   5.189   7.228  10.529  0.4061 -0.3349 -0.3272
  115OSM    H5S12013   5.290   7.200  10.564  1.0519  2.4062  0.2661
  115OSM    C6S12014   5.171   7.292  10.397  0.2296  0.7876  0.3450
  115OSM    H6S12015   5.167   7.216  10.316  0.3447  0.4769  0.6276
  115OSM    H6T12016   5.267   7.341  10.371 -0.0209  0.7652 -0.6419
  115OSM    C7S12017   5.058   7.394  10.376  0.2638 -0.1233  0.5524
  115OSM    H7S12018   5.075   7.480  10.444  1.8552 -0.6587  0.8711
  115OSM    H7T12019   4.962   7.351  10.413 -0.6208  0.3694 -1.0920
  115OSM    C8S12020   5.030   7.417  10.228  0.0233  0.1039  0.4183
  115OSM    H8S12021   5.118   7.452  10.169 -0.6644 -1.2426 -1.4803
  115OSM    H8T12022   4.945   7.488  10.222 -0.8221 -0.9955 -2.0746
  115OSM    C9S12023   4.962   7.302  10.147  0.0723 -0.1327 -0.3102
  115OSM    H9S12024   4.858   7.279  10.180  0.5455  1.8275  3.0224
  115OSM    H9T12025   5.023   7.210  10.153  3.1563  1.8646  1.6289
  115OSM   C10S12026   4.937   7.342  10.001  0.0388  0.0636  0.5135
  115OSM   H10S12027   5.030   7.347   9.940 -0.4175 -1.3753 -0.3353
  115OSM   H10T12028   4.884   7.440  10.000  0.2758  0.2451 -1.9908
  115OSM   C11S12029   4.849   7.245   9.920  0.0518  0.0869  0.3628
  115OSM   H11S12030   4.742   7.248   9.949 -0.2548 -4.0545  0.2118
  115OSM   H11T12031   4.892   7.144   9.937 -0.5542 -0.3414 -0.5713
  115OSM   C12S12032   4.841   7.287   9.772 -0.1760  0.4180 -0.4152
  115OSM   H12S12033   4.945   7.320   9.749 -0.1058  0.6027  0.1503
  115OSM   H12T12034   4.771   7.373   9.773  1.0376  1.4497  1.3877
  115OSM   C13S12035   4.796   7.177   9.682  0.5156  0.4420  0.4155
  115OSM   H13S12036   4.686   7.163   9.694  0.5609 -0.0131  0.3207
  115OSM   H13T12037   4.846   7.079   9.695  1.8165  1.3496  2.7485
  115OSM   C14S12038   4.824   7.230   9.537 -0.0999  0.3058 -0.7015
  115OSM   H14S12039   4.932   7.245   9.519 -0.3794  0.4289 -2.4262
  115OSM   H14T12040   4.768   7.325   9.528 -0.8031 -0.0655 -0.3901
  115OSM   C15S12041   4.783   7.147   9.414 -0.2471 -0.5178 -0.3143
  115OSM   H15S12042   4.673   7.157   9.405 -0.1869  0.8718  0.3376
  115OSM   H15T12043   4.807   7.038   9.416 -0.1504 -0.4928  0.4837
  115OSM   C16S12044   4.854   7.193   9.285  0.6130  0.1449 -0.1896
  115OSM   H16S12045   4.853   7.301   9.262  0.3743  0.0479 -0.6404
  115OSM   H16T12046   4.793   7.158   9.199  0.4884  0.2765 -0.1549
  115OSM   C17S12047   5.002   7.150   9.279 -0.1650  0.6454  0.0142
  115OSM   H17S12048   5.057   7.158   9.375  0.9367 -0.5470 -0.4746
  115OSM   H17T12049   5.054   7.217   9.207  0.1998 -0.7238 -1.0311
  115OSM   C18S12050   5.005   7.004   9.222 -0.1925 -0.2049 -0.1601
  115OSM   H18S12051   5.105   6.961   9.245  0.1171  0.9741  0.8128
  115OSM   H18T12052   4.987   7.013   9.113 -1.9147  1.0198  0.1841
  115OSM   H18U12053   4.930   6.931   9.259 -1.7643  0.8621 -1.0938
  115OSM    C1F12054   5.077   7.468  10.910  0.4313 -0.0799 -0.6920
  115OSM     OF12055   5.186   7.479  10.960 -0.4234 -0.1645 -0.1316
  115OSM    C2F12056   4.963   7.573  10.919 -0.1923  0.6709  0.5889
  115OSM    H2F12057   4.936   7.586  11.026 -1.2800  0.0026  0.4064
  115OSM    H2G12058   4.880   7.535  10.855  1.9486  0.7077 -2.4376
  115OSM    C3F12059   5.017   7.701  10.849  0.1910  0.1700 -0.2334
  115OSM    H3F12060   5.091   7.761  10.906  0.7372  0.5252 -1.2941
  115OSM    H3G12061   4.931   7.771  10.852  0.2157  0.2118 -0.4914
  115OSM    C4F12062   5.059   7.691  10.701 -0.2852  0.0187  0.0840
  115OSM    H4F12063   4.968   7.655  10.648 -1.1159  0.9307  0.8475
  115OSM    H4G12064   5.136   7.611  10.699  0.9749  1.0213  2.7980
  115OSM    C5F12065   5.120   7.818  10.640 -0.0841 -0.6248 -0.2764
  115OSM    H5F12066   5.212   7.848  10.696 -0.2394 -0.6862  0.0125
  115OSM    H5G12067   5.037   7.891  10.655  1.2158  0.7053  0.8276
  115OSM    C6F12068   5.143   7.814  10.487  0.0683  0.6136 -0.2016
  115OSM    H6F12069   5.050   7.778  10.439  1.4698 -2.3632 -0.9704
  115OSM    H6G12070   5.215   7.730  10.471 -1.2746 -0.7469  0.6460
  115OSM    C7F12071   5.192   7.945  10.426 -0.2593  0.5609  0.2581
  115OSM    H7F12072   5.301   7.961  10.440 -0.1558  0.6711 -0.6039
  115OSM    H7G12073   5.146   8.023  10.490  0.6613  1.2565  0.0943
  115OSM    C8F12074   5.154   7.969  10.276  0.1576  0.3869 -0.1234
  115OSM    H8F12075   5.175   8.074  10.248  2.5900 -0.4476 -1.7999
  115OSM    H8G12076   5.046   7.943  10.287  0.6468 -1.7702  0.1923
  115OSM    C9F12077   5.209   7.883  10.165 -0.5772 -1.0789 -0.7120
  115OSM    H9F12078   5.257   7.790  10.198 -1.8235 -0.8582  1.9396
  115OSM   C10F12079   5.201   7.906  10.030 -0.3854 -0.5169 -0.1217
  115OSM   H10F12080   5.256   7.837   9.964  1.3801 -1.4804  2.2085
  115OSM   C11F12081   5.138   8.022   9.959 -0.0486  0.3761 -0.2304
  115OSM   H11F12082   5.215   8.102   9.946 -0.8891  1.6517  2.1509
  115OSM   H11G12083   5.065   8.074  10.023  0.4987 -0.4267  1.0845
  115OSM   C12F12084   5.055   8.004   9.831  0.3350  0.1610  0.2949
  115OSM   H12F12085   4.946   7.993   9.851 -0.2283  0.2720 -2.2889
  115OSM   H12G12086   5.091   7.914   9.776 -1.5306 -1.2899  1.3174
  115OSM   C13F12087   5.044   8.130   9.739 -0.2151 -0.5284  0.5615
  115OSM   H13F12088   5.151   8.159   9.738  0.1064 -1.6223  0.9165
  115OSM   H13G12089   4.984   8.217   9.773 -1.0027  0.6282 -3.3426
  115OSM   C14F12090   5.003   8.088   9.593  1.1020 -0.3790 -0.2823
  115OSM   H14F12091   4.908   8.029   9.590 -1.1212  2.7790  1.4069
  115OSM   H14G12092   5.082   8.019   9.557  0.2897 -0.4340 -2.0527
  115OSM   C15F12093   4.986   8.205   9.491  0.4577 -0.4647 -0.4097
  115OSM   H15F12094   5.077   8.268   9.493  1.3203 -1.6846 -0.0544
  115OSM   H15G12095   4.896   8.264   9.520  0.7788 -1.3873  2.8693
  115OSM   C16F12096   4.990   8.157   9.342 -0.6503  0.2470  0.4677
  115OSM   H16F12097   4.904   8.088   9.323 -1.3708  0.8526  1.4089
  115OSM   H16G12098   5.084   8.100   9.330 -0.1176  1.2889 -0.5225
  115OSM   C17F12099   5.015   8.265   9.242  0.5856 -0.1869 -0.2809
  115OSM   H17F12100   5.106   8.319   9.276 -0.5780  1.1044  0.9114
  115OSM   H17G12101   4.931   8.338   9.250  0.3717 -0.6333  3.9850
  115OSM   C18F12102   5.011   8.235   9.092  0.6242 -0.3282  0.9005
  115OSM   H18F12103   4.917   8.181   9.068 -1.5305  3.2130  0.6146
  115OSM   H18G12104   5.099   8.172   9.066  1.0298  0.4895  0.2586
  115OSM   H18H12105   5.009   8.326   9.028  1.6943  0.1278  1.4898
  116OSM      N12106   2.352   4.780  10.979  0.1784  0.1210 -0.7588
  116OSM    C1512107   2.224   4.839  11.023  0.1316  0.3910 -0.3478
  116OSM   H15A12108   2.181   4.887  10.937 -0.4370  0.2826 -0.1263
  116OSM   H15B12109   2.237   4.920  11.093  2.3322 -0.7093  0.6298
  116OSM   H15C12110   2.155   4.763  11.056 -1.7154  1.0615 -2.4507
  116OSM    C1412111   2.456   4.884  10.960  0.6246  0.0550  0.2498
  116OSM   H14A12112   2.431   4.954  10.882 -1.2630  1.0135  1.6294
  116OSM   H14B12113   2.548   4.834  10.933  0.3901 -0.8268  1.0552
  116OSM   H14C12114   2.466   4.935  11.055 -0.4914  0.9370 -0.0875
  116OSM    C1312115   2.402   4.695  11.091 -0.1637  0.2426  0.2482
  116OSM   H13A12116   2.335   4.623  11.135  0.1290  0.6762  1.4549
  116OSM   H13B12117   2.420   4.755  11.180 -0.6908  0.7139  0.0411
  116OSM   H13C12118   2.490   4.646  11.051 -0.8122 -0.3715 -0.4450
  116OSM    C1212119   2.334   4.697  10.851  0.2985 -0.4656  0.3112
  116OSM   H12A12120   2.292   4.760  10.773 -3.1704 -3.5076 -0.5500
  116OSM   H12B12121   2.263   4.619  10.873  0.7033 -0.0888  3.2641
  116OSM    C1112122   2.456   4.626  10.787 -0.6074  0.6163  0.4394
  116OSM   H11A12123   2.544   4.694  10.786 -0.0277 -0.1023 -1.1515
  116OSM   H11B12124   2.430   4.606  10.681  2.5106  3.4511 -1.0547
  116OSM      P12125   2.384   4.384  10.832  0.0557  0.0951  0.3695
  116OSM    O1312126   2.434   4.267  10.911  0.5028 -0.0696  0.0623
  116OSM    O1412127   2.242   4.428  10.848  0.0776 -0.5040  0.6478
  116OSM    O1112128   2.400   4.357  10.679  0.2853 -0.5439  0.3788
  116OSM    O1212129   2.485   4.506  10.858  0.2180  0.5613  0.3130
  116OSM    C1S12130   2.524   4.356  10.611  0.9059  0.1493 -0.5439
  116OSM    H1S12131   2.580   4.271  10.655  1.0111  0.2481 -0.4865
  116OSM    H1T12132   2.580   4.448  10.637 -0.1149  0.7076 -0.2606
  116OSM     NF12133   2.643   4.319  10.391 -0.5448  0.1511 -0.1685
  116OSM    HNF12134   2.691   4.394  10.346 -0.3743  0.6228  0.7626
  116OSM    C2S12135   2.515   4.346  10.455  0.2606 -0.1997 -0.7742
  116OSM    H2S12136   2.443   4.264  10.436 -0.7074  0.5105 -0.2670
  116OSM    C3S12137   2.450   4.485  10.409 -0.2960  0.9475  0.2708
  116OSM    H3S12138   2.510   4.562  10.462 -0.2408  0.8234  0.3917
  116OSM     O312139   2.318   4.496  10.457 -0.2436  0.1100  0.1584
  116OSM    HO312140   2.299   4.418  10.511 -2.8784  0.3298 -0.3235
  116OSM    C4S12141   2.454   4.503  10.260 -0.0779 -0.4325 -0.2955
  116OSM    H4S12142   2.381   4.450  10.197  1.9173 -2.4957 -0.9923
  116OSM    C5S12143   2.538   4.582  10.201  0.5100 -0.8405 -0.0566
  116OSM    H5S12144   2.601   4.637  10.272 -0.0937 -1.8893  1.3342
  116OSM    C6S12145   2.551   4.601  10.049 -0.1567 -0.2775  0.5125
  116OSM    H6S12146   2.653   4.643  10.030 -0.6331  0.9616  0.5879
  116OSM    H6T12147   2.478   4.684  10.039 -1.5120 -1.3293  1.4509
  116OSM    C7S12148   2.504   4.481   9.961 -0.4548 -0.0537 -0.5545
  116OSM    H7S12149   2.485   4.513   9.856 -3.2049  1.1928  0.2339
  116OSM    H7T12150   2.412   4.429   9.996  0.1548 -1.2448 -0.6654
  116OSM    C8S12151   2.614   4.375   9.942  0.0373  0.1745  0.0725
  116OSM    H8S12152   2.640   4.329  10.039 -0.2537  0.0144  0.0767
  116OSM    H8T12153   2.708   4.423   9.908  0.1823  0.5915  1.0444
  116OSM    C9S12154   2.576   4.269   9.824  0.5737  0.4234  0.3684
  116OSM    H9S12155   2.468   4.244   9.831  0.7726 -1.2354 -1.5638
  116OSM    H9T12156   2.646   4.183   9.827  1.5917  1.2053 -0.2744
  116OSM   C10S12157   2.593   4.326   9.684 -0.1169 -0.2516 -0.6410
  116OSM   H10S12158   2.702   4.348   9.681 -0.1374  0.1088  0.5377
  116OSM   H10T12159   2.540   4.422   9.672 -1.7791 -1.1570 -0.8709
  116OSM   C11S12160   2.555   4.232   9.575 -0.0846  0.1016  1.2801
  116OSM   H11S12161   2.444   4.233   9.586 -0.2429 -2.5501  0.5726
  116OSM   H11T12162   2.589   4.128   9.595 -1.4080 -0.8827 -1.1319
  116OSM   C12S12163   2.608   4.295   9.439  0.2276  1.2608  0.2879
  116OSM   H12S12164   2.719   4.292   9.445  0.1575 -0.7610  1.5094
  116OSM   H12T12165   2.576   4.402   9.441  2.2024  1.9044 -0.3597
  116OSM   C13S12166   2.552   4.221   9.311 -0.2123 -0.0093 -0.1353
  116OSM   H13S12167   2.588   4.272   9.219 -1.4694  3.1376  0.9710
  116OSM   H13T12168   2.441   4.227   9.320 -0.1525 -0.7615  1.6325
  116OSM   C14S12169   2.594   4.073   9.313  0.5770  0.6883  0.1385
  116OSM   H14S12170   2.539   4.012   9.388  0.3703 -1.1609 -1.4375
  116OSM   H14T12171   2.701   4.068   9.345  0.5596 -0.5774  0.0507
  116OSM   C15S12172   2.576   4.013   9.167  0.1238 -0.2615  0.1757
  116OSM   H15S12173   2.615   4.087   9.094 -0.3691 -0.0245  0.1455
  116OSM   H15T12174   2.467   3.997   9.150  0.1338  1.4428 -1.9450
  116OSM   C16S12175   2.653   3.883   9.163  0.0739  0.2782  0.0293
  116OSM   H16S12176   2.618   3.805   9.234  1.6414  1.0393  1.6990
  116OSM   H16T12177   2.763   3.890   9.175  0.3430 -1.9966 -0.5036
  116OSM   C17S12178   2.641   3.813   9.023 -0.0117 -0.5663  0.0256
  116OSM   H17S12179   2.533   3.791   9.011  0.0133 -1.2089  0.9119
  116OSM   H17T12180   2.682   3.711   9.037 -0.9337 -1.1040 -1.0362
  116OSM   C18S12181   2.699   3.881   8.903 -0.6439 -0.2157  0.5363
  116OSM   H18S12182   2.644   3.977   8.894 -0.4636 -0.2221 -0.8301
  116OSM   H18T12183   2.710   3.823   8.809  0.4764  1.3818 -0.3838
  116OSM   H18U12184   2.801   3.915   8.931 -0.3758 -1.2533  0.8652
  116OSM    C1F12185   2.718   4.212  10.423 -0.1450 -0.0381 -0.8602
  116OSM     OF12186   2.672   4.117  10.488  0.0001 -0.4028  0.3470
  116OSM    C2F12187   2.861   4.210  10.382 -0.4754  0.1862  0.6338
  116OSM    H2F12188   2.914   4.270  10.459  0.3820 -0.2688  0.4088
  116OSM    H2G12189   2.864   4.249  10.279 -2.3824 -0.8277  0.1450
  116OSM    C3F12190   2.923   4.066  10.381 -0.0586  0.6694 -0.3153
  116OSM    H3F12191   2.864   4.002  10.311 -2.4999  0.5892  1.6952
  116OSM    H3G12192   2.911   4.012  10.477 -1.2647  2.7559  0.7630
  116OSM    C4F12193   3.063   4.065  10.327  0.4091  0.0288  0.1230
  116OSM    H4F12194   3.120   3.971  10.339  0.1560 -0.3702 -1.6259
  116OSM    H4G12195   3.118   4.142  10.386 -1.0069  1.5832 -0.5097
  116OSM    C5F12196   3.061   4.092  10.175  0.0649  0.0399 -0.2537
  116OSM    H5F12197   2.981   4.168  10.162  0.1952  0.6857  2.2122
  116OSM    H5G12198   3.035   4.005  10.110 -1.6988 -0.5665  1.1861
  116OSM    C6F12199   3.193   4.144  10.123  0.9270 -0.2365  0.0654
  116OSM    H6F12200   3.280   4.086  10.160  0.7997  0.8641  2.2406
  116OSM    H6G12201   3.198   4.248  10.161 -0.1543 -0.9076  2.2230
  116OSM    C7F12202   3.194   4.127   9.969  0.3393 -0.2559  0.0924
  116OSM    H7F12203   3.198   4.019   9.942  3.1973 -0.1147 -0.3735
  116OSM    H7G12204   3.298   4.164   9.959  1.3176 -1.6730  3.4931
  116OSM    C8F12205   3.096   4.216   9.899 -0.4861 -0.2698 -0.2300
  116OSM    H8F12206   3.149   4.255   9.809  0.6773 -1.1552  0.0458
  116OSM    H8G12207   3.078   4.301   9.969  0.1919 -1.1300  1.0346
  116OSM    C9F12208   2.966   4.153   9.861 -0.2292 -0.2160  0.1987
  116OSM    H9F12209   2.901   4.121   9.944  1.3646 -0.8931  1.2369
  116OSM   C10F12210   2.922   4.121   9.738  0.2628  0.0383  0.8795
  116OSM   H10F12211   2.816   4.091   9.734 -0.2799  1.9216  0.1216
  116OSM   C11F12212   2.988   4.145   9.602 -0.4729  0.5339  0.0659
  116OSM   H11F12213   3.090   4.184   9.620 -0.3301  0.2449 -0.1062
  116OSM   H11G12214   2.930   4.226   9.553 -1.0360 -0.0059 -0.1858
  116OSM   C12F12215   3.003   4.020   9.513  0.9487  0.0853  0.2691
  116OSM   H12F12216   2.906   4.011   9.459 -0.3394 -1.7356  2.7023
  116OSM   H12G12217   3.028   3.936   9.581  0.2921  0.9130  1.5695
  116OSM   C13F12218   3.102   4.026   9.399  0.5664  0.4116 -0.1667
  116OSM   H13F12219   3.199   4.000   9.448  0.5003 -0.3025 -0.3977
  116OSM   H13G12220   3.105   4.130   9.361  0.1274  1.3344  2.1654
  116OSM   C14F12221   3.055   3.933   9.283  0.3364 -0.0248 -0.4351
  116OSM   H14F12222   2.966   3.979   9.235  0.8956  0.1230 -1.3695
  116OSM   H14G12223   3.015   3.839   9.326  0.4586 -0.2707 -0.8516
  116OSM   C15F12224   3.167   3.920   9.179  0.8507 -0.5478 -0.1781
  116OSM   H15F12225   3.256   3.875   9.227 -0.3649  2.0423  5.2851
  116OSM   H15G12226   3.193   4.026   9.157 -1.2497  0.6839  2.6607
  116OSM   C16F12227   3.120   3.840   9.056 -0.1367 -0.3630  0.6332
  116OSM   H16F12228   3.057   3.903   8.990  0.7500  0.4238  0.5141
  116OSM   H16G12229   3.065   3.747   9.083 -1.0518  0.1738  0.6676
  116OSM   C17F12230   3.237   3.800   8.961 -0.7240 -0.1131 -0.0806
  116OSM   H17F12231   3.294   3.735   9.031 -1.2557 -0.2061  0.2701
  116OSM   H17G12232   3.282   3.895   8.924 -0.2563  0.5468  2.0558
  116OSM   C18F12233   3.187   3.716   8.842 -0.0137  0.1903 -0.6217
  116OSM   H18F12234   3.144   3.625   8.889  0.5111  1.1474  1.8320
  116OSM   H18G12235   3.274   3.710   8.774 -0.2068  1.1086 -0.9682
  116OSM   H18H12236   3.101   3.767   8.793  0.5134 -0.5900 -2.4606
  117OSM      N12237   6.432   4.811  10.811  0.1939  0.5830  0.7357
  117OSM    C1512238   6.334   4.924  10.821  0.6597 -0.2735  0.3592
  117OSM   H15A12239   6.351   4.996  10.742 -1.3274  2.0201  1.8905
  117OSM   H15B12240   6.361   4.994  10.899  0.9110  0.4017 -0.3182
  117OSM   H15C12241   6.230   4.899  10.828  0.4427 -0.0292 -1.4303
  117OSM    C1412242   6.564   4.873  10.798 -0.1867  0.0826  1.0721
  117OSM   H14A12243   6.586   4.942  10.879  1.0004  0.3585  0.5353
  117OSM   H14B12244   6.584   4.920  10.703 -0.0420 -0.1871  0.9671
  117OSM   H14C12245   6.641   4.797  10.803  1.3013  1.4955  0.7419
  117OSM    C1312246   6.424   4.738  10.941 -0.8154  0.4422 -0.1302
  117OSM   H13A12247   6.462   4.800  11.022 -1.1969 -0.8310  1.0684
  117OSM   H13B12248   6.490   4.653  10.944 -2.5714 -0.9694  0.7464
  117OSM   H13C12249   6.326   4.697  10.961 -1.2496  2.3319  2.1826
  117OSM    C1212250   6.399   4.715  10.696 -0.3157 -0.5409 -0.2103
  117OSM   H12A12251   6.469   4.633  10.693 -0.3238 -0.5274 -1.9793
  117OSM   H12B12252   6.412   4.765  10.601 -2.8990 -1.2346 -1.0273
  117OSM    C1112253   6.257   4.645  10.676 -0.7102 -0.4827 -0.0191
  117OSM   H11A12254   6.260   4.581  10.585 -1.0795  0.7073 -0.9002
  117OSM   H11B12255   6.179   4.725  10.667  0.1505  0.3760 -0.0356
  117OSM      P12256   6.279   4.426  10.815 -0.4515 -0.5928  0.4051
  117OSM    O1312257   6.354   4.415  10.941  0.8710 -0.4333  0.6467
  117OSM    O1412258   6.157   4.347  10.817 -0.4105 -0.3257 -0.2495
  117OSM    O1112259   6.367   4.391  10.688  0.0101 -0.7579  0.5559
  117OSM    O1212260   6.227   4.574  10.793 -0.3945  0.2081  0.8907
  117OSM    C1S12261   6.458   4.287  10.663 -0.3790  0.0402 -0.5551
  117OSM    H1S12262   6.426   4.198  10.722 -1.7513  0.8222 -0.0602
  117OSM    H1T12263   6.557   4.309  10.708 -0.3600 -0.6255 -0.2547
  117OSM     NF12264   6.532   4.119  10.501  0.1406 -0.9455 -0.4739
  117OSM    HNF12265   6.629   4.113  10.478 -0.0060 -0.8996 -1.1061
  117OSM    C2S12266   6.464   4.250  10.513 -0.5654  0.1821  0.3355
  117OSM    H2S12267   6.366   4.238  10.463 -0.4494  0.1456  0.1156
  117OSM    C3S12268   6.540   4.362  10.444 -0.9733  0.2724  0.3184
  117OSM    H3S12269   6.637   4.374  10.498 -0.1762  0.4342 -1.1098
  117OSM     O312270   6.478   4.488  10.463  0.2105  0.2845  0.4513
  117OSM    HO312271   6.417   4.489  10.538  0.6122  2.1144  0.8124
  117OSM    C4S12272   6.567   4.329  10.300  0.0147 -0.0777 -0.2852
  117OSM    H4S12273   6.668   4.288  10.288  0.5493  1.4851 -1.4553
  117OSM    C5S12274   6.495   4.367  10.189  0.7463  0.5966 -0.4510
  117OSM    H5S12275   6.409   4.432  10.209 -0.1917 -0.8468  0.4237
  117OSM    C6S12276   6.512   4.344  10.044  0.0013 -0.1768  0.7851
  117OSM    H6S12277   6.472   4.432   9.989 -2.2823 -0.9231  1.1274
  117OSM    H6T12278   6.430   4.270  10.027 -0.3154  0.6067 -1.4280
  117OSM    C7S12279   6.641   4.276   9.997 -0.4930 -0.5689  0.0497
  117OSM    H7S12280   6.644   4.170  10.031  2.8811 -0.3547  0.7848
  117OSM    H7T12281   6.735   4.328  10.026 -1.7113  2.3539 -0.8992
  117OSM    C8S12282   6.649   4.272   9.844 -0.4344  0.1837  0.1454
  117OSM    H8S12283   6.650   4.381   9.822 -1.0336 -0.1230 -1.6011
  117OSM    H8T12284   6.558   4.225   9.801 -1.4198  2.6966 -0.6947
  117OSM    C9S12285   6.776   4.203   9.793 -0.2873 -0.2808 -0.3485
  117OSM    H9S12286   6.751   4.096   9.782 -0.5041 -0.1581 -1.1285
  117OSM    H9T12287   6.861   4.217   9.864  0.2996 -0.4675 -1.0085
  117OSM   C10S12288   6.822   4.266   9.654  0.4197 -0.4688  0.0750
  117OSM   H10S12289   6.905   4.204   9.615  0.1188 -1.9406  1.6319
  117OSM   H10T12290   6.845   4.373   9.675 -1.5367  0.1758 -0.7898
  117OSM   C11S12291   6.702   4.259   9.556 -0.4906 -0.2548  0.3037
  117OSM   H11S12292   6.613   4.323   9.574 -0.9156 -0.6936 -0.2146
  117OSM   H11T12293   6.663   4.157   9.574 -2.7816  1.1632  4.9528
  117OSM   C12S12294   6.715   4.290   9.408 -0.1758 -0.3526 -0.5119
  117OSM   H12S12295   6.799   4.227   9.374 -0.5203 -0.9680 -0.2443
  117OSM   H12T12296   6.727   4.399   9.392 -0.5442 -0.5871 -2.7112
  117OSM   C13S12297   6.584   4.255   9.333 -0.2928  0.3309  0.2050
  117OSM   H13S12298   6.498   4.303   9.385 -1.2837  1.3764 -2.2252
  117OSM   H13T12299   6.574   4.146   9.351  1.7540  0.4665  2.7625
  117OSM   C14S12300   6.579   4.303   9.182  0.6486  0.1742  0.0769
  117OSM   H14S12301   6.647   4.238   9.124 -2.4092 -2.2645 -1.0594
  117OSM   H14T12302   6.607   4.410   9.181 -1.4762  0.7761  0.0441
  117OSM   C15S12303   6.438   4.288   9.116 -0.4753 -0.0361 -0.3240
  117OSM   H15S12304   6.441   4.307   9.007  0.2923 -0.3674 -0.3628
  117OSM   H15T12305   6.371   4.367   9.158 -0.5808  0.6218 -1.7069
  117OSM   C16S12306   6.367   4.156   9.147 -0.6826  0.2810 -0.7050
  117OSM   H16S12307   6.361   4.155   9.257  2.1996  3.0646 -0.3692
  117OSM   H16T12308   6.427   4.067   9.116  0.8431  1.5241 -1.4652
  117OSM   C17S12309   6.229   4.152   9.071  0.6556  0.3191  0.1109
  117OSM   H17S12310   6.257   4.135   8.965  1.3309  0.0488  0.3261
  117OSM   H17T12311   6.177   4.250   9.080 -1.4480 -0.6219 -0.9817
  117OSM   C18S12312   6.134   4.039   9.115  0.4768  0.9301 -0.6462
  117OSM   H18S12313   6.034   4.069   9.075  1.1762  2.6407 -1.2167
  117OSM   H18T12314   6.129   4.030   9.225  1.4795 -0.8916 -0.7136
  117OSM   H18U12315   6.162   3.941   9.070  3.0790  0.5613  1.5196
  117OSM    C1F12316   6.479   4.005  10.536 -0.1400 -0.1528  0.1391
  117OSM     OF12317   6.363   3.996  10.580 -0.2987 -0.5937  0.0462
  117OSM    C2F12318   6.560   3.881  10.516 -0.2561  0.2459  0.4393
  117OSM    H2F12319   6.597   3.848  10.616  2.3716  1.3103 -0.0855
  117OSM    H2G12320   6.649   3.900  10.452 -0.8111  1.2440 -0.0689
  117OSM    C3F12321   6.475   3.769  10.457 -0.0518  0.3167  0.6091
  117OSM    H3F12322   6.393   3.733  10.523 -2.5989  0.8952 -2.0160
  117OSM    H3G12323   6.538   3.678  10.443 -1.8711 -0.6439 -2.1123
  117OSM    C4F12324   6.416   3.799  10.319 -0.3784 -0.3050 -0.4880
  117OSM    H4F12325   6.334   3.875  10.324 -1.1385 -1.1474  0.2775
  117OSM    H4G12326   6.363   3.705  10.294 -1.0938 -1.2850  3.7657
  117OSM    C5F12327   6.518   3.840  10.206  0.5356  0.2045 -0.0442
  117OSM    H5F12328   6.605   3.771  10.203 -0.6342 -1.4036  1.3527
  117OSM    H5G12329   6.555   3.939  10.243  1.4423 -0.6054  1.3100
  117OSM    C6F12330   6.442   3.851  10.079 -0.0943 -0.6269  0.2045
  117OSM    H6F12331   6.355   3.919  10.085  0.6370  0.1720  3.3871
  117OSM    H6G12332   6.388   3.756  10.058 -2.2528  0.8585 -1.3969
  117OSM    C7F12333   6.524   3.886   9.953 -0.2120  0.3437 -0.1546
  117OSM    H7F12334   6.609   3.815   9.949 -0.4333  0.0652 -0.0106
  117OSM    H7G12335   6.567   3.988   9.956 -0.7181  0.5555  0.0196
  117OSM    C8F12336   6.432   3.860   9.830 -0.2793  0.1527 -0.4132
  117OSM    H8F12337   6.323   3.876   9.846 -0.8769 -0.4456 -3.2158
  117OSM    H8G12338   6.431   3.751   9.807  1.6360  0.1926 -0.8209
  117OSM    C9F12339   6.476   3.944   9.709  0.0202  0.1559 -0.7940
  117OSM    H9F12340   6.451   4.051   9.719 -2.4652 -0.3548 -1.0068
  117OSM   C10F12341   6.531   3.903   9.592 -0.3702 -0.2485 -0.2901
  117OSM   H10F12342   6.552   3.975   9.511 -3.9530  1.7866  0.3737
  117OSM   C11F12343   6.566   3.767   9.562  0.6679 -0.1755 -0.5714
  117OSM   H11F12344   6.568   3.703   9.653  1.0588 -0.2531 -0.6314
  117OSM   H11G12345   6.671   3.756   9.528  1.0119 -1.3040  0.7812
  117OSM   C12F12346   6.461   3.697   9.472  0.2141 -0.0588 -0.3139
  117OSM   H12F12347   6.357   3.689   9.511 -1.0050 -0.3586 -3.2962
  117OSM   H12G12348   6.485   3.589   9.462  2.3785  0.2659  0.8520
  117OSM   C13F12349   6.466   3.756   9.323  0.7456 -0.1359  0.1089
  117OSM   H13F12350   6.569   3.768   9.284  0.7820  2.3349  0.7791
  117OSM   H13G12351   6.426   3.859   9.337 -1.3868 -1.0294  1.0995
  117OSM   C14F12352   6.363   3.679   9.233 -0.0688  0.3692 -0.0451
  117OSM   H14F12353   6.263   3.723   9.251 -1.1050 -0.5777 -3.0018
  117OSM   H14G12354   6.363   3.570   9.254  1.8330  0.0777 -1.3072
  117OSM   C15F12355   6.403   3.701   9.090  0.4104 -0.2921  0.3384
  117OSM   H15F12356   6.492   3.641   9.065  0.2401 -1.2332  1.8085
  117OSM   H15G12357   6.429   3.807   9.069  1.3698 -0.2367  1.6398
  117OSM   C16F12358   6.287   3.657   8.991  0.5857 -0.4857 -0.7318
  117OSM   H16F12359   6.206   3.733   9.000  1.6448  0.5812  0.2131
  117OSM   H16G12360   6.246   3.560   9.024 -3.6734  0.6124 -2.2084
  117OSM   C17F12361   6.345   3.654   8.851  0.5187  0.2918 -0.2462
  117OSM   H17F12362   6.413   3.566   8.845 -0.3486 -0.3460 -1.2227
  117OSM   H17G12363   6.385   3.755   8.829 -1.6044  1.5203  1.2035
  117OSM   C18F12364   6.227   3.619   8.755  0.0567 -0.0279 -0.5017
  117OSM   H18F12365   6.162   3.709   8.756 -1.3780 -1.0001  1.5359
  117OSM   H18G12366   6.178   3.522   8.778 -0.8185  0.3461 -0.7739
  117OSM   H18H12367   6.274   3.617   8.654  0.8693 -2.3062 -0.1400
  118OSM      N12368   6.398   0.144  10.846  0.3132  0.3357  0.9220
  118OSM    C1512369   6.408   0.268  10.921  1.0201  0.2312  0.3916
  118OSM   H15A12370   6.310   0.313  10.916  1.0533  0.2970  0.3274
  118OSM   H15B12371   6.481   0.338  10.884  2.5796 -0.5311  1.8711
  118OSM   H15C12372   6.430   0.245  11.025  0.6178 -0.8415  0.2594
  118OSM    C1412373   6.300   0.038  10.904  0.3112 -0.2342  0.0852
  118OSM   H14A12374   6.294  -0.043  10.833  2.5032  1.6468 -2.5201
  118OSM   H14B12375   6.203   0.083  10.917  0.4254  1.1622 -2.9358
  118OSM   H14C12376   6.343  -0.011  10.989  0.0153 -2.7271 -1.1200
  118OSM    C1312377   6.333   0.177  10.711 -0.4661  0.7813 -0.1260
  118OSM   H13A12378   6.383   0.252  10.650  2.1360 -0.5106  0.2493
  118OSM   H13B12379   6.234   0.215  10.728 -0.7770  0.2076 -0.6507
  118OSM   H13C12380   6.341   0.093  10.644  2.2175  3.3837 -3.4619
  118OSM    C1212381   6.531   0.078  10.834  0.0147 -0.1627  0.7833
  118OSM   H12A12382   6.589   0.147  10.773 -1.3163 -0.9577 -1.5084
  118OSM   H12B12383   6.527  -0.014  10.778 -0.4361  0.5001 -0.3192
  118OSM    C1112384   6.601   0.056  10.969  0.5898  0.0234  0.3496
  118OSM   H11A12385   6.596   0.139  11.043 -1.3115  2.4898 -2.2957
  118OSM   H11B12386   6.710   0.046  10.955  0.4657 -1.2618  0.1707
  118OSM      P12387   6.608  -0.199  11.029 -0.1034  0.2775  0.4837
  118OSM    O1312388   6.723  -0.208  11.118  0.0756 -0.4832  0.4172
  118OSM    O1412389   6.489  -0.286  11.063  0.2239  0.3994 -0.5034
  118OSM    O1112390   6.658  -0.215  10.885  0.0074 -0.5582  0.1533
  118OSM    O1212391   6.551  -0.054  11.044 -0.0195  0.2396 -0.5163
  118OSM    C1S12392   6.571  -0.275  10.781 -0.0587 -0.2209 -0.4208
  118OSM    H1S12393   6.478  -0.216  10.766 -0.4886 -1.0713 -1.2464
  118OSM    H1T12394   6.546  -0.383  10.798  0.6140 -0.3394 -0.1870
  118OSM     NF12395   6.544  -0.267  10.526 -0.1940 -0.9942 -0.0986
  118OSM    HNF12396   6.537  -0.358  10.485 -1.5583  0.3088 -3.0481
  118OSM    C2S12397   6.637  -0.255  10.638 -0.4438  0.1856 -0.4486
  118OSM    H2S12398   6.680  -0.153  10.646 -0.0852 -0.1183  2.5950
  118OSM    C3S12399   6.765  -0.352  10.629 -0.6477 -0.3470 -0.5321
  118OSM    H3S12400   6.741  -0.460  10.642  0.5054 -0.5417  0.2318
  118OSM     O312401   6.859  -0.336  10.738  0.0578  0.0022  0.6421
  118OSM    HO312402   6.807  -0.280  10.797  0.4634  0.3512  0.6759
  118OSM    C4S12403   6.851  -0.331  10.512  0.2563 -0.4854  0.2486
  118OSM    H4S12404   6.913  -0.240  10.514 -1.7927  0.9661  1.1072
  118OSM    C5S12405   6.865  -0.424  10.415  0.2528  0.4938  0.0463
  118OSM    H5S12406   6.808  -0.516  10.431  1.1785  0.1240  1.2928
  118OSM    C6S12407   6.950  -0.429  10.296 -0.0309 -0.0262 -0.2229
  118OSM    H6S12408   7.032  -0.503  10.305  0.3127  0.3519 -0.2511
  118OSM    H6T12409   6.991  -0.329  10.273  1.3743 -0.2843  1.0094
  118OSM    C7S12410   6.875  -0.466  10.168  0.1192 -0.6138 -0.4054
  118OSM    H7S12411   6.793  -0.393  10.151  1.6578  1.4090  0.4192
  118OSM    H7T12412   6.825  -0.565  10.172  1.0805 -1.0871  0.6491
  118OSM    C8S12413   6.962  -0.460  10.044  0.7325  0.4233 -0.4938
  118OSM    H8S12414   7.064  -0.503  10.059  0.4809 -0.4958 -1.3019
  118OSM    H8T12415   6.970  -0.359  10.000  0.3177 -0.3989 -2.5771
  118OSM    C9S12416   6.906  -0.545   9.930  0.2283  0.1942  0.4753
  118OSM    H9S12417   6.797  -0.526   9.920  0.6328  1.8979 -1.3785
  118OSM    H9T12418   6.917  -0.652   9.959 -1.1674  0.3704  1.7560
  118OSM   C10S12419   6.978  -0.503   9.799 -0.3451 -0.1960 -0.9486
  118OSM   H10S12420   7.083  -0.536   9.812 -0.9905 -2.2924 -0.8338
  118OSM   H10T12421   6.989  -0.392   9.798 -0.0056 -0.1786  1.2910
  118OSM   C11S12422   6.936  -0.582   9.678 -0.2180  0.0605 -0.0239
  118OSM   H11S12423   6.826  -0.569   9.667 -0.2415 -0.5772 -0.6066
  118OSM   H11T12424   6.956  -0.689   9.703 -0.5536  0.0432  0.1783
  118OSM   C12S12425   7.004  -0.542   9.549 -0.2537 -0.1202 -0.4344
  118OSM   H12S12426   7.113  -0.522   9.562 -0.0730 -1.6751  0.6747
  118OSM   H12T12427   6.963  -0.449   9.505  1.6757 -0.8328 -4.1265
  118OSM   C13S12428   6.991  -0.644   9.445  0.0778  0.2850  0.2423
  118OSM   H13S12429   6.883  -0.661   9.428 -0.2709 -0.0108  2.4915
  118OSM   H13T12430   7.039  -0.737   9.483 -0.9701 -0.5237 -0.3695
  118OSM   C14S12431   7.031  -0.599   9.308  0.2158  1.0105  0.5230
  118OSM   H14S12432   7.132  -0.553   9.301 -0.4434  2.3467 -0.8985
  118OSM   H14T12433   6.951  -0.536   9.263 -0.1136 -0.4709 -1.0396
  118OSM   C15S12434   7.049  -0.714   9.208  0.2580  0.4725  0.1401
  118OSM   H15S12435   6.958  -0.778   9.213  0.8603 -0.3137  1.9722
  118OSM   H15T12436   7.128  -0.786   9.237  0.0110  0.6910  1.4333
  118OSM   C16S12437   7.063  -0.665   9.063 -0.5180  0.1575  0.2545
  118OSM   H16S12438   7.130  -0.576   9.057  1.4304 -1.2318  0.6705
  118OSM   H16T12439   6.964  -0.632   9.024  1.2761  1.7452 -3.5848
  118OSM   C17S12440   7.115  -0.777   8.970  0.6046 -0.4748 -0.2343
  118OSM   H17S12441   7.058  -0.866   9.006  0.0262  0.2591  0.7193
  118OSM   H17T12442   7.223  -0.791   8.989  0.6298 -0.2197 -0.1984
  118OSM   C18S12443   7.078  -0.744   8.819 -0.3244 -0.8549 -0.1309
  118OSM   H18S12444   7.134  -0.814   8.753 -0.0690 -1.1641  0.4098
  118OSM   H18T12445   7.113  -0.641   8.794 -0.2234 -1.5588 -3.3568
  118OSM   H18U12446   6.968  -0.744   8.804 -0.1170 -1.4825 -1.9906
  118OSM    C1F12447   6.455  -0.170  10.498  0.2524  0.3878  0.5423
  118OSM     OF12448   6.435  -0.070  10.560 -0.7491 -0.7002 -0.3153
  118OSM    C2F12449   6.371  -0.199  10.374  0.3734 -0.7192 -0.4107
  118OSM    H2F12450   6.338  -0.305  10.363  2.4288 -1.2161 -2.5434
  118OSM    H2G12451   6.443  -0.168  10.295  0.4122 -1.6167 -0.7375
  118OSM    C3F12452   6.245  -0.108  10.349 -0.5727 -0.4532  0.2612
  118OSM    H3F12453   6.280  -0.008  10.380  1.2104 -1.5236  1.9199
  118OSM    H3G12454   6.175  -0.145  10.428 -1.3950  0.7052  0.0937
  118OSM    C4F12455   6.174  -0.114  10.213  0.1295  0.1614  0.5263
  118OSM    H4F12456   6.079  -0.057  10.214 -0.2451 -0.4375 -0.2440
  118OSM    H4G12457   6.145  -0.219  10.194  1.2795  0.2345 -2.0216
  118OSM    C5F12458   6.259  -0.063  10.097  0.2081 -0.3400  0.2360
  118OSM    H5F12459   6.355  -0.119  10.087  0.6545  0.0708  1.8605
  118OSM    H5G12460   6.290   0.042  10.120 -2.1097  0.5348 -0.3513
  118OSM    C6F12461   6.196  -0.064   9.954  0.2116  0.3219 -0.1033
  118OSM    H6F12462   6.275  -0.027   9.886 -0.9162  1.1876 -0.9910
  118OSM    H6G12463   6.104  -0.002   9.958  0.1100  0.2156 -0.6976
  118OSM    C7F12464   6.164  -0.204   9.911 -0.2800 -0.2369 -0.0196
  118OSM    H7F12465   6.080  -0.245   9.971 -0.9564 -1.0443 -1.4581
  118OSM    H7G12466   6.253  -0.260   9.946  0.3140  1.3799  1.1883
  118OSM    C8F12467   6.134  -0.199   9.761 -0.1374  0.7506 -0.9429
  118OSM    H8F12468   6.055  -0.124   9.741 -0.5555  0.3292 -0.9051
  118OSM    H8G12469   6.092  -0.301   9.745 -0.2403  0.3197  1.6722
  118OSM    C9F12470   6.248  -0.176   9.673 -0.1018 -0.9395 -0.1719
  118OSM    H9F12471   6.344  -0.162   9.726 -0.6675  0.2612  0.5744
  118OSM   C10F12472   6.234  -0.169   9.543 -0.6198 -0.2452  1.2802
  118OSM   H10F12473   6.323  -0.146   9.483 -0.5874 -2.5230  0.3812
  118OSM   C11F12474   6.104  -0.191   9.456 -0.0659 -0.1839 -0.4506
  118OSM   H11F12475   6.064  -0.092   9.425  0.3995 -0.0807 -0.7475
  118OSM   H11G12476   6.027  -0.247   9.512  0.9692 -0.2123  0.9922
  118OSM   C12F12477   6.143  -0.255   9.317 -0.5588 -0.0437  1.0743
  118OSM   H12F12478   6.196  -0.352   9.334 -1.0427 -0.2112  1.6352
  118OSM   H12G12479   6.207  -0.182   9.261 -0.4020  0.8465  2.3671
  118OSM   C13F12480   6.019  -0.286   9.226 -0.1939 -0.0935 -0.9622
  118OSM   H13F12481   5.955  -0.196   9.230 -0.5616 -0.3767 -0.2263
  118OSM   H13G12482   5.970  -0.375   9.272  0.1965  0.3987  0.4789
  118OSM   C14F12483   6.064  -0.310   9.079  0.1066 -0.5694 -0.5254
  118OSM   H14F12484   6.089  -0.212   9.033  0.8063  0.3881  1.7765
  118OSM   H14G12485   5.984  -0.360   9.019  0.5720 -2.0834  0.0619
  118OSM   C15F12486   6.187  -0.405   9.061 -0.3372 -0.8769  0.0260
  118OSM   H15F12487   6.156  -0.495   9.118 -0.0455  0.0630  1.7559
  118OSM   H15G12488   6.278  -0.353   9.098 -0.2324 -1.3250  0.4105
  118OSM   C16F12489   6.201  -0.450   8.916  0.0641  0.0701  0.2443
  118OSM   H16F12490   6.216  -0.361   8.850 -0.8839 -0.7792 -1.1774
  118OSM   H16G12491   6.114  -0.502   8.870  0.3537  1.5734 -2.2296
  118OSM   C17F12492   6.335  -0.530   8.889 -0.0726 -0.7955  0.2034
  118OSM   H17F12493   6.331  -0.624   8.948 -0.5168 -0.3464  0.8978
  118OSM   H17G12494   6.428  -0.472   8.906 -1.1822  0.7089  1.3237
  118OSM   C18F12495   6.341  -0.564   8.736 -0.0991 -0.8360  0.0852
  118OSM   H18F12496   6.403  -0.657   8.731  0.8894 -0.1327 -1.2763
  118OSM   H18G12497   6.395  -0.488   8.677 -1.7396  0.1805 -0.1833
  118OSM   H18H12498   6.244  -0.589   8.687  0.1973  1.4214 -1.8172
  119OSM      N12499   6.447   3.895  11.144 -0.2062 -0.1281  0.5665
  119OSM    C1512500   6.316   3.932  11.206 -0.0467 -0.5565 -0.8253
  119OSM   H15A12501   6.230   3.909  11.144 -0.6155  2.3105 -1.2569
  119OSM   H15B12502   6.332   4.037  11.225 -1.0424 -0.2597 -1.4967
  119OSM   H15C12503   6.301   3.884  11.301 -0.5648  0.1082 -0.5602
  119OSM    C1412504   6.564   3.907  11.239 -0.7413 -0.3413  0.1460
  119OSM   H14A12505   6.648   3.885  11.175 -0.7983  0.9168 -0.3896
  119OSM   H14B12506   6.553   3.832  11.316  1.1271 -1.6453 -0.7801
  119OSM   H14C12507   6.582   4.002  11.287  0.5927 -0.3909 -0.2124
  119OSM    C1312508   6.438   3.752  11.107  0.0184  0.6481 -0.3705
  119OSM   H13A12509   6.346   3.723  11.057  0.4167 -2.1531  0.3713
  119OSM   H13B12510   6.436   3.691  11.196 -0.9953 -0.2805 -0.9984
  119OSM   H13C12511   6.517   3.720  11.041 -0.4620  0.9048 -1.0853
  119OSM    C1212512   6.466   3.991  11.020 -0.1329 -0.4533  0.1320
  119OSM   H12A12513   6.465   4.094  11.053  1.2166 -0.2752 -0.3033
  119OSM   H12B12514   6.373   3.981  10.966 -1.5834  1.7373  2.0197
  119OSM    C1112515   6.587   3.974  10.921  0.1960 -0.0848 -0.6377
  119OSM   H11A12516   6.576   4.045  10.836  2.3890  0.9382 -0.1060
  119OSM   H11B12517   6.578   3.869  10.884  0.8761  0.1037 -1.3673
  119OSM      P12518   6.797   4.119  10.974  0.5752 -0.1468  0.3258
  119OSM    O1312519   6.750   4.216  11.072  0.1192  0.4884  0.0370
  119OSM    O1412520   6.938   4.081  10.981 -0.0613  0.1590  0.3248
  119OSM    O1112521   6.776   4.178  10.825  0.7686  0.0709 -0.1424
  119OSM    O1212522   6.712   3.989  10.984  0.4686  0.3799 -0.5318
  119OSM    C1S12523   6.845   4.109  10.718  0.0182 -0.0067  0.2354
  119OSM    H1S12524   6.765   4.060  10.657 -2.6622  0.4756  3.0927
  119OSM    H1T12525   6.913   4.026  10.747  0.3938  0.0541 -0.4490
  119OSM     NF12526   6.984   4.121  10.511 -0.4870  0.4187  0.7829
  119OSM    HNF12527   7.082   4.103  10.519 -0.4465 -0.5271 -1.1402
  119OSM    C2S12528   6.920   4.198  10.616 -0.5538  0.4166 -0.8065
  119OSM    H2S12529   6.850   4.278  10.584 -0.9260  1.7536  2.8055
  119OSM    C3S12530   7.034   4.279  10.687  0.0510  0.0824  0.0192
  119OSM    H3S12531   7.112   4.204  10.713 -1.8846 -2.4141 -0.8697
  119OSM     O312532   7.002   4.350  10.814 -0.0843 -0.1070 -0.0447
  119OSM    HO312533   6.931   4.287  10.832  0.4780 -2.0520 -3.5982
  119OSM    C4S12534   7.083   4.377  10.586  0.0685  0.5040 -0.6270
  119OSM    H4S12535   7.175   4.341  10.538  0.9791 -0.6364  1.8158
  119OSM    C5S12536   7.030   4.495  10.553 -0.4554 -0.6076 -0.8703
  119OSM    H5S12537   6.939   4.526  10.605 -0.4916 -0.2676 -1.1313
  119OSM    C6S12538   7.090   4.591  10.448  1.0550  0.5768  0.5773
  119OSM    H6S12539   7.171   4.543  10.389 -0.5095 -1.6004  0.0566
  119OSM    H6T12540   7.132   4.682  10.496  1.3767  0.2049  0.9989
  119OSM    C7S12541   6.982   4.642  10.355 -0.5829 -0.8135  0.4244
  119OSM    H7S12542   7.027   4.712  10.282  1.2810 -2.2624  0.1164
  119OSM    H7T12543   6.894   4.681  10.410 -0.0124  1.4461 -0.1702
  119OSM    C8S12544   6.914   4.528  10.278 -0.1721 -0.1401  0.1663
  119OSM    H8S12545   6.819   4.566  10.236 -1.5343 -2.6610  0.7588
  119OSM    H8T12546   6.872   4.455  10.351 -0.0189  0.4848  0.8918
  119OSM    C9S12547   7.013   4.463  10.185  0.0210  0.7499 -0.5158
  119OSM    H9S12548   6.952   4.381  10.143 -0.2905  0.7980 -0.1564
  119OSM    H9T12549   7.108   4.433  10.233  0.0521  2.5663  0.6832
  119OSM   C10S12550   7.046   4.547  10.061 -0.1146 -0.9138  0.1230
  119OSM   H10S12551   7.091   4.646  10.086 -0.3895 -0.0755 -2.4580
  119OSM   H10T12552   6.949   4.576  10.015  0.6974  0.4801 -0.8017
  119OSM   C11S12553   7.145   4.485   9.961 -0.1133  0.3823  1.0244
  119OSM   H11S12554   7.238   4.443  10.004  0.2020  1.0149  0.9740
  119OSM   H11T12555   7.168   4.556   9.878  0.5174  0.8740  1.6076
  119OSM   C12S12556   7.082   4.362   9.897  0.1042 -0.2114 -0.3759
  119OSM   H12S12557   6.994   4.386   9.833  1.0352  0.0351 -1.6007
  119OSM   H12T12558   7.052   4.284   9.971  0.3948  0.5383  0.5533
  119OSM   C13S12559   7.175   4.283   9.794  0.1776  0.1282 -0.6222
  119OSM   H13S12560   7.132   4.182   9.775  0.9494 -0.4136  0.4238
  119OSM   H13T12561   7.270   4.263   9.847 -0.8207 -0.0577  1.1755
  119OSM   C14S12562   7.194   4.348   9.661 -0.9456 -0.9221 -0.4649
  119OSM   H14S12563   7.255   4.440   9.676 -2.0450 -0.2793  0.2247
  119OSM   H14T12564   7.103   4.382   9.606  0.2250 -1.1818 -2.6927
  119OSM   C15S12565   7.267   4.250   9.569  0.1193 -0.2078  0.1603
  119OSM   H15S12566   7.208   4.160   9.541  0.1120 -0.9720  2.4219
  119OSM   H15T12567   7.357   4.215   9.625 -0.1228 -0.9706  0.0878
  119OSM   C16S12568   7.327   4.309   9.440  0.2675 -0.3872  0.0554
  119OSM   H16S12569   7.247   4.347   9.372  0.4110 -0.6454 -0.2568
  119OSM   H16T12570   7.360   4.226   9.374 -1.0943 -2.2944  1.6725
  119OSM   C17S12571   7.433   4.417   9.457 -0.1497  0.6644 -0.3892
  119OSM   H17S12572   7.516   4.400   9.528  0.0251  3.1792  0.0954
  119OSM   H17T12573   7.386   4.506   9.504 -0.1301  0.2570  0.4206
  119OSM   C18S12574   7.499   4.469   9.332 -0.2614  0.3131 -0.1464
  119OSM   H18S12575   7.558   4.563   9.340  3.6068 -1.7530 -1.3756
  119OSM   H18T12576   7.427   4.494   9.252 -0.7796  0.0918  0.2484
  119OSM   H18U12577   7.570   4.391   9.298  0.6578  1.4102 -0.8284
  119OSM    C1F12578   6.919   4.095  10.405 -0.2682 -0.2308  0.0660
  119OSM     OF12579   6.802   4.118  10.393  0.3819  0.6983  0.5833
  119OSM    C2F12580   7.005   4.058  10.288 -0.2223  0.0457 -0.0461
  119OSM    H2F12581   7.090   3.995  10.321 -0.1456 -0.0894 -0.4913
  119OSM    H2G12582   7.040   4.151  10.238 -0.6590  0.2925  0.1008
  119OSM    C3F12583   6.924   3.970  10.188 -0.2547 -0.7582  0.0704
  119OSM    H3F12584   6.824   4.017  10.173  0.3200  1.0303  1.4852
  119OSM    H3G12585   6.899   3.870  10.229  0.7470 -0.4861  1.4189
  119OSM    C4F12586   7.001   3.971  10.046 -0.7444  0.4341  0.7466
  119OSM    H4F12587   7.111   3.964  10.066 -0.6475 -3.9546 -0.3017
  119OSM    H4G12588   6.986   4.073  10.007  0.3923  1.0362  1.8028
  119OSM    C5F12589   6.958   3.858   9.947 -0.3750  0.1001 -0.0217
  119OSM    H5F12590   6.855   3.870   9.908 -0.8818 -1.3386  0.8314
  119OSM    H5G12591   6.953   3.759   9.996  1.3226 -0.1605 -0.3202
  119OSM    C6F12592   7.038   3.861   9.817  0.4307  0.6513  0.0422
  119OSM    H6F12593   7.142   3.824   9.829  0.3911 -1.1362 -3.6611
  119OSM    H6G12594   7.034   3.964   9.774 -3.3069  1.3253  1.5589
  119OSM    C7F12595   6.975   3.773   9.707  0.0557  0.1273  0.0622
  119OSM    H7F12596   6.867   3.794   9.691 -0.4309 -0.1824  2.5894
  119OSM    H7G12597   6.997   3.668   9.736 -0.5537 -0.7145 -2.2530
  119OSM    C8F12598   7.051   3.777   9.571  0.0821  0.2898  0.2093
  119OSM    H8F12599   7.158   3.748   9.580  0.2310  0.9832  0.6717
  119OSM    H8G12600   7.050   3.886   9.550  1.0935  0.2403 -0.1977
  119OSM    C9F12601   6.984   3.701   9.456 -0.5451 -0.1670 -0.2733
  119OSM    H9F12602   7.010   3.595   9.450  0.8431  0.1021  0.6771
  119OSM   C10F12603   6.904   3.753   9.361  0.1886  0.4396  0.1375
  119OSM   H10F12604   6.875   3.685   9.279  2.1594  0.3713 -0.5503
  119OSM   C11F12605   6.850   3.894   9.350 -0.3656  0.4868  0.5378
  119OSM   H11F12606   6.896   3.954   9.431 -1.4070 -0.7203  2.0799
  119OSM   H11G12607   6.740   3.893   9.366 -0.1623  1.2394  2.1436
  119OSM   C12F12608   6.887   3.967   9.219 -0.3514 -0.2185  0.4135
  119OSM   H12F12609   6.816   4.044   9.182  0.5391  0.5009  0.1571
  119OSM   H12G12610   6.887   3.887   9.142  1.4902 -1.9829  2.1342
  119OSM   C13F12611   7.033   4.023   9.213  0.1748 -0.1728  0.7538
  119OSM   H13F12612   7.101   3.935   9.214 -1.6324 -1.6765 -1.0661
  119OSM   H13G12613   7.059   4.077   9.307  0.1754 -1.4830  1.5262
  119OSM   C14F12614   7.057   4.106   9.094 -0.9608 -0.5371  0.4729
  119OSM   H14F12615   6.971   4.175   9.086  0.0288  0.8920  1.6590
  119OSM   H14G12616   7.051   4.039   9.005  0.7253 -0.2299  0.0932
  119OSM   C15F12617   7.194   4.175   9.092  0.2029 -0.2486 -0.7952
  119OSM   H15F12618   7.281   4.110   9.070 -0.3277 -0.8827 -1.0533
  119OSM   H15G12619   7.211   4.223   9.191 -3.2285  0.4521 -0.4248
  119OSM   C16F12620   7.193   4.301   9.001  0.1210  0.2212  0.7590
  119OSM   H16F12621   7.271   4.373   9.033 -1.1325  1.2193  1.6703
  119OSM   H16G12622   7.094   4.350   9.014 -0.7998 -1.6412  1.1489
  119OSM   C17F12623   7.224   4.270   8.855  0.1905 -0.4097  0.0731
  119OSM   H17F12624   7.318   4.213   8.845  0.7065  0.3615  0.4543
  119OSM   H17G12625   7.242   4.367   8.804 -0.8543 -0.0159  0.4269
  119OSM   C18F12626   7.114   4.196   8.780 -0.3847  0.2629  0.3222
  119OSM   H18F12627   7.130   4.192   8.670 -0.1827  0.0955  0.3576
  119OSM   H18G12628   7.014   4.241   8.795 -0.5419 -0.3297  1.0730
  119OSM   H18H12629   7.115   4.090   8.810 -1.9943 -0.5508 -2.1573
  120OSM      N12630   0.050   1.697  10.729 -0.0815 -0.2386 -0.1390
  120OSM    C1512631  -0.022   1.718  10.595 -0.6055 -0.0081 -0.8378
  120OSM   H15A12632  -0.105   1.785  10.613  1.0558  1.7490  0.8137
  120OSM   H15B12633  -0.058   1.620  10.570 -2.1905  0.5007 -0.6664
  120OSM   H15C12634   0.045   1.762  10.522  0.6343  1.7982  1.2409
  120OSM    C1412635   0.083   1.830  10.791  0.0698 -0.6976  0.9088
  120OSM   H14A12636   0.133   1.822  10.886  0.0187 -1.2066  0.8939
  120OSM   H14B12637  -0.007   1.888  10.806  0.8774  0.1321  2.8876
  120OSM   H14C12638   0.141   1.887  10.719  2.8388 -1.7675  2.1456
  120OSM    C1312639  -0.038   1.619  10.816  0.1600 -0.3802 -0.4938
  120OSM   H13A12640  -0.139   1.659  10.819  0.7869  1.5063 -2.0832
  120OSM   H13B12641  -0.013   1.620  10.920 -0.3441  1.8685 -0.3399
  120OSM   H13C12642  -0.046   1.514  10.795  0.0896 -0.2995 -0.8868
  120OSM    C1212643   0.174   1.617  10.705 -0.3114 -0.4400  0.1945
  120OSM   H12A12644   0.140   1.521  10.669  0.0565  0.0168 -1.4517
  120OSM   H12B12645   0.223   1.602  10.800 -1.7532  2.8849  1.6642
  120OSM    C1112646   0.282   1.670  10.609  0.3062 -0.3253 -0.5001
  120OSM   H11A12647   0.258   1.666  10.501 -0.4877 -2.4183 -0.2957
  120OSM   H11B12648   0.364   1.597  10.626  1.2621  1.0072  0.9209
  120OSM      P12649   0.443   1.823  10.752  0.0504 -0.0578  0.0725
  120OSM    O1312650   0.384   1.907  10.856 -0.0421  0.2447 -0.3373
  120OSM    O1412651   0.518   1.707  10.801 -0.2543  0.1205 -0.2112
  120OSM    O1112652   0.549   1.906  10.657 -0.3536  0.5594  0.8602
  120OSM    O1212653   0.327   1.794  10.651 -0.1055 -0.3205  0.1103
  120OSM    C1S12654   0.503   1.961  10.531 -0.9944  0.4806 -0.4139
  120OSM    H1S12655   0.403   2.006  10.547 -1.1991  1.0363 -2.8595
  120OSM    H1T12656   0.496   1.872  10.465 -0.4018 -0.4109  0.6891
  120OSM     NF12657   0.566   2.070  10.336  0.6382 -0.0032 -0.1028
  120OSM    HNF12658   0.603   2.000  10.274 -2.2168 -1.0184 -0.8372
  120OSM    C2S12659   0.604   2.062  10.474 -0.2627 -0.5181  0.1169
  120OSM    H2S12660   0.580   2.162  10.517  0.8361  0.7695 -2.1228
  120OSM    C3S12661   0.747   2.019  10.505 -0.8414 -0.2020  0.5183
  120OSM    H3S12662   0.770   1.912  10.483  1.7627  0.5598 -0.8866
  120OSM     O312663   0.788   2.014  10.641  0.2531 -0.1074  0.2637
  120OSM    HO312664   0.705   2.018  10.689 -1.3869  0.6549 -2.3967
  120OSM    C4S12665   0.856   2.099  10.431  0.0799  0.0345 -0.1402
  120OSM    H4S12666   0.874   2.201  10.468  1.6503 -0.4751  0.5984
  120OSM    C5S12667   0.940   2.066  10.329 -0.5643 -0.1170 -0.2093
  120OSM    H5S12668   0.934   1.961  10.295 -2.5365 -0.1497  0.1254
  120OSM    C6S12669   1.047   2.146  10.265  0.5691  0.2383  0.3478
  120OSM    H6S12670   1.139   2.111  10.317 -0.1496 -1.5463  0.4819
  120OSM    H6T12671   1.032   2.255  10.283 -0.1378 -0.0164  1.3901
  120OSM    C7S12672   1.059   2.122  10.108 -0.1552 -0.3877 -0.3498
  120OSM    H7S12673   1.049   2.014  10.087 -2.5664 -0.4636  0.8852
  120OSM    H7T12674   1.159   2.162  10.081 -0.5569  1.8758  1.2314
  120OSM    C8S12675   0.946   2.197  10.038  0.8413 -0.4475  0.2930
  120OSM    H8S12676   0.936   2.296  10.087 -0.1165 -1.9859  3.4937
  120OSM    H8T12677   0.849   2.145  10.050 -1.2856  3.2246  0.3581
  120OSM    C9S12678   0.963   2.243   9.893  0.2669 -0.2870  0.3201
  120OSM    H9S12679   1.033   2.328   9.881 -0.2304  0.1176  0.2563
  120OSM    H9T12680   0.868   2.289   9.857  0.0625 -2.0496 -1.5430
  120OSM   C10S12681   1.026   2.130   9.811 -0.4366 -0.0065  0.6544
  120OSM   H10S12682   0.980   2.031   9.832  1.2434 -1.4510 -1.8891
  120OSM   H10T12683   1.134   2.114   9.829 -0.0857 -1.3915 -2.1443
  120OSM   C11S12684   1.003   2.158   9.663 -0.7042  0.1906  0.1410
  120OSM   H11S12685   1.049   2.257   9.640 -1.6487  0.2994 -1.4569
  120OSM   H11T12686   0.893   2.173   9.656 -0.6143  0.1022 -2.8084
  120OSM   C12S12687   1.029   2.042   9.562  0.2317  0.3165 -0.2448
  120OSM   H12S12688   0.970   1.953   9.592 -1.1140  1.8098  1.8356
  120OSM   H12T12689   1.137   2.018   9.571 -0.3472 -1.8518  1.6748
  120OSM   C13S12690   0.990   2.084   9.420 -0.2233 -0.2477  0.5977
  120OSM   H13S12691   1.071   2.154   9.389 -1.3357 -0.0114 -2.0291
  120OSM   H13T12692   0.908   2.159   9.414  1.1533  1.1928 -1.4156
  120OSM   C14S12693   0.980   1.970   9.316  0.8455 -0.2513 -0.1504
  120OSM   H14S12694   0.901   1.900   9.352  0.2480  0.6728  0.3654
  120OSM   H14T12695   1.079   1.920   9.303  0.1254 -1.4396 -1.3760
  120OSM   C15S12696   0.933   2.023   9.177  0.0593  0.3962  0.9840
  120OSM   H15S12697   1.019   2.084   9.144  0.4791 -2.1038 -3.2071
  120OSM   H15T12698   0.839   2.081   9.185 -1.8179 -2.2773 -0.3048
  120OSM   C16S12699   0.919   1.907   9.072 -0.2491 -0.1743  0.7182
  120OSM   H16S12700   0.847   1.943   8.995  0.1959  0.8116  0.7410
  120OSM   H16T12701   0.873   1.822   9.125 -0.8786 -0.3485 -0.0931
  120OSM   C17S12702   1.048   1.867   9.002  0.0158  0.3681  0.0466
  120OSM   H17S12703   1.115   1.826   9.081 -0.7561 -1.0226  0.0139
  120OSM   H17T12704   1.098   1.957   8.960 -1.3226  0.4146 -1.5443
  120OSM   C18S12705   1.035   1.765   8.891 -0.2282 -0.5647 -0.5000
  120OSM   H18S12706   0.997   1.669   8.933  0.7232 -0.4466  0.6979
  120OSM   H18T12707   1.126   1.753   8.829  0.9545  0.1846  1.0200
  120OSM   H18U12708   0.958   1.796   8.817 -0.0019  1.3500  0.0045
  120OSM    C1F12709   0.451   2.126  10.291 -0.1115  0.7912  0.1124
  120OSM     OF12710   0.377   2.181  10.362  0.4122  0.7273 -0.9567
  120OSM    C2F12711   0.415   2.091  10.153 -0.6702  0.2069 -0.4288
  120OSM    H2F12712   0.315   2.043  10.154 -0.1275 -0.9790  1.8086
  120OSM    H2G12713   0.478   2.006  10.119 -0.4754  0.3251 -0.3673
  120OSM    C3F12714   0.427   2.203  10.048 -0.1133 -0.3478  0.2098
  120OSM    H3F12715   0.522   2.255  10.072 -1.7816  3.4298 -0.5967
  120OSM    H3G12716   0.345   2.275  10.066  1.0863  1.5506 -1.5172
  120OSM    C4F12717   0.417   2.157   9.902  0.7936 -0.3427  0.2127
  120OSM    H4F12718   0.423   2.243   9.832 -1.4110 -0.6599 -0.4479
  120OSM    H4G12719   0.313   2.118   9.893 -0.2063  2.1822 -0.0536
  120OSM    C5F12720   0.527   2.066   9.846  0.1452 -0.5012 -0.7277
  120OSM    H5F12721   0.515   1.967   9.897 -0.1121  0.3711  0.9839
  120OSM    H5G12722   0.627   2.111   9.863  0.7894 -1.9147 -0.6125
  120OSM    C6F12723   0.509   2.048   9.693  0.2824 -0.3712  0.3606
  120OSM    H6F12724   0.512   2.137   9.626  1.0436 -1.3635 -0.9759
  120OSM    H6G12725   0.408   2.006   9.670  0.1472 -0.6367  1.3889
  120OSM    C7F12726   0.603   1.938   9.646 -1.0965 -0.2130  0.5064
  120OSM    H7F12727   0.581   1.844   9.700 -0.0121  0.2303  1.7757
  120OSM    H7G12728   0.704   1.967   9.682 -0.4191 -2.2346  0.3825
  120OSM    C8F12729   0.612   1.900   9.491 -0.2031  0.3904  0.4658
  120OSM    H8F12730   0.687   1.820   9.477 -0.4080  0.3681 -0.5332
  120OSM    H8G12731   0.647   1.996   9.448  0.2396  0.2843  0.5798
  120OSM    C9F12732   0.487   1.849   9.425 -0.1291  0.5171  0.0001
  120OSM    H9F12733   0.420   1.795   9.493  0.4247 -0.0505  0.1043
  120OSM   C10F12734   0.448   1.873   9.294 -0.2113  0.6270 -0.4928
  120OSM   H10F12735   0.355   1.834   9.249 -0.9900  1.7164  0.1023
  120OSM   C11F12736   0.538   1.939   9.198  0.1106 -0.1720  0.7344
  120OSM   H11F12737   0.634   1.884   9.200 -0.4070 -1.2311 -1.0584
  120OSM   H11G12738   0.557   2.046   9.223  1.0281 -0.1505 -0.0035
  120OSM   C12F12739   0.495   1.938   9.053 -0.4841 -0.4672  0.5225
  120OSM   H12F12740   0.576   1.990   8.999 -2.0426  0.8288 -0.6828
  120OSM   H12G12741   0.405   1.998   9.027 -0.0027  0.0776  0.0982
  120OSM   C13F12742   0.485   1.798   9.000  0.5089  0.3498 -0.1579
  120OSM   H13F12743   0.412   1.741   9.062  1.5181 -1.1377 -0.2862
  120OSM   H13G12744   0.582   1.746   9.012 -0.5539 -3.1430 -3.9773
  120OSM   C14F12745   0.430   1.783   8.857  0.5456  0.2795 -0.4967
  120OSM   H14F12746   0.342   1.851   8.860  1.1152  1.1465 -2.0423
  120OSM   H14G12747   0.400   1.677   8.842 -0.9955  0.5923  0.1687
  120OSM   C15F12748   0.538   1.815   8.756  0.2737  0.0087  0.0705
  120OSM   H15F12749   0.631   1.756   8.769 -0.0373 -0.3863  0.5487
  120OSM   H15G12750   0.559   1.923   8.757  1.5088 -0.2273  0.2300
  120OSM   C16F12751   0.487   1.772   8.616 -0.2039  0.4647  0.6907
  120OSM   H16F12752   0.562   1.813   8.544 -1.1969 -0.0090 -0.6631
  120OSM   H16G12753   0.386   1.815   8.599  0.3757  1.8615  0.6756
  120OSM   C17F12754   0.494   1.617   8.587 -0.3663 -0.6357 -0.5799
  120OSM   H17F12755   0.457   1.570   8.681  1.9612  3.0555  2.5467
  120OSM   H17G12756   0.600   1.584   8.582 -0.9642 -2.9513  0.5932
  120OSM   C18F12757   0.439   1.582   8.453  0.5833 -0.0889 -0.4909
  120OSM   H18F12758   0.424   1.472   8.443  1.4502 -0.3353  0.6527
  120OSM   H18G12759   0.506   1.611   8.369  0.6888  0.8985 -0.0729
  120OSM   H18H12760   0.339   1.627   8.440  0.9284  1.3889  1.4739
  121OSM      N12761   0.110   5.927  11.234 -0.1800  0.5348  0.4834
  121OSM    C1512762   0.057   5.794  11.190  0.5339  0.9059  0.0690
  121OSM   H15A12763   0.048   5.794  11.083 -1.6002 -2.0279  0.1360
  121OSM   H15B12764  -0.037   5.762  11.232  0.6119 -3.4573 -2.5131
  121OSM   H15C12765   0.124   5.714  11.220 -1.6260 -1.3524 -0.8269
  121OSM    C1412766   0.115   5.919  11.386 -0.6385 -0.2106  0.4983
  121OSM   H14A12767   0.018   5.890  11.424 -0.4572 -0.3787  0.8351
  121OSM   H14B12768   0.158   6.006  11.433 -0.7790 -1.0802  2.3229
  121OSM   H14C12769   0.181   5.835  11.404 -1.0141 -1.0836 -1.8168
  121OSM    C1312770   0.248   5.935  11.175 -0.0175  0.2973 -0.2437
  121OSM   H13A12771   0.294   5.837  11.171 -0.8422 -0.1806  1.2596
  121OSM   H13B12772   0.315   6.002  11.226  1.2734 -0.6491 -0.6092
  121OSM   H13C12773   0.232   5.965  11.072 -3.1670 -0.6747 -0.1491
  121OSM    C1212774   0.013   6.041  11.194 -0.1399  0.8390  0.7928
  121OSM   H12A12775   0.018   6.052  11.086  1.4470  2.6233  0.9906
  121OSM   H12B12776   0.053   6.136  11.226  0.6350  1.2730 -1.2908
  121OSM    C1112777  -0.132   6.036  11.243  0.1507 -0.0795  0.6717
  121OSM   H11A12778  -0.186   6.133  11.233  0.4026  0.8341  5.7292
  121OSM   H11B12779  -0.119   6.042  11.353  0.3654 -0.2105  0.6528
  121OSM      P12780  -0.329   5.924  11.110  0.4196 -0.0096 -0.2979
  121OSM    O1312781  -0.407   5.800  11.119  0.6178  0.6585 -0.0920
  121OSM    O1412782  -0.407   6.044  11.141  0.7827  0.1566  0.4262
  121OSM    O1112783  -0.271   5.950  10.968 -0.5645 -0.0302  0.2098
  121OSM    O1212784  -0.204   5.916  11.208 -0.0076  1.2177 -0.2576
  121OSM    C1S12785  -0.253   5.835  10.883  0.4476 -0.4219  0.5737
  121OSM    H1S12786  -0.350   5.802  10.839  0.3060 -1.1436  1.3953
  121OSM    H1T12787  -0.200   5.746  10.925 -0.8977 -1.5698 -0.0824
  121OSM     NF12788  -0.169   5.761  10.668 -0.2773 -0.1978 -0.6731
  121OSM    HNF12789  -0.106   5.695  10.709  1.3595  2.2481  1.0476
  121OSM    C2S12790  -0.175   5.876  10.757  0.1408 -0.1065  0.7117
  121OSM    H2S12791  -0.234   5.955  10.707  1.3858  0.2785 -0.2169
  121OSM    C3S12792  -0.037   5.938  10.783  0.5386  0.6587 -0.3522
  121OSM    H3S12793   0.025   5.853  10.817  3.2995  2.0352 -1.6101
  121OSM     O312794  -0.024   6.048  10.878  0.2907  0.4734  0.3836
  121OSM    HO312795  -0.111   6.069  10.911 -0.5316 -0.8994 -0.8327
  121OSM    C4S12796   0.017   5.972  10.646 -0.8473 -0.4603  0.5376
  121OSM    H4S12797  -0.052   6.028  10.581 -1.3476 -0.7282  0.8335
  121OSM    C5S12798   0.145   5.949  10.598  0.9108 -0.3513 -0.0643
  121OSM    H5S12799   0.218   5.892  10.657  1.2675 -0.2106 -0.3659
  121OSM    C6S12800   0.198   5.993  10.464 -0.3495 -0.0899 -1.4421
  121OSM    H6S12801   0.296   6.043  10.473 -0.8123  0.7579 -0.9339
  121OSM    H6T12802   0.128   6.062  10.412 -0.2393 -1.0130 -2.8687
  121OSM    C7S12803   0.222   5.871  10.380 -0.4603 -0.3273 -1.3132
  121OSM    H7S12804   0.120   5.847  10.343 -1.5494  2.7474 -0.5995
  121OSM    H7T12805   0.261   5.784  10.437 -0.7698  0.5481  0.3060
  121OSM    C8S12806   0.299   5.904  10.252 -0.5369  0.5587 -0.4225
  121OSM    H8S12807   0.403   5.920  10.289 -1.0501 -1.0799  1.9223
  121OSM    H8T12808   0.255   6.000  10.218 -0.0964  0.9352  0.0614
  121OSM    C9S12809   0.287   5.789  10.149 -0.5057  0.4247 -0.7866
  121OSM    H9S12810   0.180   5.770  10.122 -0.7266 -0.6552  0.7478
  121OSM    H9T12811   0.326   5.695  10.194 -1.6127 -0.3843 -1.4540
  121OSM   C10S12812   0.371   5.827  10.020  0.7483 -0.1285 -0.1372
  121OSM   H10S12813   0.480   5.816  10.038  0.7749  0.6088  0.2009
  121OSM   H10T12814   0.342   5.934  10.006  0.6472 -0.1598 -0.1741
  121OSM   C11S12815   0.330   5.743   9.898 -0.4655  1.0080 -0.9020
  121OSM   H11S12816   0.219   5.748   9.894 -0.6004 -0.3044  0.0989
  121OSM   H11T12817   0.350   5.634   9.900 -0.4198  1.0227 -0.0901
  121OSM   C12S12818   0.382   5.793   9.759  0.1447  0.7922 -0.2826
  121OSM   H12S12819   0.493   5.788   9.756  0.2260 -0.3383  2.1466
  121OSM   H12T12820   0.366   5.902   9.747 -0.6350  0.6159 -0.9446
  121OSM   C13S12821   0.325   5.709   9.641 -0.2224 -0.3407  0.7248
  121OSM   H13S12822   0.216   5.729   9.638 -0.0778  0.3980  0.1358
  121OSM   H13T12823   0.337   5.604   9.674 -2.3604  0.0806  3.2361
  121OSM   C14S12824   0.381   5.729   9.500  0.3159  0.3230  0.3711
  121OSM   H14S12825   0.481   5.679   9.503  0.0970 -0.0847  1.1561
  121OSM   H14T12826   0.386   5.834   9.463  1.0595  0.7129  1.5417
  121OSM   C15S12827   0.296   5.643   9.403  0.4195  0.0098  0.2958
  121OSM   H15S12828   0.198   5.695   9.401  0.4114  0.0166  0.8774
  121OSM   H15T12829   0.275   5.541   9.441 -1.2694 -0.3060 -1.3208
  121OSM   C16S12830   0.349   5.630   9.257  0.5542 -0.5587 -0.2002
  121OSM   H16S12831   0.426   5.550   9.259 -0.3638 -1.4914 -1.0906
  121OSM   H16T12832   0.398   5.727   9.232 -1.4048  0.2500 -1.1419
  121OSM   C17S12833   0.237   5.599   9.154 -0.4695 -0.0720 -0.9183
  121OSM   H17S12834   0.152   5.671   9.157 -2.3220 -2.0115 -3.0879
  121OSM   H17T12835   0.194   5.499   9.175 -0.7194  0.1266 -0.4428
  121OSM   C18S12836   0.309   5.587   9.023 -0.1428  0.0553  0.3428
  121OSM   H18S12837   0.379   5.502   9.018 -0.2717 -0.1058  1.0635
  121OSM   H18T12838   0.363   5.679   8.993 -0.2220 -0.8737 -3.0594
  121OSM   H18U12839   0.229   5.569   8.949  1.2488 -0.5906 -1.0384
  121OSM    C1F12840  -0.268   5.726  10.587  0.3118 -0.1467  0.3036
  121OSM     OF12841  -0.377   5.787  10.584 -0.4428  0.5815 -0.6020
  121OSM    C2F12842  -0.258   5.589  10.520  0.9578 -0.2658  0.5052
  121OSM    H2F12843  -0.365   5.562  10.505  0.1278  1.5888  2.5790
  121OSM    H2G12844  -0.204   5.517  10.585  1.5800  1.2850  1.7691
  121OSM    C3F12845  -0.194   5.603  10.385 -0.4838 -1.0559  0.2545
  121OSM    H3F12846  -0.089   5.637  10.392 -0.0837 -2.2693  0.2775
  121OSM    H3G12847  -0.248   5.666  10.311  0.9536 -0.8670 -0.6564
  121OSM    C4F12848  -0.205   5.470  10.322  0.7551  0.5511  0.6152
  121OSM    H4F12849  -0.308   5.429  10.313  0.4592  1.4631 -0.4028
  121OSM    H4G12850  -0.159   5.392  10.386 -1.6278 -1.0638  0.5240
  121OSM    C5F12851  -0.147   5.463  10.181  0.3476  0.2461 -0.3480
  121OSM    H5F12852  -0.047   5.511  10.182 -0.1471  1.3257 -0.0991
  121OSM    H5G12853  -0.203   5.522  10.105  2.7080 -1.0075 -3.2241
  121OSM    C6F12854  -0.142   5.325  10.122 -0.4663  0.4049 -0.1303
  121OSM    H6F12855  -0.239   5.299  10.075 -1.3112  2.8860  0.0539
  121OSM    H6G12856  -0.122   5.258  10.208  0.2559 -0.6259 -1.0793
  121OSM    C7F12857  -0.031   5.314  10.007  0.0355 -0.3132 -0.5408
  121OSM    H7F12858  -0.043   5.214   9.960 -0.0789  0.3406 -1.9525
  121OSM    H7G12859   0.072   5.331  10.047  0.0377  1.6513 -1.2820
  121OSM    C8F12860  -0.055   5.424   9.904  0.2774  0.4137  0.3461
  121OSM    H8F12861  -0.040   5.525   9.947 -1.2503 -0.3599  2.9058
  121OSM    H8G12862  -0.165   5.426   9.886  0.1268 -0.2073  1.1557
  121OSM    C9F12863   0.031   5.410   9.779 -0.2469 -0.3447 -0.3284
  121OSM    H9F12864   0.135   5.383   9.804 -0.6729 -0.3691  1.5925
  121OSM   C10F12865  -0.002   5.427   9.652  0.2064 -0.3880 -0.3565
  121OSM   H10F12866   0.074   5.413   9.574 -0.9359  0.1625 -1.6084
  121OSM   C11F12867  -0.136   5.466   9.601  0.7914  0.0285 -0.5209
  121OSM   H11F12868  -0.107   5.544   9.528  1.6946  0.7594  0.5922
  121OSM   H11G12869  -0.192   5.511   9.686  2.4733  0.9864  0.1193
  121OSM   C12F12870  -0.205   5.353   9.516 -0.1172 -0.3740  0.3150
  121OSM   H12F12871  -0.309   5.387   9.498 -0.7051 -1.7047  1.0870
  121OSM   H12G12872  -0.207   5.269   9.588  0.5953  1.1870  2.2472
  121OSM   C13F12873  -0.142   5.307   9.384 -0.4347 -0.0474 -0.4569
  121OSM   H13F12874  -0.207   5.221   9.358  0.1436 -0.7290  0.3132
  121OSM   H13G12875  -0.048   5.250   9.398  1.2548  2.6959  0.2299
  121OSM   C14F12876  -0.130   5.411   9.273  0.0922 -0.2223 -0.1093
  121OSM   H14F12877  -0.084   5.505   9.310 -0.7117  0.0731  0.1597
  121OSM   H14G12878  -0.237   5.427   9.246  0.6063  1.8243 -1.1517
  121OSM   C15F12879  -0.049   5.356   9.156 -0.3399 -0.5540  0.3046
  121OSM   H15F12880   0.055   5.343   9.191  0.3365  2.0198 -0.4852
  121OSM   H15G12881  -0.041   5.432   9.075 -0.9061 -1.1804 -0.3668
  121OSM   C16F12882  -0.113   5.234   9.087 -0.1120  0.5401 -0.5769
  121OSM   H16F12883  -0.201   5.274   9.031 -1.7186  0.9684  2.0534
  121OSM   H16G12884  -0.146   5.164   9.167  3.1260 -0.4375  0.0476
  121OSM   C17F12885  -0.011   5.152   8.997  0.8174  0.2248 -0.3457
  121OSM   H17F12886  -0.066   5.058   8.973  0.2543  0.6971 -0.9118
  121OSM   H17G12887   0.076   5.134   9.064  0.7129  0.3700 -0.1724
  121OSM   C18F12888   0.042   5.228   8.882 -0.2605  0.2982  0.4810
  121OSM   H18F12889  -0.038   5.281   8.826  0.5753  0.9172 -0.1677
  121OSM   H18G12890   0.098   5.153   8.822 -0.6677 -1.9003  2.7115
  121OSM   H18H12891   0.114   5.306   8.916 -0.4957  0.0608  1.5266
  122OSM      N12892   0.434   2.451  11.293  0.3115  0.0505  0.2019
  122OSM    C1512893   0.338   2.353  11.228 -0.6175  0.0547 -0.6137
  122OSM   H15A12894   0.260   2.333  11.301  1.1728  1.3667  1.8315
  122OSM   H15B12895   0.387   2.260  11.209 -1.1081 -0.5936  1.0851
  122OSM   H15C12896   0.283   2.389  11.142 -1.8380  2.2138  0.9592
  122OSM    C1412897   0.362   2.576  11.310 -0.5232 -0.1268 -0.3621
  122OSM   H14A12898   0.352   2.630  11.217 -2.4413 -0.1305 -0.2065
  122OSM   H14B12899   0.389   2.649  11.384 -0.2546  0.2291 -0.8023
  122OSM   H14C12900   0.264   2.551  11.349 -0.1716 -1.4175 -0.2338
  122OSM    C1312901   0.464   2.395  11.431  0.1383 -0.0235 -0.1951
  122OSM   H13A12902   0.516   2.300  11.424 -3.5225 -2.1837 -0.8617
  122OSM   H13B12903   0.375   2.370  11.487  0.0875 -0.6201 -0.5344
  122OSM   H13C12904   0.530   2.460  11.487 -0.8317  1.4236 -0.6744
  122OSM    C1212905   0.552   2.460  11.193 -0.2419  0.8751  0.2039
  122OSM   H12A12906   0.606   2.366  11.190  3.3431  2.7734  0.6149
  122OSM   H12B12907   0.627   2.529  11.228  1.8426 -0.6264 -1.0656
  122OSM    C1112908   0.533   2.506  11.048  0.4322  1.0439 -0.3729
  122OSM   H11A12909   0.479   2.423  10.999  1.3443  1.2051 -1.6955
  122OSM   H11B12910   0.628   2.506  10.991 -0.2578 -0.3551 -1.5929
  122OSM      P12911   0.534   2.760  11.006 -0.2018  0.1341  0.3656
  122OSM    O1312912   0.445   2.880  11.033  0.3614 -0.2877  0.3153
  122OSM    O1412913   0.664   2.759  11.067  0.2908  0.1525  0.4956
  122OSM    O1112914   0.571   2.761  10.853  0.0488 -0.1809 -1.0238
  122OSM    O1212915   0.463   2.632  11.036  0.2757  0.0465  0.7116
  122OSM    C1S12916   0.464   2.785  10.753  0.1147 -0.5493  0.1975
  122OSM    H1S12917   0.431   2.891  10.753  1.4733 -0.0840 -1.1538
  122OSM    H1T12918   0.372   2.723  10.761 -0.8701  0.5946 -1.4765
  122OSM     NF12919   0.399   2.805  10.507  0.5938  0.3111 -0.3644
  122OSM    HNF12920   0.365   2.737  10.441 -0.1357 -0.1560  0.4797
  122OSM    C2S12921   0.506   2.756  10.604 -0.3055 -0.0055  0.9012
  122OSM    H2S12922   0.596   2.820  10.589  0.5236 -1.1514  0.8945
  122OSM    C3S12923   0.552   2.606  10.599 -0.2219 -0.2944 -0.2610
  122OSM    H3S12924   0.464   2.538  10.600 -1.6992  1.5227 -0.4404
  122OSM     O312925   0.633   2.559  10.704 -0.6360 -0.1281 -0.2803
  122OSM    HO312926   0.631   2.630  10.768  2.3154  0.0301 -0.2151
  122OSM    C4S12927   0.632   2.584  10.475 -0.1571 -0.4273  0.6529
  122OSM    H4S12928   0.722   2.646  10.469 -1.5064  1.5242 -1.2140
  122OSM    C5S12929   0.599   2.497  10.376 -0.0713 -0.2099 -0.0959
  122OSM    H5S12930   0.506   2.439  10.384 -0.3436  0.5201  3.8256
  122OSM    C6S12931   0.680   2.492  10.253  0.5488  0.5908 -0.2988
  122OSM    H6S12932   0.689   2.382  10.239 -1.3076  0.4931 -1.0936
  122OSM    H6T12933   0.777   2.546  10.252  0.1515  1.3431 -1.6182
  122OSM    C7S12934   0.609   2.532  10.125 -0.0723 -0.0666  0.3491
  122OSM    H7S12935   0.585   2.641  10.129 -1.4123 -0.2962 -0.7137
  122OSM    H7T12936   0.510   2.484  10.110  0.0404 -0.5653  1.1668
  122OSM    C8S12937   0.692   2.500  10.001 -0.3528  0.3874  0.1926
  122OSM    H8S12938   0.698   2.389  10.000 -2.3975  0.1818 -2.7069
  122OSM    H8T12939   0.795   2.540  10.006 -0.5434  1.0603 -0.8867
  122OSM    C9S12940   0.616   2.529   9.877 -0.1121 -0.0976  0.1165
  122OSM    H9S12941   0.585   2.635   9.866 -0.6526 -0.2152  0.4373
  122OSM    H9T12942   0.523   2.467   9.867 -1.3455  1.7367 -0.3019
  122OSM   C10S12943   0.703   2.501   9.750 -0.8596  0.3521 -0.0236
  122OSM   H10S12944   0.739   2.396   9.741 -0.8740  0.2640  0.8537
  122OSM   H10T12945   0.790   2.568   9.759 -0.2907 -0.4007  0.2082
  122OSM   C11S12946   0.635   2.532   9.615 -0.0178  0.2184 -0.4532
  122OSM   H11S12947   0.624   2.642   9.617 -2.3885  0.0317  1.9079
  122OSM   H11T12948   0.535   2.485   9.602 -0.2173  0.7425 -0.8515
  122OSM   C12S12949   0.723   2.490   9.501  0.4018  0.4812  0.1889
  122OSM   H12S12950   0.732   2.379   9.504 -1.0327  0.3680  2.2015
  122OSM   H12T12951   0.824   2.536   9.513  1.3310 -1.4042 -0.0227
  122OSM   C13S12952   0.666   2.520   9.357  0.1034 -0.2368 -0.3181
  122OSM   H13S12953   0.666   2.630   9.343  0.6623  0.3839  3.4522
  122OSM   H13T12954   0.564   2.475   9.349  0.0524 -0.2935  0.5411
  122OSM   C14S12955   0.758   2.448   9.257 -0.1340  0.3427 -0.9462
  122OSM   H14S12956   0.762   2.339   9.280 -1.0034  1.0684  3.6001
  122OSM   H14T12957   0.862   2.488   9.264 -0.8741  2.0588  3.5214
  122OSM   C15S12958   0.712   2.462   9.109  0.3347 -1.0765 -0.3057
  122OSM   H15S12959   0.733   2.563   9.069 -1.7767 -0.8572 -1.0005
  122OSM   H15T12960   0.602   2.447   9.106  0.2797 -0.6343 -0.5541
  122OSM   C16S12961   0.778   2.363   9.009 -0.1721  0.8281 -0.3524
  122OSM   H16S12962   0.766   2.258   9.043 -1.0252 -0.3164 -3.7296
  122OSM   H16T12963   0.885   2.390   8.995 -0.1872  0.8941 -0.3404
  122OSM   C17S12964   0.709   2.358   8.878 -0.0330 -0.0057 -0.1486
  122OSM   H17S12965   0.695   2.461   8.840 -1.4018 -0.6965 -1.6345
  122OSM   H17T12966   0.604   2.323   8.886 -0.1486 -0.6965 -3.4312
  122OSM   C18S12967   0.794   2.310   8.763  0.0642  0.4327 -0.5296
  122OSM   H18S12968   0.747   2.324   8.664 -0.6580  0.4965 -0.1879
  122OSM   H18T12969   0.832   2.206   8.770  0.5012  0.6181 -0.0402
  122OSM   H18U12970   0.895   2.356   8.756 -0.3195  0.9943 -3.2214
  122OSM    C1F12971   0.380   2.933  10.482  0.2397  0.4815  0.1669
  122OSM     OF12972   0.440   3.017  10.546 -0.4013  0.3951  0.5092
  122OSM    C2F12973   0.304   2.966  10.363 -0.3827 -0.4013 -0.1931
  122OSM    H2F12974   0.219   3.034  10.385 -0.2148  0.1712 -1.2318
  122OSM    H2G12975   0.271   2.868  10.321  2.0239 -1.0873 -0.6581
  122OSM    C3F12976   0.398   3.025  10.249  0.1543  0.1279  0.1161
  122OSM    H3F12977   0.491   2.967  10.231  0.1557  1.0633 -3.6781
  122OSM    H3G12978   0.435   3.127  10.273  0.1861  0.2237 -0.3279
  122OSM    C4F12979   0.334   3.035  10.103 -0.0667  0.1930  0.0125
  122OSM    H4F12980   0.409   3.098  10.051  0.5399 -0.0031  0.6434
  122OSM    H4G12981   0.236   3.086  10.115 -0.0284  0.3010 -0.1350
  122OSM    C5F12982   0.321   2.906  10.021  0.5574 -0.2188  0.2396
  122OSM    H5F12983   0.250   2.846  10.083  0.9173  0.4322  1.3162
  122OSM    H5G12984   0.417   2.851  10.017  1.0185  0.5692  0.2629
  122OSM    C6F12985   0.265   2.940   9.884  0.6043  1.0569 -0.2607
  122OSM    H6F12986   0.319   3.019   9.827 -0.7958  1.7387 -0.6861
  122OSM    H6G12987   0.162   2.974   9.906  0.2662 -0.2459  0.2528
  122OSM    C7F12988   0.262   2.814   9.799 -0.4399 -0.1652 -0.3668
  122OSM    H7F12989   0.189   2.741   9.840  0.4500 -2.3645 -2.4884
  122OSM    H7G12990   0.358   2.760   9.808 -0.5569 -0.0719  2.0065
  122OSM    C8F12991   0.225   2.841   9.648  0.2776  0.6785 -0.8340
  122OSM    H8F12992   0.154   2.926   9.661  0.8470  1.0446 -0.0422
  122OSM    H8G12993   0.168   2.754   9.608 -0.5370  0.3962  0.8682
  122OSM    C9F12994   0.337   2.886   9.565  1.3705 -0.3220  0.4189
  122OSM    H9F12995   0.382   2.981   9.597  0.7106 -0.0368  0.5017
  122OSM   C10F12996   0.391   2.835   9.459 -0.1805 -0.2553  0.3403
  122OSM   H10F12997   0.484   2.878   9.417 -0.3794  0.7312  0.8965
  122OSM   C11F12998   0.345   2.699   9.402 -0.7317  0.0145 -0.5425
  122OSM   H11F12999   0.308   2.613   9.463 -0.5164 -0.7842 -1.5006
  122OSM   H11G13000   0.429   2.664   9.338 -0.3303 -0.4572  0.2342
  122OSM   C12F13001   0.227   2.713   9.302  0.0743 -0.6835 -0.4997
  122OSM   H12F13002   0.257   2.767   9.210 -0.9528  0.9071  0.0770
  122OSM   H12G13003   0.150   2.765   9.362  0.1758 -0.3873 -0.6267
  122OSM   C13F13004   0.174   2.574   9.271 -0.0966 -0.4523  0.2571
  122OSM   H13F13005   0.075   2.588   9.222  0.1962 -0.3571 -0.3219
  122OSM   H13G13006   0.153   2.510   9.359  0.6836 -0.2250  0.6184
  122OSM   C14F13007   0.267   2.496   9.173 -0.0143 -0.5459 -0.6051
  122OSM   H14F13008   0.356   2.462   9.231  0.9616  1.7633 -0.6621
  122OSM   H14G13009   0.301   2.559   9.089 -1.8791 -0.5240 -1.3907
  122OSM   C15F13010   0.193   2.394   9.090 -0.3406 -0.1629 -0.4970
  122OSM   H15F13011   0.090   2.429   9.070 -0.3238  1.3535  1.7167
  122OSM   H15G13012   0.179   2.309   9.159  0.3280 -2.1267 -2.6362
  122OSM   C16F13013   0.271   2.329   8.967 -0.1460 -0.4180 -0.8027
  122OSM   H16F13014   0.376   2.308   8.995 -0.5252  0.8864  1.9006
  122OSM   H16G13015   0.274   2.400   8.881 -1.4153  2.4135  1.3364
  122OSM   C17F13016   0.201   2.201   8.915 -0.0908  0.3353 -0.0284
  122OSM   H17F13017   0.095   2.220   8.888 -0.2198 -0.1131  0.1522
  122OSM   H17G13018   0.205   2.135   9.004  2.2971 -1.7160 -1.5179
  122OSM   C18F13019   0.288   2.142   8.804  0.3679 -0.5742 -0.2003
  122OSM   H18F13020   0.381   2.107   8.852 -0.4330 -0.2929  1.6324
  122OSM   H18G13021   0.319   2.227   8.740  0.6522  0.8080  1.7025
  122OSM   H18H13022   0.233   2.072   8.737 -2.5750  1.3082  0.0639
  123OSM      N13023   4.796   3.406   5.738 -0.5483 -0.6057 -0.5193
  123OSM    C1513024   4.763   3.281   5.673 -0.3489  0.2423  0.0910
  123OSM   H15A13025   4.791   3.282   5.569  0.4058 -2.2612  0.1974
  123OSM   H15B13026   4.658   3.256   5.682 -0.4662  1.1885  1.6654
  123OSM   H15C13027   4.816   3.211   5.735 -0.5394  1.0206  1.1758
  123OSM    C1413028   4.947   3.410   5.771  0.4221 -0.1347  0.3147
  123OSM   H14A13029   4.964   3.323   5.833  1.0882  0.4817  1.0169
  123OSM   H14B13030   4.970   3.490   5.840 -1.6754 -0.9957  2.1242
  123OSM   H14C13031   4.998   3.401   5.676 -0.6295 -1.1545 -0.1768
  123OSM    C1313032   4.767   3.513   5.637 -0.1680 -0.2175 -0.0134
  123OSM   H13A13033   4.840   3.593   5.645  1.1703 -1.1750 -1.8862
  123OSM   H13B13034   4.661   3.530   5.642 -0.2729 -1.0483  3.4031
  123OSM   H13C13035   4.792   3.475   5.539 -0.9234 -0.1782 -0.2266
  123OSM    C1213036   4.719   3.413   5.863  0.1658 -0.5653  0.2838
  123OSM   H12A13037   4.619   3.434   5.829 -0.1649 -0.7080  1.1619
  123OSM   H12B13038   4.759   3.499   5.915 -0.2545 -1.1655  1.6441
  123OSM    C1113039   4.710   3.296   5.963 -0.5742 -0.0618  0.5389
  123OSM   H11A13040   4.680   3.206   5.905 -1.6516  1.9697 -2.3267
  123OSM   H11B13041   4.632   3.320   6.038 -0.8094  1.5263 -0.1631
  123OSM      P13042   4.869   3.344   6.164  0.2931 -0.0424  0.3073
  123OSM    O1313043   5.002   3.299   6.214  0.2646  0.4679  0.9923
  123OSM    O1413044   4.840   3.489   6.155  0.0232 -0.0172 -0.1768
  123OSM    O1113045   4.761   3.285   6.270  0.2471 -0.1361 -0.0419
  123OSM    O1213046   4.837   3.283   6.018  0.2411  0.2279  0.2281
  123OSM    C1S13047   4.748   3.150   6.316 -0.0129  0.7775 -0.2467
  123OSM    H1S13048   4.786   3.070   6.249  0.8492 -0.5285  1.7052
  123OSM    H1T13049   4.642   3.120   6.324  0.6001 -1.4186  0.6042
  123OSM     NF13050   4.831   2.984   6.483  0.4866  0.2849 -0.2296
  123OSM    HNF13051   4.765   2.948   6.549 -0.4275  2.4284  0.1029
  123OSM    C2S13052   4.819   3.124   6.458  0.3497 -0.2910  0.1972
  123OSM    H2S13053   4.921   3.167   6.451 -0.4580  2.0294  1.5446
  123OSM    C3S13054   4.739   3.206   6.574 -0.1373 -0.1012  0.1321
  123OSM    H3S13055   4.633   3.173   6.585 -0.0105 -0.0729  1.7436
  123OSM     O313056   4.730   3.346   6.553  0.1140  0.2191  0.2735
  123OSM    HO313057   4.767   3.366   6.467  0.5376  2.5537  0.9366
  123OSM    C4S13058   4.799   3.170   6.711 -0.3241 -0.1759 -0.0676
  123OSM    H4S13059   4.902   3.208   6.715 -0.0178 -0.4054 -3.1494
  123OSM    C5S13060   4.743   3.102   6.815  0.0641  0.1085  0.2656
  123OSM    H5S13061   4.640   3.065   6.817  0.2730 -0.4670  1.6459
  123OSM    C6S13062   4.826   3.074   6.938 -0.0728  0.0977  0.5580
  123OSM    H6S13063   4.931   3.109   6.930  0.7461 -2.3572 -0.8890
  123OSM    H6T13064   4.839   2.965   6.956  1.1689  0.1024 -0.2364
  123OSM    C7S13065   4.762   3.156   7.054 -0.1647 -0.0486  0.5214
  123OSM    H7S13066   4.654   3.130   7.063  0.1323 -1.3279  0.5804
  123OSM    H7T13067   4.768   3.263   7.024 -0.6536 -0.3892 -0.8961
  123OSM    C8S13068   4.835   3.137   7.186 -0.0154  0.4625 -0.2996
  123OSM    H8S13069   4.936   3.180   7.169  0.0649  0.0755 -0.8099
  123OSM    H8T13070   4.841   3.030   7.214  1.7590  0.7588  0.5609
  123OSM    C9S13071   4.779   3.203   7.316 -0.0022 -0.2038  0.8326
  123OSM    H9S13072   4.674   3.168   7.312 -0.9450  2.4749  0.0802
  123OSM    H9T13073   4.783   3.313   7.299 -0.4052 -0.2507  0.3930
  123OSM   C10S13074   4.837   3.147   7.445 -0.2621 -0.2405  0.1032
  123OSM   H10S13075   4.945   3.172   7.447 -0.8477  3.4885 -2.9384
  123OSM   H10T13076   4.823   3.037   7.443 -1.6860 -0.0749 -0.1321
  123OSM   C11S13077   4.762   3.207   7.559  0.1091 -0.3768  0.0387
  123OSM   H11S13078   4.658   3.174   7.537 -0.1921  2.4315 -3.7722
  123OSM   H11T13079   4.769   3.317   7.547 -1.6533 -0.3833 -1.6035
  123OSM   C12S13080   4.809   3.173   7.702  0.2672  0.7698 -0.2134
  123OSM   H12S13081   4.903   3.225   7.727 -0.7873  3.1887 -0.9654
  123OSM   H12T13082   4.830   3.064   7.712  2.2716  1.1925  0.6303
  123OSM   C13S13083   4.706   3.204   7.807  0.2693  0.2716 -0.6507
  123OSM   H13S13084   4.621   3.136   7.783  1.3504 -1.6988  0.7083
  123OSM   H13T13085   4.671   3.308   7.790 -1.2763 -0.0734  0.2597
  123OSM   C14S13086   4.750   3.173   7.949  0.3920 -0.0558  0.5341
  123OSM   H14S13087   4.697   3.235   8.025 -1.1635 -0.1216 -0.4568
  123OSM   H14T13088   4.858   3.186   7.972 -0.3523  3.4057  2.9065
  123OSM   C15S13089   4.722   3.026   7.981 -0.6228  0.4140  0.0355
  123OSM   H15S13090   4.784   2.972   7.906 -0.1125 -0.6505  1.1913
  123OSM   H15T13091   4.614   3.017   7.955 -0.5084 -1.6359  0.0987
  123OSM   C16S13092   4.745   2.986   8.135 -0.2210 -1.0892  0.5070
  123OSM   H16S13093   4.666   3.030   8.200  0.4840 -0.3075  0.8515
  123OSM   H16T13094   4.845   3.015   8.174 -0.2478 -1.0634  0.5559
  123OSM   C17S13095   4.726   2.836   8.149 -0.4496 -0.0023  0.3240
  123OSM   H17S13096   4.802   2.788   8.084 -1.5749  0.9671 -1.7923
  123OSM   H17T13097   4.629   2.804   8.105  0.4467 -2.1703 -0.2290
  123OSM   C18S13098   4.735   2.791   8.294  0.3193  0.8167 -0.8234
  123OSM   H18S13099   4.741   2.680   8.289 -0.9058  0.7750 -3.5018
  123OSM   H18T13100   4.636   2.807   8.341  0.3735  0.4681 -0.5885
  123OSM   H18U13101   4.826   2.833   8.341  1.0442 -0.6869 -0.7979
  123OSM    C1F13102   4.929   2.908   6.449  0.1166 -0.1221  0.5925
  123OSM     OF13103   5.009   2.944   6.356  0.0109 -0.4212 -0.4916
  123OSM    C2F13104   4.940   2.776   6.518 -0.6016  0.0009 -0.4410
  123OSM    H2F13105   4.862   2.760   6.595  0.0417  0.9108  0.4244
  123OSM    H2G13106   5.030   2.788   6.584 -0.6977 -0.2390 -0.2624
  123OSM    C3F13107   4.973   2.667   6.418 -0.2055 -0.2654 -0.3429
  123OSM    H3F13108   5.043   2.700   6.338  0.8673 -2.7426 -0.5283
  123OSM    H3G13109   4.879   2.635   6.369 -0.1825  0.3269 -0.7813
  123OSM    C4F13110   5.031   2.548   6.493 -0.1562  0.1667 -0.2564
  123OSM    H4F13111   5.133   2.567   6.533 -0.1500  0.1419 -0.2600
  123OSM    H4G13112   5.045   2.462   6.424  1.3793 -2.1970  2.7637
  123OSM    C5F13113   4.941   2.492   6.607 -0.7655  0.4823 -0.8095
  123OSM    H5F13114   4.831   2.492   6.599 -0.9283 -1.2640  0.8713
  123OSM    H5G13115   4.955   2.563   6.691  1.3774  0.0778 -0.7669
  123OSM    C6F13116   4.984   2.350   6.668  0.7511 -0.5391  0.1533
  123OSM    H6F13117   4.965   2.269   6.595 -0.4242 -0.1105 -0.0352
  123OSM    H6G13118   4.911   2.340   6.751 -2.8345  0.2403 -2.6817
  123OSM    C7F13119   5.124   2.346   6.731 -0.6264  0.1109 -0.0675
  123OSM    H7F13120   5.128   2.416   6.817 -1.1827 -0.5584  0.5155
  123OSM    H7G13121   5.201   2.383   6.661 -0.0315  0.2739  0.6531
  123OSM    C8F13122   5.163   2.205   6.780  0.1761  0.0723  0.0136
  123OSM    H8F13123   5.272   2.217   6.799  0.5526 -0.6381 -1.5537
  123OSM    H8G13124   5.165   2.128   6.701  0.8457  1.5857 -1.5104
  123OSM    C9F13125   5.090   2.160   6.906 -0.2487  0.0811 -0.7569
  123OSM    H9F13126   4.980   2.157   6.907 -0.2756 -3.3377 -1.3594
  123OSM   C10F13127   5.143   2.124   7.025  0.1790 -0.0294  0.0727
  123OSM   H10F13128   5.082   2.102   7.113 -0.2061 -0.2127 -0.2356
  123OSM   C11F13129   5.287   2.129   7.054  0.2571 -0.6017  0.9520
  123OSM   H11F13130   5.353   2.173   6.977  0.4168 -1.4878  0.5636
  123OSM   H11G13131   5.318   2.022   7.051 -0.6170 -0.8508 -0.0093
  123OSM   C12F13132   5.309   2.182   7.196 -0.4736  0.2014  0.6280
  123OSM   H12F13133   5.413   2.151   7.218 -0.0620 -0.5981 -2.0690
  123OSM   H12G13134   5.241   2.123   7.261 -2.4243  1.6792  0.0153
  123OSM   C13F13135   5.286   2.333   7.190  0.0459 -0.6073 -0.0465
  123OSM   H13F13136   5.184   2.354   7.151  0.7633  1.3870 -0.9952
  123OSM   H13G13137   5.351   2.380   7.113  0.5900 -1.3380 -0.0473
  123OSM   C14F13138   5.309   2.397   7.326 -0.1299  0.5655  0.7515
  123OSM   H14F13139   5.417   2.379   7.347  0.8967  3.3419 -1.5749
  123OSM   H14G13140   5.246   2.343   7.400 -0.8564 -1.3471 -1.1533
  123OSM   C15F13141   5.281   2.548   7.328  0.9491 -0.0798 -1.3827
  123OSM   H15F13142   5.180   2.581   7.296  0.9934  0.7922 -0.6629
  123OSM   H15G13143   5.342   2.582   7.241  1.4317 -0.0141 -1.0238
  123OSM   C16F13144   5.309   2.615   7.464  0.0347  0.7170  0.4437
  123OSM   H16F13145   5.351   2.716   7.447  3.1802 -0.7845 -1.6284
  123OSM   H16G13146   5.377   2.547   7.521  1.8622  1.7536 -0.4326
  123OSM   C17F13147   5.185   2.638   7.551 -0.3736  0.3308  0.5218
  123OSM   H17F13148   5.154   2.532   7.562 -0.7882  0.0446 -2.5206
  123OSM   H17G13149   5.106   2.697   7.501  0.9049  1.0273 -0.7744
  123OSM   C18F13150   5.214   2.702   7.686 -1.6646  0.5503  0.2081
  123OSM   H18F13151   5.130   2.665   7.747 -0.2259 -1.6536  0.9558
  123OSM   H18G13152   5.241   2.808   7.667  1.9772 -0.8387 -4.3069
  123OSM   H18H13153   5.300   2.651   7.734 -2.1273  0.2350  0.7129
  124OSM      N13154   0.866   6.340   6.092  0.3748  0.7774 -0.5805
  124OSM    C1513155   0.909   6.196   6.085  0.0091 -0.0947  0.1272
  124OSM   H15A13156   0.826   6.132   6.058 -1.5467  2.3366 -1.1877
  124OSM   H15B13157   0.952   6.178   6.183  0.5128  2.6009  0.4762
  124OSM   H15C13158   0.985   6.193   6.008 -0.6661  0.7739 -0.5920
  124OSM    C1413159   0.982   6.427   6.069 -0.0626 -0.8961 -0.8939
  124OSM   H14A13160   0.951   6.531   6.076  1.2580 -0.4905 -0.9048
  124OSM   H14B13161   1.025   6.419   5.971  0.7746  0.7738 -0.7016
  124OSM   H14C13162   1.057   6.414   6.145  1.2573 -0.4491 -2.0740
  124OSM    C1313163   0.767   6.359   5.990 -0.2864 -0.0775  0.0483
  124OSM   H13A13164   0.686   6.289   6.007  1.2624 -1.3450  2.9832
  124OSM   H13B13165   0.815   6.355   5.894  1.7081  1.5551  0.8896
  124OSM   H13C13166   0.731   6.461   5.991  0.3087  0.1388  0.8951
  124OSM    C1213167   0.807   6.364   6.237 -0.0569  0.2837  0.7337
  124OSM   H12A13168   0.881   6.327   6.305  0.4531 -0.8711 -0.4192
  124OSM   H12B13169   0.723   6.297   6.248  1.1025 -1.2516  0.4062
  124OSM    C1113170   0.766   6.514   6.264 -0.7427  0.8958  0.3150
  124OSM   H11A13171   0.857   6.579   6.259  0.8027 -1.0444  1.6199
  124OSM   H11B13172   0.743   6.509   6.372  3.5877  2.0915  1.5115
  124OSM      P13173   0.517   6.509   6.202 -0.0754  0.1500  0.1654
  124OSM    O1313174   0.431   6.604   6.130 -0.0239  0.9179  0.1520
  124OSM    O1413175   0.498   6.365   6.185  0.2638  0.4788 -0.4239
  124OSM    O1113176   0.493   6.534   6.358  0.4595 -0.2896  0.0835
  124OSM    O1213177   0.665   6.553   6.169  0.5919  0.7299 -0.7405
  124OSM    C1S13178   0.502   6.667   6.421  0.0049 -0.5503  0.0777
  124OSM    H1S13179   0.433   6.733   6.365  0.7642 -0.6088 -0.9502
  124OSM    H1T13180   0.605   6.707   6.412  0.2613 -0.9954  0.9219
  124OSM     NF13181   0.482   6.801   6.624 -0.0339  0.6793  0.5059
  124OSM    HNF13182   0.559   6.822   6.683 -0.3087  1.3764  0.6207
  124OSM    C2S13183   0.476   6.666   6.571 -0.0376  0.4724  0.2270
  124OSM    H2S13184   0.371   6.632   6.586  0.2894  0.7358  3.9937
  124OSM    C3S13185   0.578   6.575   6.648  0.0240 -0.4984  0.4467
  124OSM    H3S13186   0.678   6.621   6.640  0.1895 -1.0282 -0.7058
  124OSM     O313187   0.609   6.457   6.581 -0.1416  0.1678  0.1617
  124OSM    HO313188   0.583   6.466   6.489 -1.1237 -0.1905  0.3924
  124OSM    C4S13189   0.531   6.554   6.782 -0.8728 -0.2123  0.0503
  124OSM    H4S13190   0.441   6.495   6.805  1.0091 -5.3316 -3.7539
  124OSM    C5S13191   0.615   6.589   6.886  1.0306  0.3891 -0.1398
  124OSM    H5S13192   0.720   6.617   6.866  1.8993 -0.9273  2.2510
  124OSM    C6S13193   0.577   6.575   7.036  0.1335 -0.0633  0.4117
  124OSM    H6S13194   0.479   6.623   7.060 -1.5560 -2.8365 -0.4300
  124OSM    H6T13195   0.655   6.632   7.090  0.5057  0.4524 -0.6492
  124OSM    C7S13196   0.587   6.426   7.094 -0.3887 -0.4366 -0.2524
  124OSM    H7S13197   0.601   6.439   7.203 -0.8076 -1.3493 -0.0812
  124OSM    H7T13198   0.687   6.387   7.066  0.4250  0.9085  0.6613
  124OSM    C8S13199   0.476   6.332   7.066  0.1583  0.1731 -1.0142
  124OSM    H8S13200   0.492   6.310   6.958 -1.4087  1.2723 -1.5039
  124OSM    H8T13201   0.374   6.373   7.083 -0.4196 -0.6080 -2.4372
  124OSM    C9S13202   0.495   6.201   7.151 -0.0796 -0.2433  0.1495
  124OSM    H9S13203   0.602   6.170   7.149 -0.9236 -3.6899  0.7961
  124OSM    H9T13204   0.428   6.129   7.099  0.0369  0.6656 -1.3047
  124OSM   C10S13205   0.455   6.232   7.295  0.2109 -0.2563 -0.0066
  124OSM   H10S13206   0.344   6.235   7.303  0.1559  1.0293 -0.9679
  124OSM   H10T13207   0.490   6.332   7.328 -2.3814  0.5309  0.6150
  124OSM   C11S13208   0.496   6.123   7.395  0.0220  0.4208 -0.2059
  124OSM   H11S13209   0.607   6.118   7.388 -0.1287 -1.5438 -2.8018
  124OSM   H11T13210   0.459   6.029   7.349  1.3539  0.1229 -0.7254
  124OSM   C12S13211   0.456   6.148   7.536 -0.0165 -0.0235 -0.4720
  124OSM   H12S13212   0.345   6.139   7.541  0.0026 -0.7494 -1.1945
  124OSM   H12T13213   0.475   6.254   7.566  2.9076 -0.8256  0.8444
  124OSM   C13S13214   0.530   6.069   7.641  0.0438 -0.1330 -0.0803
  124OSM   H13S13215   0.641   6.069   7.638  0.1654 -2.4268  1.3413
  124OSM   H13T13216   0.498   5.962   7.631 -1.3086  0.2417  0.0296
  124OSM   C14S13217   0.484   6.111   7.776 -0.2112  0.4336  0.3867
  124OSM   H14S13218   0.373   6.100   7.778  0.0020 -2.6175  2.3747
  124OSM   H14T13219   0.506   6.218   7.795  0.8187  0.3578 -0.3172
  124OSM   C15S13220   0.541   6.021   7.894 -0.1624 -0.6447  0.3115
  124OSM   H15S13221   0.627   6.074   7.940 -0.2414 -1.0455  0.9370
  124OSM   H15T13222   0.578   5.924   7.853 -1.1767 -1.2822  0.8641
  124OSM   C16S13223   0.431   5.988   8.005 -0.8621  0.8077  0.3566
  124OSM   H16S13224   0.395   6.087   8.042 -0.7049  0.1403  2.4119
  124OSM   H16T13225   0.485   5.929   8.081 -0.5582  1.5716  0.7439
  124OSM   C17S13226   0.313   5.899   7.974  0.2462  0.1519 -0.4795
  124OSM   H17S13227   0.344   5.799   7.937  3.0230  0.1374  1.5531
  124OSM   H17T13228   0.247   5.946   7.899  0.3470  2.5924  0.8690
  124OSM   C18S13229   0.225   5.854   8.092 -0.1239  0.0070 -0.0153
  124OSM   H18S13230   0.184   5.937   8.154  0.8794 -0.7081  1.6925
  124OSM   H18T13231   0.286   5.789   8.158  0.4732  1.2413  0.6960
  124OSM   H18U13232   0.146   5.797   8.039  0.0469  1.8636 -2.4371
  124OSM    C1F13233   0.397   6.900   6.587 -0.1302 -0.0070  0.1540
  124OSM     OF13234   0.289   6.875   6.527  0.1190 -0.1350 -0.3287
  124OSM    C2F13235   0.446   7.037   6.626  0.5246  0.0649 -0.3967
  124OSM    H2F13236   0.485   7.099   6.542 -1.3465  1.0779 -0.5885
  124OSM    H2G13237   0.516   7.030   6.711  0.2902 -0.3693 -0.2329
  124OSM    C3F13238   0.317   7.112   6.689  0.0408  1.0483 -0.5462
  124OSM    H3F13239   0.241   7.126   6.610 -2.2326 -1.8152  0.9510
  124OSM    H3G13240   0.349   7.214   6.720 -1.4846  1.2537  0.4359
  124OSM    C4F13241   0.251   7.039   6.815  0.1253 -0.3275 -0.9605
  124OSM    H4F13242   0.332   7.018   6.887  0.8601  0.3870 -1.5509
  124OSM    H4G13243   0.208   6.942   6.783 -2.0697  0.5963 -1.0228
  124OSM    C5F13244   0.144   7.119   6.890  0.2666 -0.1915  0.6115
  124OSM    H5F13245   0.100   7.071   6.979 -1.0128  0.4715  0.3590
  124OSM    H5G13246   0.053   7.133   6.827  0.7231  0.8979  0.1590
  124OSM    C6F13247   0.200   7.251   6.945 -0.2228  0.2959  0.4692
  124OSM    H6F13248   0.248   7.318   6.871 -0.0600  1.2423  1.3986
  124OSM    H6G13249   0.275   7.228   7.024 -1.3476  2.2085  2.1923
  124OSM    C7F13250   0.097   7.342   7.019  0.5264 -0.0630  0.6677
  124OSM    H7F13251   0.045   7.276   7.092 -2.0528  0.1416 -0.8597
  124OSM    H7G13252   0.026   7.356   6.935  1.2728 -0.8211 -0.1119
  124OSM    C8F13253   0.157   7.471   7.068  0.1738  0.1802  0.4948
  124OSM    H8F13254   0.073   7.531   7.109 -1.2914 -2.6284  1.9207
  124OSM    H8G13255   0.203   7.536   6.991  1.1602 -1.2592 -0.1766
  124OSM    C9F13256   0.253   7.450   7.186  0.7270 -0.0935 -0.2025
  124OSM    H9F13257   0.358   7.430   7.160  0.3431 -0.8201 -1.2736
  124OSM   C10F13258   0.216   7.438   7.317 -0.0131  0.1294 -0.4696
  124OSM   H10F13259   0.291   7.421   7.396  0.3085  0.4693 -0.6983
  124OSM   C11F13260   0.074   7.439   7.378  0.1181  0.1658 -0.5078
  124OSM   H11F13261   0.006   7.372   7.322 -0.2330 -0.1663  0.2939
  124OSM   H11G13262   0.033   7.541   7.366  1.1273  0.5964 -0.3841
  124OSM   C12F13263   0.065   7.416   7.528  0.4301 -0.3384 -0.6045
  124OSM   H12F13264   0.123   7.334   7.575  0.2535 -0.5204 -0.7019
  124OSM   H12G13265  -0.039   7.379   7.539  0.1161  0.6217 -0.1816
  124OSM   C13F13266   0.075   7.537   7.624 -0.1188 -0.8231  0.5824
  124OSM   H13F13267   0.007   7.621   7.601  2.1306  1.5948  2.1451
  124OSM   H13G13268   0.175   7.582   7.603 -0.3694 -0.1734  0.7791
  124OSM   C14F13269   0.069   7.505   7.775  0.1743  0.4932 -0.4700
  124OSM   H14F13270   0.105   7.596   7.827  1.4773  0.3375 -1.0440
  124OSM   H14G13271   0.142   7.426   7.803  0.9130  1.6629  1.0260
  124OSM   C15F13272  -0.076   7.471   7.815  0.1573  0.4782 -0.0558
  124OSM   H15F13273  -0.090   7.363   7.838 -3.0785  0.5669 -1.1202
  124OSM   H15G13274  -0.148   7.503   7.737  0.0221  2.7582  0.9062
  124OSM   C16F13275  -0.119   7.552   7.943 -0.3341  0.6030 -0.5577
  124OSM   H16F13276  -0.225   7.528   7.962 -0.2332  1.4596  1.3475
  124OSM   H16G13277  -0.114   7.661   7.922 -0.4767  0.9156  0.9011
  124OSM   C17F13278  -0.027   7.532   8.065  0.1882  0.2012  0.1904
  124OSM   H17F13279   0.073   7.567   8.032 -0.6333  2.2742 -0.2562
  124OSM   H17G13280  -0.032   7.424   8.090 -1.0795  0.0061 -0.8173
  124OSM   C18F13281  -0.057   7.631   8.179  0.5169  0.7263  0.0541
  124OSM   H18F13282  -0.025   7.737   8.167 -0.0884  1.0894  1.4037
  124OSM   H18G13283   0.011   7.589   8.256  0.2858 -2.1920 -1.2347
  124OSM   H18H13284  -0.162   7.627   8.216  0.1461  0.6496 -0.9803
  125OSM      N13285   5.939   0.712   6.460  0.6335  0.1318 -0.2028
  125OSM    C1513286   5.816   0.658   6.396  0.2330 -0.0038  0.0235
  125OSM   H15A13287   5.822   0.682   6.291 -0.0284  1.1439  0.2636
  125OSM   H15B13288   5.720   0.681   6.440 -0.1729 -1.9752  0.2532
  125OSM   H15C13289   5.817   0.550   6.407 -2.4461  0.1367  3.2788
  125OSM    C1413290   5.954   0.645   6.599  0.6784  0.0881 -1.1076
  125OSM   H14A13291   5.982   0.541   6.593  2.4261  0.5493 -1.5749
  125OSM   H14B13292   5.871   0.662   6.666  1.0934 -0.2056 -0.5126
  125OSM   H14C13293   6.039   0.692   6.645  2.0124 -0.8998 -2.4438
  125OSM    C1313294   6.060   0.665   6.382  0.3737 -0.9156 -0.1342
  125OSM   H13A13295   6.062   0.710   6.284  2.2461 -0.6402 -0.0033
  125OSM   H13B13296   6.045   0.558   6.370 -2.3041 -0.4903 -1.2509
  125OSM   H13C13297   6.154   0.693   6.427  2.4682 -1.3056 -3.8755
  125OSM    C1213298   5.934   0.860   6.472  0.4920 -0.2948 -0.4021
  125OSM   H12A13299   6.023   0.909   6.508  0.2802 -0.1567 -0.0659
  125OSM   H12B13300   5.845   0.879   6.530 -1.1259 -0.0421 -2.8480
  125OSM    C1113301   5.908   0.933   6.334  0.0585  0.4112 -0.3755
  125OSM   H11A13302   5.891   1.035   6.373  0.0925  0.4582 -0.4826
  125OSM   H11B13303   5.817   0.899   6.280 -0.4877  1.9322 -0.4424
  125OSM      P13304   6.130   1.038   6.274  0.4149  0.1312 -0.2618
  125OSM    O1313305   6.267   0.999   6.237 -0.6285 -0.1107 -0.3645
  125OSM    O1413306   6.079   1.172   6.216  0.5269  0.2590  0.3206
  125OSM    O1113307   6.139   1.063   6.431 -0.1718  0.5251 -0.0984
  125OSM    O1213308   6.021   0.924   6.257 -0.6201  0.2632 -0.5033
  125OSM    C1S13309   6.128   1.184   6.497 -0.0611 -0.0198  0.4725
  125OSM    H1S13310   6.022   1.220   6.495 -0.5080 -1.2599 -1.6982
  125OSM    H1T13311   6.179   1.268   6.446 -0.1960 -0.7287 -0.8741
  125OSM     NF13312   6.125   1.312   6.699 -0.3069  0.3232  0.1002
  125OSM    HNF13313   6.187   1.390   6.695 -2.0136  1.7894  1.0465
  125OSM    C2S13314   6.167   1.187   6.643 -0.4059 -0.2203  0.3416
  125OSM    H2S13315   6.122   1.109   6.707 -0.0852 -0.2470  0.5377
  125OSM    C3S13316   6.316   1.160   6.661 -0.3164 -0.0437 -0.2726
  125OSM    H3S13317   6.375   1.243   6.616 -1.3815  1.7765  1.5253
  125OSM     O313318   6.355   1.044   6.596 -0.1879  0.0797  0.2050
  125OSM    HO313319   6.276   1.022   6.545 -0.3112 -1.4521  0.9893
  125OSM    C4S13320   6.349   1.145   6.807  0.2184 -0.1541 -0.3265
  125OSM    H4S13321   6.318   1.054   6.860  0.8366  1.2409  2.6833
  125OSM    C5S13322   6.401   1.247   6.879  0.0536 -0.1457 -0.3866
  125OSM    H5S13323   6.422   1.343   6.830 -1.3580  0.1140 -0.5376
  125OSM    C6S13324   6.422   1.248   7.030  0.0971  0.8438  0.8035
  125OSM    H6S13325   6.516   1.193   7.049  0.1502  0.0911 -1.3634
  125OSM    H6T13326   6.336   1.197   7.080 -1.0230  1.2531 -0.6199
  125OSM    C7S13327   6.421   1.383   7.103  0.9138  0.9028  0.6665
  125OSM    H7S13328   6.323   1.431   7.083 -0.0339 -1.5430 -0.9696
  125OSM    H7T13329   6.512   1.443   7.080  0.0945  2.1337  0.5343
  125OSM    C8S13330   6.422   1.357   7.258  0.1775 -0.2082  0.1017
  125OSM    H8S13331   6.516   1.307   7.287  0.1246 -0.2870  0.1365
  125OSM    H8T13332   6.345   1.282   7.285 -0.7278  1.4519  2.4523
  125OSM    C9S13333   6.399   1.476   7.351 -0.0436 -0.1308  0.9584
  125OSM    H9S13334   6.293   1.507   7.338 -0.2205 -1.8683 -3.2682
  125OSM    H9T13335   6.460   1.560   7.313  0.1004 -0.3223  0.7668
  125OSM   C10S13336   6.428   1.445   7.496  0.1168  0.2529 -0.3747
  125OSM   H10S13337   6.532   1.409   7.512  0.3391  1.7167  1.9418
  125OSM   H10T13338   6.366   1.358   7.526  0.2608  0.5858  0.9331
  125OSM   C11S13339   6.412   1.563   7.595 -0.0430 -0.8553  0.8765
  125OSM   H11S13340   6.314   1.607   7.567  0.0712 -1.4772 -0.5689
  125OSM   H11T13341   6.485   1.643   7.573  1.1203 -2.0862  0.0947
  125OSM   C12S13342   6.414   1.528   7.744 -0.1405 -0.0000  0.0327
  125OSM   H12S13343   6.520   1.526   7.779  0.3271  2.2439 -1.0337
  125OSM   H12T13344   6.376   1.425   7.757 -0.5760  0.2825  1.0775
  125OSM   C13S13345   6.324   1.624   7.820  0.0177  0.7255 -0.0461
  125OSM   H13S13346   6.219   1.601   7.793 -0.1151  0.5023  0.6462
  125OSM   H13T13347   6.351   1.726   7.786 -0.4444  1.4829  1.7654
  125OSM   C14S13348   6.340   1.614   7.969 -0.3634 -0.4946  0.5026
  125OSM   H14S13349   6.447   1.600   7.992 -0.0749  1.5091  0.5311
  125OSM   H14T13350   6.286   1.526   8.011 -1.2504 -0.1855  0.0482
  125OSM   C15S13351   6.282   1.734   8.046 -0.1336 -0.2650 -0.9785
  125OSM   H15S13352   6.306   1.818   7.978  1.5526  0.6139  0.6049
  125OSM   H15T13353   6.344   1.754   8.137  1.2728 -1.8438 -1.5341
  125OSM   C16S13354   6.132   1.738   8.060 -0.2997 -0.5252 -0.2565
  125OSM   H16S13355   6.092   1.639   8.091 -0.4867 -0.7801 -1.2746
  125OSM   H16T13356   6.092   1.749   7.957 -0.0515  2.2004 -0.1485
  125OSM   C17S13357   6.063   1.830   8.165  0.2986  0.0672 -0.4887
  125OSM   H17S13358   6.079   1.935   8.131 -0.9467  0.7278  0.8603
  125OSM   H17T13359   6.104   1.799   8.264 -0.8112 -1.5022 -0.4868
  125OSM   C18S13360   5.912   1.819   8.168 -0.0350  0.2519 -0.0586
  125OSM   H18S13361   5.866   1.722   8.198  0.3191  0.0828 -0.0641
  125OSM   H18T13362   5.863   1.848   8.073  3.1002  2.2035 -1.2151
  125OSM   H18U13363   5.875   1.900   8.235  2.3423  1.3831 -0.0152
  125OSM    C1F13364   6.004   1.329   6.749  0.1507 -0.8371 -0.0276
  125OSM     OF13365   5.915   1.243   6.744  0.1691  0.2968 -0.1742
  125OSM    C2F13366   5.964   1.470   6.798  0.1101 -0.5102  0.0115
  125OSM    H2F13367   5.891   1.512   6.726 -0.1969 -0.4093  0.3762
  125OSM    H2G13368   6.055   1.534   6.794 -0.2758  0.0957  0.6676
  125OSM    C3F13369   5.903   1.458   6.940  0.8163 -0.1708 -0.2697
  125OSM    H3F13370   5.806   1.405   6.949  1.1611 -0.4854  2.4102
  125OSM    H3G13371   5.886   1.555   6.991 -0.8416 -0.7930  0.4242
  125OSM    C4F13372   5.985   1.382   7.045  0.6506  0.0849  0.0426
  125OSM    H4F13373   6.091   1.414   7.044  0.5507  0.5080  1.1976
  125OSM    H4G13374   5.979   1.277   7.009  1.1888  0.0888 -0.0597
  125OSM    C5F13375   5.932   1.386   7.191  0.3391 -0.0254  0.2252
  125OSM    H5F13376   5.834   1.334   7.198  0.2928  0.0399  0.0709
  125OSM    H5G13377   5.927   1.493   7.221 -0.6474 -0.2689  0.9566
  125OSM    C6F13378   6.029   1.304   7.283  0.1737 -0.7238  0.7372
  125OSM    H6F13379   6.129   1.353   7.274 -0.3046  0.1345 -0.2753
  125OSM    H6G13380   6.036   1.200   7.245 -1.3919 -0.8427  0.7283
  125OSM    C7F13381   5.998   1.293   7.431  0.9413  0.1151 -0.3610
  125OSM    H7F13382   6.068   1.215   7.469 -0.6513 -1.6595 -0.9085
  125OSM    H7G13383   5.892   1.260   7.442  0.6438  1.3892  0.8562
  125OSM    C8F13384   6.019   1.433   7.505 -0.1984  0.6869  0.5688
  125OSM    H8F13385   5.931   1.501   7.508  1.1408  2.4581  2.8998
  125OSM    H8G13386   6.104   1.485   7.457  0.8726 -1.1495  0.3699
  125OSM    C9F13387   6.067   1.410   7.645  0.2293 -0.2453 -0.0688
  125OSM    H9F13388   6.166   1.363   7.642  0.6931  0.7275 -2.7980
  125OSM   C10F13389   6.005   1.449   7.758 -0.5737  0.0357  0.1870
  125OSM   H10F13390   6.067   1.436   7.849  0.6251  2.1042 -0.2734
  125OSM   C11F13391   5.872   1.516   7.762 -0.0533 -0.5083 -0.2270
  125OSM   H11F13392   5.802   1.495   7.678 -0.4011 -1.2604  0.2451
  125OSM   H11G13393   5.891   1.624   7.742 -0.8848 -0.2454  0.3652
  125OSM   C12F13394   5.806   1.492   7.893  0.8598 -0.0974 -0.2485
  125OSM   H12F13395   5.875   1.525   7.974  3.9905  0.7295 -3.0473
  125OSM   H12G13396   5.795   1.383   7.910 -0.0324  0.1223  0.7476
  125OSM   C13F13397   5.663   1.553   7.906  0.2690 -0.7111 -0.6692
  125OSM   H13F13398   5.606   1.539   7.811 -0.7892  0.4782 -0.2196
  125OSM   H13G13399   5.682   1.659   7.933 -0.1897 -0.8919  0.4093
  125OSM   C14F13400   5.580   1.510   8.022  0.7974  0.3782 -0.2100
  125OSM   H14F13401   5.633   1.525   8.119 -0.8534  0.4571  0.7191
  125OSM   H14G13402   5.562   1.401   8.016 -1.5062  0.6644  0.4890
  125OSM   C15F13403   5.443   1.593   8.039  0.0648  0.1850  0.8012
  125OSM   H15F13404   5.371   1.511   8.058  0.1768  0.2446  1.5389
  125OSM   H15G13405   5.416   1.646   7.945 -1.4846 -1.2407  0.4071
  125OSM   C16F13406   5.432   1.681   8.154  0.3664 -0.5257 -0.1119
  125OSM   H16F13407   5.425   1.618   8.245 -2.8331  1.2223  0.9729
  125OSM   H16G13408   5.333   1.727   8.169  0.3652 -0.5482 -0.0487
  125OSM   C17F13409   5.537   1.792   8.169  0.0764 -0.5880 -0.4652
  125OSM   H17F13410   5.636   1.742   8.178 -1.1054 -2.7483  1.9548
  125OSM   H17G13411   5.503   1.850   8.257 -1.6723 -0.3035 -1.2959
  125OSM   C18F13412   5.547   1.891   8.052 -0.4692 -0.4968  0.2311
  125OSM   H18F13413   5.615   1.977   8.071 -0.5254  0.0316 -1.6984
  125OSM   H18G13414   5.450   1.938   8.027  0.3523  0.4390 -1.3801
  125OSM   H18H13415   5.579   1.850   7.954 -2.7274 -0.0849 -0.7481
  126OSM      N13416   5.105   6.627   6.473 -0.5864  0.3576  0.7501
  126OSM    C1513417   5.146   6.497   6.529  0.2657  0.0465  0.2560
  126OSM   H15A13418   5.205   6.486   6.618 -0.2489 -0.2551  0.5663
  126OSM   H15B13419   5.188   6.441   6.447  0.1956 -1.1827  1.0379
  126OSM   H15C13420   5.054   6.445   6.549 -0.8196  1.2888 -1.1736
  126OSM    C1413421   5.221   6.674   6.385 -0.2866 -0.2222  0.3482
  126OSM   H14A13422   5.197   6.772   6.346  1.1402 -0.2217 -0.5797
  126OSM   H14B13423   5.242   6.614   6.298  5.9512  0.8414  0.6632
  126OSM   H14C13424   5.312   6.684   6.442  0.8450 -0.3694 -1.3691
  126OSM    C1313425   4.987   6.602   6.382  0.0699  0.1104  0.2270
  126OSM   H13A13426   5.018   6.524   6.315  1.0416  1.0435 -0.4446
  126OSM   H13B13427   4.953   6.697   6.343 -0.6583 -1.6908 -4.1258
  126OSM   H13C13428   4.910   6.554   6.440 -0.7037  0.4373 -0.5137
  126OSM    C1213429   5.076   6.727   6.583  0.1520 -0.3861 -0.0909
  126OSM   H12A13430   5.002   6.678   6.644 -3.2403  2.1780 -1.8161
  126OSM   H12B13431   5.024   6.812   6.540  0.5669 -0.8470 -1.5838
  126OSM    C1113432   5.185   6.786   6.659 -0.6875 -0.3683 -0.0698
  126OSM   H11A13433   5.251   6.706   6.699 -1.4443 -1.5286 -1.0758
  126OSM   H11B13434   5.161   6.835   6.756  0.1252 -0.3177  0.1112
  126OSM      P13435   5.200   7.016   6.528  0.1836 -0.2620  0.1351
  126OSM    O1313436   5.317   7.101   6.490  0.4924 -0.5045 -0.5161
  126OSM    O1413437   5.102   6.988   6.423  1.2532 -0.1134 -0.1741
  126OSM    O1113438   5.130   7.072   6.656  0.1054  0.2504  0.3817
  126OSM    O1213439   5.258   6.875   6.575 -0.2516 -0.0125 -0.0637
  126OSM    C1S13440   5.209   7.118   6.772 -0.5892  0.9619  0.5243
  126OSM    H1S13441   5.294   7.184   6.743  0.5558 -0.2957  0.8721
  126OSM    H1T13442   5.257   7.034   6.828  0.9219  1.8316  0.5953
  126OSM     NF13443   5.205   7.228   6.987  0.0875 -0.7759 -0.3243
  126OSM    HNF13444   5.179   7.186   7.074 -1.3404  1.6001  0.4777
  126OSM    C2S13445   5.125   7.198   6.873  0.3030  0.1635  0.1346
  126OSM    H2S13446   5.103   7.292   6.819 -0.4042  0.5054  0.9816
  126OSM    C3S13447   4.987   7.129   6.908  0.5339 -0.3057  0.1799
  126OSM    H3S13448   5.008   7.035   6.963 -0.8581 -0.2089  0.9173
  126OSM     O313449   4.908   7.083   6.793  0.1506 -0.3869  0.4228
  126OSM    HO313450   4.970   7.080   6.720 -2.2608 -0.4744 -1.7383
  126OSM    C4S13451   4.903   7.213   6.997 -0.7152 -0.0590 -0.0473
  126OSM    H4S13452   4.908   7.176   7.100 -0.4274 -0.5455 -0.2287
  126OSM    C5S13453   4.829   7.321   6.970  0.2000  0.2658 -0.3355
  126OSM    H5S13454   4.823   7.357   6.866 -3.3201 -1.0763 -0.7492
  126OSM    C6S13455   4.741   7.396   7.069  0.3057 -0.0501  0.0784
  126OSM    H6S13456   4.638   7.410   7.030 -0.1629  2.6183  1.9459
  126OSM    H6T13457   4.779   7.500   7.074  0.7145 -0.0835 -1.7586
  126OSM    C7S13458   4.754   7.347   7.214  0.8952 -0.5599  0.7157
  126OSM    H7S13459   4.851   7.312   7.256  0.7773 -1.3295  0.3818
  126OSM    H7T13460   4.693   7.254   7.225 -0.3592  0.2085  0.4855
  126OSM    C8S13461   4.682   7.442   7.319  0.3755  0.0173 -0.2218
  126OSM    H8S13462   4.595   7.468   7.256 -0.1831 -1.6490 -0.1894
  126OSM    H8T13463   4.748   7.531   7.332 -0.5039  0.5668  0.5982
  126OSM    C9S13464   4.643   7.371   7.441 -0.6474  0.2719 -0.3828
  126OSM    H9S13465   4.733   7.311   7.467 -1.6188 -0.3682  1.7230
  126OSM    H9T13466   4.569   7.292   7.414 -0.9153  0.3338  0.1420
  126OSM   C10S13467   4.584   7.461   7.548 -0.1662  0.0680 -0.4842
  126OSM   H10S13468   4.486   7.496   7.509 -0.7594 -1.5283 -0.4986
  126OSM   H10T13469   4.635   7.560   7.550  1.6156 -0.7968 -0.9729
  126OSM   C11S13470   4.590   7.399   7.685 -0.2585 -0.4498  0.0158
  126OSM   H11S13471   4.697   7.386   7.714 -0.2221  1.7765  1.0882
  126OSM   H11T13472   4.537   7.302   7.696  0.9517 -1.0864  0.4645
  126OSM   C12S13473   4.518   7.488   7.784 -0.3927  0.5589  0.2217
  126OSM   H12S13474   4.413   7.509   7.753 -0.7764 -0.9987  0.3981
  126OSM   H12T13475   4.565   7.589   7.783  2.2957 -0.6028 -2.0551
  126OSM   C13S13476   4.509   7.420   7.921  0.6706 -0.4245  0.3769
  126OSM   H13S13477   4.605   7.370   7.947  0.6727 -0.8179 -0.3430
  126OSM   H13T13478   4.438   7.334   7.918 -1.4823  1.3000 -1.3564
  126OSM   C14S13479   4.459   7.517   8.041  0.0122  0.4841  0.3263
  126OSM   H14S13480   4.377   7.464   8.093  0.1123  2.4387  2.6506
  126OSM   H14T13481   4.441   7.621   8.007 -0.0909  0.4259  0.2006
  126OSM   C15S13482   4.568   7.552   8.143 -0.1894  0.3320 -0.2220
  126OSM   H15S13483   4.658   7.600   8.098 -0.8029  1.3065 -0.4361
  126OSM   H15T13484   4.597   7.451   8.180  0.3021  0.1729 -1.0053
  126OSM   C16S13485   4.524   7.645   8.257  0.1557  0.3727  0.4585
  126OSM   H16S13486   4.438   7.600   8.312  1.1349 -1.1687  0.7664
  126OSM   H16T13487   4.465   7.728   8.211  0.6218  0.7689  0.5630
  126OSM   C17S13488   4.643   7.683   8.348  0.7382  0.6446  0.2283
  126OSM   H17S13489   4.709   7.751   8.289 -0.6909  1.3763 -0.5799
  126OSM   H17T13490   4.698   7.588   8.366  1.8174  0.6434 -2.5311
  126OSM   C18S13491   4.611   7.745   8.483 -0.2388 -0.2950 -0.0572
  126OSM   H18S13492   4.700   7.780   8.539  0.6246 -1.1954 -0.8218
  126OSM   H18T13493   4.543   7.684   8.546 -1.1346  0.3016 -0.4258
  126OSM   H18U13494   4.552   7.834   8.452  0.3219  0.0149 -0.2581
  126OSM    C1F13495   5.324   7.296   6.981  0.3004 -0.0433  0.4434
  126OSM     OF13496   5.352   7.363   6.881  0.1025 -0.7851  0.0129
  126OSM    C2F13497   5.417   7.299   7.097 -0.6380  0.6612  0.2325
  126OSM    H2F13498   5.413   7.396   7.151  0.6626 -0.4709  2.4963
  126OSM    H2G13499   5.517   7.280   7.052 -0.6664  0.0596  0.4198
  126OSM    C3F13500   5.408   7.185   7.201 -0.5219 -0.6108 -0.0197
  126OSM    H3F13501   5.396   7.084   7.155  1.9814 -1.7202  1.5130
  126OSM    H3G13502   5.315   7.189   7.262 -0.7512  0.1575 -0.4171
  126OSM    C4F13503   5.515   7.202   7.305  0.3636 -0.4626  0.2828
  126OSM    H4F13504   5.501   7.307   7.339  0.2334  0.1281 -1.4986
  126OSM    H4G13505   5.616   7.193   7.261 -0.1309 -2.2413 -0.5822
  126OSM    C5F13506   5.503   7.101   7.421  0.6633 -0.2924  0.3790
  126OSM    H5F13507   5.596   7.092   7.481 -0.3166  0.8093  2.1489
  126OSM    H5G13508   5.472   7.001   7.381  2.1090 -0.8091  0.5130
  126OSM    C6F13509   5.398   7.148   7.527  0.0196  0.1691 -0.6368
  126OSM    H6F13510   5.296   7.147   7.483 -1.2707  0.8516  2.1463
  126OSM    H6G13511   5.423   7.250   7.564 -0.6925  0.3271 -0.5781
  126OSM    C7F13512   5.366   7.051   7.647  0.0559  0.0004  0.4914
  126OSM    H7F13513   5.338   6.952   7.605 -0.3191 -0.4063  1.6681
  126OSM    H7G13514   5.282   7.082   7.712 -0.3658  0.8070 -0.4034
  126OSM    C8F13515   5.484   7.046   7.749  0.6283  0.2156  0.4280
  126OSM    H8F13516   5.569   7.014   7.684 -1.9781  1.7307 -4.1470
  126OSM    H8G13517   5.474   6.964   7.823 -0.7861  1.3505  1.5530
  126OSM    C9F13518   5.512   7.174   7.825 -0.7134  0.9193 -0.4487
  126OSM    H9F13519   5.586   7.233   7.769  2.0561 -0.7421  1.2683
  126OSM   C10F13520   5.448   7.217   7.935 -1.1078 -0.1501  0.1588
  126OSM   H10F13521   5.486   7.308   7.983  0.0550 -1.9556  2.8691
  126OSM   C11F13522   5.342   7.145   8.009  0.7385  0.2018  0.1116
  126OSM   H11F13523   5.285   7.074   7.944 -0.3956 -0.6745  1.9766
  126OSM   H11G13524   5.267   7.214   8.052  1.5486  2.6677 -2.2052
  126OSM   C12F13525   5.405   7.058   8.119  0.2408 -0.0429 -0.7116
  126OSM   H12F13526   5.449   6.969   8.070 -2.1579 -1.1787 -0.9469
  126OSM   H12G13527   5.317   7.032   8.182 -0.2693  0.7713 -1.0680
  126OSM   C13F13528   5.508   7.114   8.217 -0.6320  0.0732 -0.5549
  126OSM   H13F13529   5.600   7.128   8.157 -1.2647  0.7161 -1.4007
  126OSM   H13G13530   5.525   7.035   8.293  1.2643  0.2877 -0.7164
  126OSM   C14F13531   5.467   7.248   8.297 -0.1973 -0.3486 -0.3462
  126OSM   H14F13532   5.361   7.256   8.329  0.4938  2.8238  1.6310
  126OSM   H14G13533   5.486   7.330   8.224  1.7167  0.1293  0.6348
  126OSM   C15F13534   5.555   7.269   8.425  0.6351 -0.2262  0.8441
  126OSM   H15F13535   5.547   7.378   8.448 -1.7624  0.1463 -1.3741
  126OSM   H15G13536   5.665   7.258   8.410  0.5568  0.7240 -0.6287
  126OSM   C16F13537   5.516   7.196   8.555 -1.3169  0.7271 -0.4389
  126OSM   H16F13538   5.529   7.089   8.529  0.2968  0.8591 -0.2942
  126OSM   H16G13539   5.412   7.214   8.587 -1.3811 -1.4718  0.7807
  126OSM   C17F13540   5.613   7.226   8.675  0.2260 -0.4930 -0.4156
  126OSM   H17F13541   5.549   7.212   8.764 -0.7271  0.1759 -0.9820
  126OSM   H17G13542   5.638   7.333   8.660 -0.8181  0.3668  3.0270
  126OSM   C18F13543   5.747   7.146   8.672 -0.1952  0.2536  0.2895
  126OSM   H18F13544   5.723   7.050   8.723 -1.2906  0.8119  0.8543
  126OSM   H18G13545   5.810   7.210   8.737  0.9670 -0.8214  0.2749
  126OSM   H18H13546   5.787   7.121   8.572 -0.6429 -0.4395  0.2737
  127OSM      N13547   5.646   4.828   6.290 -0.5484 -0.3872  0.3875
  127OSM    C1513548   5.761   4.738   6.247  0.0206  0.5368  0.0056
  127OSM   H15A13549   5.795   4.769   6.149 -0.3999  1.0133  0.0067
  127OSM   H15B13550   5.717   4.639   6.249 -2.4588  1.5540 -0.6538
  127OSM   H15C13551   5.842   4.742   6.317  0.1942 -0.9799 -0.0829
  127OSM    C1413552   5.704   4.970   6.305 -0.1061 -0.0952  0.2898
  127OSM   H14A13553   5.762   5.001   6.219 -0.4521  0.7250  0.3437
  127OSM   H14B13554   5.776   4.964   6.385  0.1106  0.7344  0.1664
  127OSM   H14C13555   5.623   5.040   6.316  0.3834  0.5973 -0.3840
  127OSM    C1313556   5.553   4.830   6.173  0.6019  0.6327  0.3483
  127OSM   H13A13557   5.511   4.730   6.171  0.5326  0.6753 -0.7932
  127OSM   H13B13558   5.603   4.844   6.079 -1.4630 -2.1883 -1.3478
  127OSM   H13C13559   5.472   4.902   6.174  0.2577  0.2549  1.2400
  127OSM    C1213560   5.595   4.780   6.415 -0.3816 -0.2791  0.2214
  127OSM   H12A13561   5.545   4.858   6.469 -0.2177 -0.7760  1.1212
  127OSM   H12B13562   5.680   4.768   6.481  0.5566 -0.3244 -0.9487
  127OSM    C1113563   5.508   4.655   6.412 -0.2015  0.2005  0.7269
  127OSM   H11A13564   5.413   4.674   6.359 -0.1506 -1.1041  0.1308
  127OSM   H11B13565   5.493   4.627   6.518  0.6190 -2.0834  0.3012
  127OSM      P13566   5.491   4.425   6.290  0.0952 -0.0615  0.3512
  127OSM    O1313567   5.378   4.496   6.221 -0.3994 -0.1802 -0.0495
  127OSM    O1413568   5.578   4.347   6.198  0.0368 -0.5642  0.7578
  127OSM    O1113569   5.431   4.336   6.406  0.5029  0.2317 -0.0841
  127OSM    O1213570   5.567   4.543   6.353 -0.3802  0.4913 -0.4193
  127OSM    C1S13571   5.495   4.302   6.531 -0.2618  0.4065 -0.9715
  127OSM    H1S13572   5.526   4.393   6.587 -0.3092 -0.3915  0.3924
  127OSM    H1T13573   5.582   4.235   6.514  0.2434  0.9051 -0.3706
  127OSM     NF13574   5.433   4.225   6.765  0.0120  0.2603  0.3333
  127OSM    HNF13575   5.493   4.155   6.803 -2.5941 -1.8381  0.8766
  127OSM    C2S13576   5.403   4.214   6.616  0.8319  0.0086 -0.7122
  127OSM    H2S13577   5.294   4.236   6.606  0.7067 -0.2620 -0.0322
  127OSM    C3S13578   5.413   4.070   6.556 -0.7202  0.1270 -0.2108
  127OSM    H3S13579   5.514   4.027   6.569 -1.1876 -0.8973  0.1548
  127OSM     O313580   5.393   4.069   6.417  0.6713 -0.4347 -0.1381
  127OSM    HO313581   5.401   4.158   6.380 -1.1756 -1.4637 -3.4887
  127OSM    C4S13582   5.306   3.983   6.623 -0.3067 -0.4449  0.4283
  127OSM    H4S13583   5.353   3.894   6.668  2.4473  0.1853 -0.9924
  127OSM    C5S13584   5.173   4.006   6.654 -0.3966  0.1471 -0.8772
  127OSM    H5S13585   5.123   4.100   6.628 -1.0744 -0.1411 -0.6496
  127OSM    C6S13586   5.083   3.908   6.722  0.0471  0.4473  0.1555
  127OSM    H6S13587   5.103   3.802   6.693  1.9544  0.8485 -0.1011
  127OSM    H6T13588   4.982   3.925   6.679  0.4810  0.2056 -0.9881
  127OSM    C7S13589   5.096   3.912   6.874 -0.0855 -0.0275  0.0486
  127OSM    H7S13590   5.035   3.831   6.918  1.3136 -1.9572 -1.3808
  127OSM    H7T13591   5.059   4.010   6.911  0.2827 -0.9473  3.1183
  127OSM    C8S13592   5.232   3.879   6.930 -0.1919 -0.5996 -0.2800
  127OSM    H8S13593   5.307   3.958   6.912  1.1911 -1.6749  0.5099
  127OSM    H8T13594   5.267   3.785   6.881 -0.4704 -0.5483 -0.5776
  127OSM    C9S13595   5.248   3.856   7.083  0.1404 -0.4286  0.5329
  127OSM    H9S13596   5.351   3.830   7.115  0.8228  0.2594 -0.9898
  127OSM    H9T13597   5.192   3.762   7.100 -1.7935  0.3634 -0.9940
  127OSM   C10S13598   5.187   3.964   7.174 -0.0946  0.2886 -0.1102
  127OSM   H10S13599   5.077   3.971   7.166 -0.2530  0.0565  1.5279
  127OSM   H10T13600   5.242   4.056   7.145  0.4369 -0.5094 -1.7456
  127OSM   C11S13601   5.218   3.926   7.320  0.1773  0.1136 -0.2125
  127OSM   H11S13602   5.325   3.936   7.348 -0.3429  2.2634  1.3055
  127OSM   H11T13603   5.189   3.820   7.341 -0.8179 -0.1608 -2.6141
  127OSM   C12S13604   5.142   4.010   7.420 -0.0304 -0.1393 -0.0894
  127OSM   H12S13605   5.040   4.032   7.381 -0.6361 -0.2579  1.3336
  127OSM   H12T13606   5.194   4.108   7.420 -1.4097  0.6309 -0.9596
  127OSM   C13S13607   5.140   3.959   7.564 -0.1339  0.3568 -0.4046
  127OSM   H13S13608   5.067   3.876   7.565  1.5314 -1.3515 -3.7882
  127OSM   H13T13609   5.104   4.033   7.638  0.7577 -1.4732  2.0026
  127OSM   C14S13610   5.276   3.908   7.624 -0.2427  0.2979 -0.0715
  127OSM   H14S13611   5.349   3.992   7.625 -1.2231  1.1661  0.1340
  127OSM   H14T13612   5.307   3.819   7.565 -1.4054 -0.8068  0.9441
  127OSM   C15S13613   5.269   3.858   7.772 -0.4378 -0.1270  0.0557
  127OSM   H15S13614   5.367   3.836   7.820 -0.7160 -0.0824  0.6609
  127OSM   H15T13615   5.221   3.758   7.779 -2.0038  0.6346  0.7901
  127OSM   C16S13616   5.198   3.947   7.878  0.5114  0.1788  0.1466
  127OSM   H16S13617   5.091   3.944   7.848  0.3557  1.8689  0.4262
  127OSM   H16T13618   5.243   4.049   7.880 -3.5979  2.2204  0.0723
  127OSM   C17S13619   5.221   3.884   8.017  0.5379  0.2230 -0.4034
  127OSM   H17S13620   5.330   3.867   8.031  0.1043 -1.1984  1.6252
  127OSM   H17T13621   5.171   3.785   8.010 -0.3939  0.2925  3.3599
  127OSM   C18S13622   5.175   3.953   8.151  0.1236  0.2256  1.3630
  127OSM   H18S13623   5.081   4.008   8.130 -0.3958 -0.2972  2.2282
  127OSM   H18T13624   5.250   4.021   8.198  2.4936 -1.5376  0.2734
  127OSM   H18U13625   5.166   3.882   8.236 -0.2415  0.5601  1.6089
  127OSM    C1F13626   5.406   4.338   6.836 -0.7658  0.7489  0.5369
  127OSM     OF13627   5.352   4.433   6.779 -0.7946  0.2817 -0.3022
  127OSM    C2F13628   5.454   4.348   6.980  0.6344 -0.2637 -0.3400
  127OSM    H2F13629   5.561   4.322   6.994  0.3156 -0.8958  1.1694
  127OSM    H2G13630   5.385   4.280   7.035 -0.3825 -0.5001 -1.8349
  127OSM    C3F13631   5.442   4.492   7.025 -0.4610  0.0759 -0.2186
  127OSM    H3F13632   5.339   4.528   7.048 -0.3258 -0.8736  2.2746
  127OSM    H3G13633   5.481   4.559   6.946 -0.4015  0.7448  0.3635
  127OSM    C4F13634   5.521   4.516   7.151 -0.1068  0.2076 -0.2731
  127OSM    H4F13635   5.564   4.619   7.155  2.1379 -0.7013  1.3385
  127OSM    H4G13636   5.605   4.444   7.162  0.1224  0.6168  0.8075
  127OSM    C5F13637   5.438   4.488   7.284  0.5035 -0.2551 -0.1525
  127OSM    H5F13638   5.408   4.381   7.281  1.0605 -0.3949 -1.2299
  127OSM    H5G13639   5.347   4.552   7.284 -0.8632 -1.7133 -5.3300
  127OSM    C6F13640   5.524   4.517   7.408 -0.4921  0.0487 -0.0197
  127OSM    H6F13641   5.555   4.623   7.393  2.5432 -0.4863  1.6386
  127OSM    H6G13642   5.620   4.460   7.403  0.0761  1.0357 -0.7471
  127OSM    C7F13643   5.449   4.477   7.538  0.0554  0.3235 -0.4048
  127OSM    H7F13644   5.434   4.368   7.529  1.3095 -0.0035  1.0605
  127OSM    H7G13645   5.354   4.536   7.542  0.5638  1.1226  0.5701
  127OSM    C8F13646   5.522   4.511   7.670  0.1855  0.5906  0.0929
  127OSM    H8F13647   5.449   4.526   7.753 -0.6379 -2.3803  0.0521
  127OSM    H8G13648   5.582   4.604   7.664  0.2677  0.5548  0.3511
  127OSM    C9F13649   5.615   4.404   7.716  0.2592  0.2067  0.0390
  127OSM    H9F13650   5.605   4.303   7.675  1.1406 -0.4606  1.3867
  127OSM   C10F13651   5.729   4.418   7.796 -0.0068 -0.3714 -0.4058
  127OSM   H10F13652   5.777   4.328   7.838  5.1978  2.6193  0.9113
  127OSM   C11F13653   5.792   4.540   7.864  0.1630  0.6466 -0.2229
  127OSM   H11F13654   5.755   4.533   7.969  0.1523 -3.5441 -0.3438
  127OSM   H11G13655   5.751   4.627   7.809 -0.8464  0.8040  0.7397
  127OSM   C12F13656   5.943   4.522   7.863 -0.2430 -0.0359  0.1876
  127OSM   H12F13657   5.971   4.510   7.756  1.6077  0.8988  0.5254
  127OSM   H12G13658   5.987   4.436   7.917  2.1504  0.1018 -1.4109
  127OSM   C13F13659   6.014   4.650   7.905  0.2778  0.2292  0.0614
  127OSM   H13F13660   5.984   4.731   7.834  1.5908  0.0746 -0.7128
  127OSM   H13G13661   6.122   4.627   7.888 -0.3520 -2.4029 -0.9246
  127OSM   C14F13662   5.992   4.684   8.053  0.8218  0.0723 -1.0567
  127OSM   H14F13663   5.886   4.668   8.086  0.6173  3.0711  0.0645
  127OSM   H14G13664   6.016   4.792   8.060 -0.6662  0.3591  0.3732
  127OSM   C15F13665   6.084   4.612   8.160 -0.3276  0.2099  0.6666
  127OSM   H15F13666   6.182   4.613   8.108  0.1632  0.7924  1.5835
  127OSM   H15G13667   6.069   4.504   8.181 -1.5888 -0.0254 -1.1181
  127OSM   C16F13668   6.095   4.696   8.284 -0.4670  0.6642  0.2332
  127OSM   H16F13669   6.005   4.671   8.343  0.2938 -4.5304 -0.3278
  127OSM   H16G13670   6.108   4.805   8.265  3.0718  0.3431  0.0732
  127OSM   C17F13671   6.207   4.658   8.385  0.4875 -0.0261 -0.1700
  127OSM   H17F13672   6.215   4.736   8.463  0.3292 -0.1567 -0.0229
  127OSM   H17G13673   6.293   4.673   8.316 -0.7581  1.3638 -1.4911
  127OSM   C18F13674   6.205   4.521   8.445  0.0880 -0.4885 -0.6451
  127OSM   H18F13675   6.107   4.509   8.496 -0.0171 -0.3650 -0.8117
  127OSM   H18G13676   6.290   4.504   8.514 -1.4297  1.4010  1.8681
  127OSM   H18H13677   6.217   4.438   8.372  0.9631 -0.6907 -0.2797
  128OSM      N13678   1.680   1.326   5.742 -0.6143 -0.5384 -0.0254
  128OSM    C1513679   1.655   1.184   5.767  0.3653  0.6005  0.0065
  128OSM   H15A13680   1.668   1.124   5.678 -1.5795  1.2206 -0.7550
  128OSM   H15B13681   1.551   1.177   5.797  0.4036  2.8787  0.8643
  128OSM   H15C13682   1.713   1.148   5.851  1.7442 -0.4851 -1.3672
  128OSM    C1413683   1.835   1.327   5.760  0.0658 -0.2489  0.0281
  128OSM   H14A13684   1.868   1.280   5.851 -0.8517  2.2420  1.7726
  128OSM   H14B13685   1.878   1.426   5.771  0.3909 -0.4801  0.9541
  128OSM   H14C13686   1.886   1.277   5.679 -0.5274  0.0925 -0.5706
  128OSM    C1313687   1.647   1.367   5.609  0.2161  0.0395  0.7595
  128OSM   H13A13688   1.688   1.465   5.589  2.6868 -1.3198 -1.5119
  128OSM   H13B13689   1.540   1.364   5.591  0.2806 -0.0472  0.3850
  128OSM   H13C13690   1.699   1.307   5.536 -2.1510  1.2593 -2.1395
  128OSM    C1213691   1.611   1.407   5.849  0.5644  0.4733 -0.0449
  128OSM   H12A13692   1.506   1.397   5.828  0.7453 -1.6585 -0.1989
  128OSM   H12B13693   1.644   1.507   5.825  0.9660 -0.1919 -2.5829
  128OSM    C1113694   1.650   1.376   6.001 -0.1822 -0.0732  0.1217
  128OSM   H11A13695   1.628   1.452   6.079  1.2809  1.8063 -1.1856
  128OSM   H11B13696   1.761   1.368   6.011 -0.4192 -3.1508  1.5809
  128OSM      P13697   1.640   1.148   6.144  0.0510  0.2423  0.0420
  128OSM    O1313698   1.525   1.054   6.153  0.8470  0.1441  0.5828
  128OSM    O1413699   1.776   1.088   6.133  0.3852  0.1898  0.3853
  128OSM    O1113700   1.642   1.254   6.262  0.7758  0.4877  0.2616
  128OSM    O1213701   1.603   1.242   6.024  0.0767 -0.2442 -0.0030
  128OSM    C1S13702   1.563   1.216   6.377 -0.0682 -0.3438 -0.3025
  128OSM    H1S13703   1.589   1.114   6.413 -2.3763 -0.2873  1.8150
  128OSM    H1T13704   1.457   1.210   6.344 -0.5922  1.3879  0.9287
  128OSM     NF13705   1.483   1.283   6.613 -0.1214  0.5890 -0.1649
  128OSM    HNF13706   1.397   1.332   6.625 -0.4599 -0.1897  0.7403
  128OSM    C2S13707   1.572   1.318   6.498  1.0302  0.1904 -1.5598
  128OSM    H2S13708   1.679   1.328   6.524  0.2260  1.9987  1.6332
  128OSM    C3S13709   1.529   1.458   6.451 -0.5213 -0.2283  0.0457
  128OSM    H3S13710   1.426   1.452   6.410 -0.6568  1.2936  0.1099
  128OSM     O313711   1.611   1.501   6.338  0.1537  0.1902  0.6245
  128OSM    HO313712   1.644   1.420   6.299  0.3081  1.1789 -1.4811
  128OSM    C4S13713   1.544   1.561   6.556  0.0796 -0.3886  0.3147
  128OSM    H4S13714   1.645   1.597   6.580 -0.1652  0.8285 -0.3342
  128OSM    C5S13715   1.444   1.629   6.610 -0.1730  0.1989  0.0130
  128OSM    H5S13716   1.341   1.602   6.582  0.1285  0.0905 -1.0363
  128OSM    C6S13717   1.470   1.751   6.701 -0.1587  0.3599 -0.3428
  128OSM    H6S13718   1.374   1.805   6.713 -1.2107 -1.6671  0.6863
  128OSM    H6T13719   1.546   1.819   6.657  1.7465  0.4946  2.8313
  128OSM    C7S13720   1.525   1.727   6.842  0.7607  0.2200 -0.2630
  128OSM    H7S13721   1.540   1.816   6.907  0.0768  0.6953 -0.7444
  128OSM    H7T13722   1.625   1.680   6.835  1.6465  1.3763  2.7297
  128OSM    C8S13723   1.431   1.638   6.932  0.2223 -0.3039  0.1513
  128OSM    H8S13724   1.395   1.544   6.885  0.2729 -1.9417  3.1212
  128OSM    H8T13725   1.351   1.715   6.938  1.3431  0.8362  1.2723
  128OSM    C9S13726   1.482   1.594   7.068  0.4372 -0.3005  0.5780
  128OSM    H9S13727   1.554   1.673   7.101  0.9267  0.5904 -2.3064
  128OSM    H9T13728   1.543   1.501   7.065  1.4497  0.3463  0.5927
  128OSM   C10S13729   1.374   1.576   7.175 -0.2401 -0.5918  0.4222
  128OSM   H10S13730   1.417   1.541   7.271 -0.2041 -1.5914  0.0527
  128OSM   H10T13731   1.329   1.483   7.134 -2.2685  0.1679  0.8321
  128OSM   C11S13732   1.272   1.691   7.197  0.0630 -0.3514 -0.3913
  128OSM   H11S13733   1.230   1.715   7.097  0.0020 -1.0508 -0.5388
  128OSM   H11T13734   1.328   1.779   7.234  1.3931 -1.8813  1.4072
  128OSM   C12S13735   1.158   1.662   7.291 -0.1155  0.3393  0.2487
  128OSM   H12S13736   1.110   1.568   7.255  0.5033  0.3465 -0.6243
  128OSM   H12T13737   1.093   1.751   7.275 -0.9788 -0.4217 -0.6466
  128OSM   C13S13738   1.204   1.643   7.440 -0.3402 -0.0317  0.4556
  128OSM   H13S13739   1.279   1.720   7.467  0.9060 -0.4953 -1.4728
  128OSM   H13T13740   1.255   1.545   7.452  1.0653  0.7563  1.0944
  128OSM   C14S13741   1.090   1.672   7.534 -0.6213  0.2463 -0.0957
  128OSM   H14S13742   1.003   1.607   7.513 -1.4200  0.7249  1.5486
  128OSM   H14T13743   1.062   1.780   7.539 -2.0264 -0.1710  2.2759
  128OSM   C15S13744   1.125   1.615   7.674  0.3478  0.4174 -0.2191
  128OSM   H15S13745   1.207   1.678   7.714  1.5109 -0.8999 -0.4728
  128OSM   H15T13746   1.157   1.510   7.661 -2.9483 -0.8146  0.5800
  128OSM   C16S13747   1.004   1.628   7.770 -0.1481  0.5188  0.3799
  128OSM   H16S13748   1.021   1.569   7.862  2.0368 -0.0782 -0.3477
  128OSM   H16T13749   0.917   1.575   7.725 -2.9030  1.5471  4.0133
  128OSM   C17S13750   0.967   1.773   7.804 -0.5061 -1.3725  0.7981
  128OSM   H17S13751   0.943   1.833   7.713 -1.2271  1.8478  2.9305
  128OSM   H17T13752   1.050   1.831   7.851  0.8399 -3.7717  1.5146
  128OSM   C18S13753   0.847   1.777   7.899  0.8790 -0.1593  0.8152
  128OSM   H18S13754   0.793   1.874   7.909 -1.5574 -1.1703 -1.2844
  128OSM   H18T13755   0.876   1.737   7.999 -1.8857 -0.2435  1.6770
  128OSM   H18U13756   0.762   1.721   7.855  1.5009 -0.1775 -0.3961
  128OSM    C1F13757   1.518   1.186   6.689  0.8189  0.2213  0.4302
  128OSM     OF13758   1.602   1.110   6.653  0.3917  0.4309 -0.3708
  128OSM    C2F13759   1.452   1.166   6.826 -0.3564 -0.1674 -0.5306
  128OSM    H2F13760   1.460   1.056   6.837  0.4718 -0.0264  0.4857
  128OSM    H2G13761   1.344   1.189   6.817 -0.3275  0.3841  0.3774
  128OSM    C3F13762   1.532   1.226   6.953  0.3601  0.1772  0.1265
  128OSM    H3F13763   1.531   1.337   6.939 -1.1588  0.1300 -0.2760
  128OSM    H3G13764   1.638   1.194   6.949 -0.2701 -2.5539  2.5283
  128OSM    C4F13765   1.477   1.182   7.082 -0.5183  0.5198 -0.2489
  128OSM    H4F13766   1.495   1.074   7.105  2.4383  0.9524 -0.1003
  128OSM    H4G13767   1.370   1.203   7.103 -0.7926 -0.3998 -0.6857
  128OSM    C5F13768   1.557   1.240   7.203 -0.4221 -0.2448  0.0393
  128OSM    H5F13769   1.559   1.349   7.185  0.8213 -0.4204 -1.0122
  128OSM    H5G13770   1.662   1.205   7.215 -0.3304  0.1021  0.2785
  128OSM    C6F13771   1.494   1.215   7.338  0.2871  0.1513 -0.6104
  128OSM    H6F13772   1.476   1.109   7.366 -0.5596  0.3460 -0.3938
  128OSM    H6G13773   1.401   1.275   7.344  0.4614  0.2716  1.4362
  128OSM    C7F13774   1.585   1.269   7.450  0.2035 -0.2547  0.0738
  128OSM    H7F13775   1.595   1.379   7.439 -2.6879 -0.0872 -2.3981
  128OSM    H7G13776   1.688   1.235   7.427  0.2067  1.0009 -2.0610
  128OSM    C8F13777   1.534   1.237   7.591  0.4996  0.5639  0.8001
  128OSM    H8F13778   1.609   1.270   7.667  1.3949 -2.5384  1.4316
  128OSM    H8G13779   1.528   1.126   7.593 -1.1289  0.5714 -0.9469
  128OSM    C9F13780   1.395   1.288   7.628 -0.2484 -0.0059 -0.5668
  128OSM    H9F13781   1.331   1.296   7.539 -0.4670  1.2902 -0.3126
  128OSM   C10F13782   1.342   1.322   7.750 -0.3881  0.2172  0.1839
  128OSM   H10F13783   1.242   1.368   7.750 -0.8905 -0.7393 -2.1969
  128OSM   C11F13784   1.427   1.311   7.877  0.2154 -0.4206 -0.3166
  128OSM   H11F13785   1.533   1.307   7.846 -0.0302 -0.4970 -1.1711
  128OSM   H11G13786   1.403   1.229   7.949 -3.0409  0.9238  0.3339
  128OSM   C12F13787   1.398   1.435   7.959 -0.5819  0.1515  0.5307
  128OSM   H12F13788   1.297   1.438   8.007 -0.7745  0.4504  0.1182
  128OSM   H12G13789   1.413   1.526   7.896 -3.3529 -0.6779 -1.5006
  128OSM   C13F13790   1.494   1.435   8.084 -0.2770 -0.1204  0.4882
  128OSM   H13F13791   1.594   1.476   8.062  0.6008 -1.4974  1.6928
  128OSM   H13G13792   1.510   1.329   8.116 -0.1350 -0.2898 -0.1371
  128OSM   C14F13793   1.433   1.502   8.208  1.0196  0.8913 -0.1428
  128OSM   H14F13794   1.349   1.440   8.245  0.2211  2.4340  0.7329
  128OSM   H14G13795   1.387   1.594   8.165 -3.0054 -0.6422  0.4881
  128OSM   C15F13796   1.532   1.526   8.322 -0.0435 -0.4500  0.3099
  128OSM   H15F13797   1.585   1.432   8.351  1.0758 -0.2012 -0.8539
  128OSM   H15G13798   1.471   1.559   8.409 -0.7854  1.7424 -0.9636
  128OSM   C16F13799   1.641   1.634   8.289  0.3723  0.6550  0.3678
  128OSM   H16F13800   1.586   1.730   8.276  0.2822  0.4649 -0.6839
  128OSM   H16G13801   1.703   1.621   8.198  2.5042  1.5595  1.6060
  128OSM   C17F13802   1.741   1.647   8.410  0.1482 -0.0834 -0.3588
  128OSM   H17F13803   1.801   1.739   8.397 -0.6006  0.1671 -2.3940
  128OSM   H17G13804   1.813   1.562   8.408  1.3125  0.8613  0.2219
  128OSM   C18F13805   1.666   1.652   8.547 -0.0954 -0.1610  0.5309
  128OSM   H18F13806   1.732   1.684   8.631 -1.8918  1.0476  1.5292
  128OSM   H18G13807   1.638   1.548   8.574  1.8381 -0.6909  0.6981
  128OSM   H18H13808   1.578   1.719   8.546 -0.9678 -1.2848  0.8182
  129OSM      N13809   5.053   4.964   6.256 -1.1240  0.4392 -0.6862
  129OSM    C1513810   4.939   4.881   6.210 -0.8919  0.4899 -0.6829
  129OSM   H15A13811   4.890   4.829   6.291  1.7007 -1.4562 -0.2743
  129OSM   H15B13812   4.962   4.801   6.142 -2.3933  1.1299 -2.0139
  129OSM   H15C13813   4.863   4.940   6.159 -0.7326  1.4824  0.1899
  129OSM    C1413814   5.163   4.876   6.307  0.2360 -0.2685  0.0238
  129OSM   H14A13815   5.131   4.840   6.404  1.4565 -0.4324  0.3824
  129OSM   H14B13816   5.254   4.933   6.324  0.1551  0.2926 -1.3277
  129OSM   H14C13817   5.182   4.803   6.231 -0.5056  0.8342 -1.2551
  129OSM    C1313818   5.111   5.040   6.132  1.0048  0.0072 -0.7551
  129OSM   H13A13819   5.035   5.098   6.082  1.4360  0.4738 -0.8823
  129OSM   H13B13820   5.153   4.966   6.065  1.3136 -1.2307  0.7410
  129OSM   H13C13821   5.190   5.105   6.167  1.5938 -0.9562 -0.2662
  129OSM    C1213822   5.014   5.062   6.369 -0.3458 -0.3012 -0.2583
  129OSM   H12A13823   4.943   5.006   6.429  1.2423  0.0692  2.1071
  129OSM   H12B13824   4.952   5.139   6.326 -1.5402 -0.5392  0.9554
  129OSM    C1113825   5.126   5.129   6.458  0.6289 -0.0629  0.7251
  129OSM   H11A13826   5.179   5.048   6.512 -1.9109 -1.5488  1.1274
  129OSM   H11B13827   5.082   5.187   6.541  1.4689  1.9773 -0.1800
  129OSM      P13828   5.359   5.206   6.391 -0.1935  0.0382 -0.0275
  129OSM    O1313829   5.389   5.090   6.299  0.5812 -0.3672 -0.3761
  129OSM    O1413830   5.418   5.337   6.363 -0.1882 -0.4460  0.1196
  129OSM    O1113831   5.393   5.176   6.540  0.4465  0.1423  0.1405
  129OSM    O1213832   5.203   5.220   6.384 -0.2934  0.4568  0.1633
  129OSM    C1S13833   5.364   5.269   6.642  0.1239 -0.2165  0.1189
  129OSM    H1S13834   5.256   5.294   6.645  0.3029  0.4469  1.4593
  129OSM    H1T13835   5.412   5.367   6.624 -0.7283  0.0877 -0.5650
  129OSM     NF13836   5.413   5.325   6.871 -0.9324 -0.3238  1.2290
  129OSM    HNF13837   5.496   5.377   6.888 -0.6486 -1.0033  1.9620
  129OSM    C2S13838   5.416   5.213   6.778 -0.2573 -0.0244 -0.1247
  129OSM    H2S13839   5.347   5.131   6.808  0.3441 -1.7755 -3.0335
  129OSM    C3S13840   5.556   5.146   6.762 -0.3217 -0.1046 -0.3273
  129OSM    H3S13841   5.635   5.211   6.719 -0.7121  1.3537  1.0243
  129OSM     O313842   5.547   5.029   6.674  0.8837  0.2292  0.1611
  129OSM    HO313843   5.481   5.056   6.609  1.1858  0.7610  0.0736
  129OSM    C4S13844   5.592   5.091   6.900 -0.1989 -0.1567 -0.1196
  129OSM    H4S13845   5.605   5.184   6.958  0.2010  0.5656 -1.3467
  129OSM    C5S13846   5.602   4.963   6.944  0.1487  0.0493  0.1454
  129OSM    H5S13847   5.585   4.886   6.867  0.1118  0.8796 -0.6909
  129OSM    C6S13848   5.634   4.932   7.084 -0.3518  0.7112  0.0054
  129OSM    H6S13849   5.736   4.891   7.100 -0.1833  2.0664  3.4186
  129OSM    H6T13850   5.563   4.854   7.118  2.1353 -1.3378  0.8273
  129OSM    C7S13851   5.630   5.037   7.195 -0.1093  0.1533 -0.7401
  129OSM    H7S13852   5.526   5.075   7.205 -0.4801 -0.4045 -2.1899
  129OSM    H7T13853   5.704   5.117   7.175  0.9313 -0.7351 -0.5360
  129OSM    C8S13854   5.676   4.969   7.329  0.5704  0.7226 -0.4280
  129OSM    H8S13855   5.778   4.925   7.320  0.9470  1.4471  0.1817
  129OSM    H8T13856   5.602   4.888   7.340 -1.2850  2.0086 -2.5829
  129OSM    C9S13857   5.653   5.048   7.458 -1.1212  0.1740  0.1124
  129OSM    H9S13858   5.547   5.083   7.463 -1.2556 -0.3328  4.6850
  129OSM    H9T13859   5.714   5.140   7.440  0.5132 -0.8606  0.1920
  129OSM   C10S13860   5.688   4.971   7.579 -0.1242  0.6050  0.2201
  129OSM   H10S13861   5.789   4.931   7.554 -0.2613  0.6146 -0.3658
  129OSM   H10T13862   5.632   4.875   7.578  1.2590 -0.2433 -0.8984
  129OSM   C11S13863   5.677   5.036   7.725 -0.6945  0.4696  0.6897
  129OSM   H11S13864   5.572   5.053   7.760 -0.7231 -0.7745  1.2362
  129OSM   H11T13865   5.722   5.136   7.709 -1.2026  0.2568 -3.1022
  129OSM   C12S13866   5.741   4.955   7.840  0.1781 -0.8364  0.2805
  129OSM   H12S13867   5.834   4.910   7.798  1.2070  0.2054  1.3703
  129OSM   H12T13868   5.669   4.880   7.878 -0.3104 -0.5222 -0.0180
  129OSM   C13S13869   5.790   5.038   7.962 -0.3040  0.1789  0.7367
  129OSM   H13S13870   5.873   5.104   7.929  3.0222 -2.6132  2.8062
  129OSM   H13T13871   5.841   4.969   8.033 -0.2167 -0.7596 -0.2175
  129OSM   C14S13872   5.675   5.119   8.023  0.2353  0.3030  0.8486
  129OSM   H14S13873   5.619   5.160   7.936 -2.8639 -2.4506  1.3371
  129OSM   H14T13874   5.712   5.200   8.090  0.7961 -0.5558  1.6038
  129OSM   C15S13875   5.578   5.027   8.101 -0.3848  0.3843  0.2677
  129OSM   H15S13876   5.640   4.955   8.159 -0.6478  0.4010  0.5731
  129OSM   H15T13877   5.513   4.979   8.025  0.1004  0.1195  0.0174
  129OSM   C16S13878   5.490   5.106   8.186 -0.0195 -0.1500  0.3604
  129OSM   H16S13879   5.387   5.072   8.211  0.4033 -1.0329  0.9457
  129OSM   H16T13880   5.468   5.205   8.140 -0.1137 -1.0171 -1.5783
  129OSM   C17S13881   5.545   5.135   8.324  0.0649 -0.7891 -0.6297
  129OSM   H17S13882   5.654   5.153   8.317 -0.2255  0.9088 -1.1553
  129OSM   H17T13883   5.525   5.050   8.393  1.5058 -1.1987 -0.6926
  129OSM   C18S13884   5.475   5.256   8.389 -0.8321  0.8510 -0.4070
  129OSM   H18S13885   5.536   5.291   8.476 -0.1653 -0.3357 -0.3779
  129OSM   H18T13886   5.372   5.227   8.417 -0.1524  1.1101  2.7845
  129OSM   H18U13887   5.467   5.340   8.317 -1.0571  0.0969 -1.2649
  129OSM    C1F13888   5.297   5.371   6.923 -0.7329 -1.0301 -0.1575
  129OSM     OF13889   5.196   5.325   6.883 -0.0637  0.1286  0.2967
  129OSM    C2F13890   5.305   5.483   7.017  0.4708 -0.6682 -0.2804
  129OSM    H2F13891   5.208   5.514   7.062  1.2438  1.5924 -0.0561
  129OSM    H2G13892   5.354   5.571   6.970  0.4519  0.7578  2.2419
  129OSM    C3F13893   5.396   5.446   7.132 -0.6334 -0.1215  0.4885
  129OSM    H3F13894   5.420   5.541   7.184  1.2790 -0.3532  0.1039
  129OSM    H3G13895   5.494   5.404   7.102 -0.6840  0.2514 -0.2165
  129OSM    C4F13896   5.329   5.343   7.220  0.1369 -0.0300  0.8116
  129OSM    H4F13897   5.326   5.243   7.171 -1.3123  0.2015  0.3638
  129OSM    H4G13898   5.224   5.369   7.246 -0.3447  0.7923 -1.6609
  129OSM    C5F13899   5.418   5.313   7.341 -0.2725  0.4581  0.0428
  129OSM    H5F13900   5.524   5.333   7.313 -0.6313  0.4273 -1.3945
  129OSM    H5G13901   5.418   5.204   7.363 -0.0734 -0.1004 -2.3999
  129OSM    C6F13902   5.373   5.397   7.454 -0.4192 -0.3548 -0.1152
  129OSM    H6F13903   5.308   5.478   7.414  1.3076  1.2456  0.1748
  129OSM    H6G13904   5.457   5.444   7.510 -0.4230  1.3943 -1.4991
  129OSM    C7F13905   5.283   5.308   7.542  0.3161 -0.7158 -0.4883
  129OSM    H7F13906   5.344   5.216   7.550  1.9070  0.2765 -0.6914
  129OSM    H7G13907   5.191   5.300   7.480 -0.8762  1.8523  0.8174
  129OSM    C8F13908   5.241   5.379   7.675  1.0315  0.2216  0.0935
  129OSM    H8F13909   5.153   5.331   7.724 -0.0430 -0.1365 -2.0695
  129OSM    H8G13910   5.203   5.477   7.639  0.2346  0.1945  0.8200
  129OSM    C9F13911   5.353   5.394   7.767 -0.0711 -0.5867 -0.2784
  129OSM    H9F13912   5.441   5.449   7.730  0.0632  0.1202  1.0434
  129OSM   C10F13913   5.350   5.347   7.894 -0.0214 -0.6476  0.3432
  129OSM   H10F13914   5.433   5.378   7.958  0.5781 -2.3814  0.4746
  129OSM   C11F13915   5.242   5.260   7.962  0.2829 -0.1976 -0.2147
  129OSM   H11F13916   5.297   5.175   8.009  0.3013 -0.0098  0.1057
  129OSM   H11G13917   5.169   5.216   7.890  0.4674  1.3735 -1.4032
  129OSM   C12F13918   5.174   5.333   8.082 -0.0866  0.0042 -0.4014
  129OSM   H12F13919   5.108   5.412   8.039 -0.4698 -0.2893 -0.3563
  129OSM   H12G13920   5.249   5.396   8.134 -0.3056 -0.4768  0.5041
  129OSM   C13F13921   5.102   5.226   8.170  0.1131  0.2170 -0.2910
  129OSM   H13F13922   5.176   5.164   8.225 -2.4535 -2.4409  0.4351
  129OSM   H13G13923   5.047   5.159   8.100  0.1781 -0.5947  0.4132
  129OSM   C14F13924   4.999   5.274   8.276  0.0663  0.4207  0.2033
  129OSM   H14F13925   4.960   5.189   8.336 -1.0308  1.4635  1.0319
  129OSM   H14G13926   4.910   5.312   8.221  1.1949  1.6530 -0.8311
  129OSM   C15F13927   5.056   5.371   8.379 -0.7956 -0.5744  0.6777
  129OSM   H15F13928   5.102   5.457   8.326 -2.0313 -0.4887 -0.3194
  129OSM   H15G13929   5.141   5.321   8.430 -0.6493 -1.5626 -0.4925
  129OSM   C16F13930   4.946   5.417   8.478 -0.5596  0.4394  0.4907
  129OSM   H16F13931   4.990   5.500   8.538 -0.8580  0.9092  0.0623
  129OSM   H16G13932   4.931   5.325   8.539 -3.7401  0.6547  0.1705
  129OSM   C17F13933   4.818   5.482   8.416 -0.2120 -0.0356 -0.2924
  129OSM   H17F13934   4.750   5.403   8.376 -1.5191  1.0076 -0.1986
  129OSM   H17G13935   4.851   5.541   8.328 -2.2105  2.1620  0.3499
  129OSM   C18F13936   4.750   5.572   8.514 -0.1240  0.4315 -0.2263
  129OSM   H18F13937   4.810   5.658   8.550 -0.1124 -0.2594  1.5110
  129OSM   H18G13938   4.719   5.514   8.603 -1.2244 -0.1554 -0.9633
  129OSM   H18H13939   4.657   5.617   8.473 -1.6146 -1.0409  1.3625
  130OSM      N13940   1.649   0.698   6.015  0.3333 -0.0807 -0.0921
  130OSM    C1513941   1.651   0.767   5.879  0.3655  0.8929 -0.1697
  130OSM   H15A13942   1.746   0.818   5.873 -0.1987  2.1580  1.0706
  130OSM   H15B13943   1.568   0.836   5.891 -1.0270 -0.6391 -0.5959
  130OSM   H15C13944   1.647   0.702   5.793 -0.9848  0.0063  0.5162
  130OSM    C1413945   1.514   0.630   6.039  0.2288  0.4165  0.1204
  130OSM   H14A13946   1.433   0.699   6.020  0.8192  1.1706  0.2905
  130OSM   H14B13947   1.502   0.585   6.136  1.7493 -0.9794 -0.3100
  130OSM   H14C13948   1.511   0.552   5.965  1.6686  0.0385  0.4299
  130OSM    C1313949   1.740   0.581   5.990 -0.1056  0.3149 -0.3288
  130OSM   H13A13950   1.690   0.512   5.923 -1.3704  0.3203  0.5652
  130OSM   H13B13951   1.752   0.526   6.082 -0.2448  0.7325 -0.0610
  130OSM   H13C13952   1.832   0.614   5.945 -1.2913  2.7592 -1.1380
  130OSM    C1213953   1.691   0.793   6.127 -0.4353 -0.2201 -0.0270
  130OSM   H12A13954   1.631   0.882   6.135  0.5169  0.3531  1.1465
  130OSM   H12B13955   1.789   0.836   6.111 -0.6761  1.3303  2.1391
  130OSM    C1113956   1.706   0.735   6.272  0.0596  0.2502 -0.4326
  130OSM   H11A13957   1.604   0.698   6.297 -0.4599  1.5996 -0.5164
  130OSM   H11B13958   1.718   0.815   6.348 -2.6876 -0.6593  1.0929
  130OSM      P13959   1.955   0.660   6.278  0.1905  0.2728 -0.0723
  130OSM    O1313960   2.034   0.566   6.195  0.1616 -0.9131  0.0743
  130OSM    O1413961   1.980   0.806   6.247  0.1326 -0.0231  0.4308
  130OSM    O1113962   1.978   0.635   6.428  0.0155 -0.0713 -0.5115
  130OSM    O1213963   1.804   0.631   6.271  0.4319 -0.4759 -0.3362
  130OSM    C1S13964   1.910   0.713   6.532  0.2105 -0.0630  0.0046
  130OSM    H1S13965   1.829   0.653   6.579  0.8862 -0.4876  0.6550
  130OSM    H1T13966   1.867   0.806   6.490 -1.5899 -0.4834  0.8165
  130OSM     NF13967   1.937   0.851   6.735 -0.1561  0.0299 -0.1811
  130OSM    HNF13968   1.938   0.947   6.708 -0.0037 -0.0967 -0.6299
  130OSM    C2S13969   2.010   0.771   6.642 -0.4426  0.4792  0.4542
  130OSM    H2S13970   2.056   0.685   6.695 -0.6076 -0.2330 -0.5275
  130OSM    C3S13971   2.135   0.842   6.582  0.2187  0.2601 -0.2913
  130OSM    H3S13972   2.100   0.923   6.515 -1.6690 -0.2711 -0.0058
  130OSM     O313973   2.228   0.767   6.497  0.3297 -0.3866 -0.9446
  130OSM    HO313974   2.194   0.678   6.508 -0.5079 -0.0931 -1.1019
  130OSM    C4S13975   2.212   0.888   6.701 -0.4406 -0.1909 -0.0295
  130OSM    H4S13976   2.244   0.800   6.758  0.1008  0.1441  0.1907
  130OSM    C5S13977   2.249   1.012   6.738  0.4656  0.1549  0.0754
  130OSM    H5S13978   2.209   1.100   6.686 -0.3829  0.2149  0.8148
  130OSM    C6S13979   2.319   1.046   6.866 -0.3843 -0.2367  0.5146
  130OSM    H6S13980   2.323   1.157   6.865  1.2262 -0.2764 -0.1640
  130OSM    H6T13981   2.423   1.009   6.865 -1.1173 -2.4189  0.4932
  130OSM    C7S13982   2.251   0.992   7.000 -0.2049 -0.3356  0.7325
  130OSM    H7S13983   2.250   0.881   7.004  1.7991 -0.3836  1.0501
  130OSM    H7T13984   2.144   1.021   6.994 -0.0337  0.1173 -0.3348
  130OSM    C8S13985   2.320   1.039   7.129  0.1783 -0.2030  0.1809
  130OSM    H8S13986   2.294   1.147   7.142  0.0271 -0.2262  0.0714
  130OSM    H8T13987   2.430   1.031   7.115  0.0232  1.7864 -2.9444
  130OSM    C9S13988   2.267   0.956   7.244 -0.3673  1.1208 -0.3633
  130OSM    H9S13989   2.274   0.849   7.214  1.4957  1.1959 -0.2823
  130OSM    H9T13990   2.158   0.974   7.259 -0.5767  0.7685 -1.3433
  130OSM   C10S13991   2.338   0.969   7.376  0.3222 -0.3394 -0.2530
  130OSM   H10S13992   2.356   1.077   7.393 -0.6008 -0.1464 -0.4180
  130OSM   H10T13993   2.440   0.928   7.358  0.0239 -1.0239 -0.4430
  130OSM   C11S13994   2.265   0.906   7.488  0.5878 -0.1645 -0.2965
  130OSM   H11S13995   2.270   0.797   7.468  2.2159 -0.1108 -0.3238
  130OSM   H11T13996   2.165   0.951   7.472  0.7025 -0.7871 -3.1809
  130OSM   C12S13997   2.329   0.931   7.621  0.9249 -0.0766  0.0258
  130OSM   H12S13998   2.322   1.041   7.633 -1.0523  0.4606 -4.1265
  130OSM   H12T13999   2.437   0.909   7.609  0.3813 -1.7494 -2.6545
  130OSM   C13S14000   2.254   0.860   7.730  0.5709 -0.0527 -0.4217
  130OSM   H13S14001   2.264   0.750   7.716 -2.2040 -0.2079 -1.9675
  130OSM   H13T14002   2.145   0.882   7.724 -0.0398 -2.0309  1.7674
  130OSM   C14S14003   2.298   0.891   7.870 -0.3842  0.1217  0.0107
  130OSM   H14S14004   2.258   0.991   7.898 -3.8396 -1.1289  0.0845
  130OSM   H14T14005   2.407   0.904   7.855 -0.4733  1.0987  0.1651
  130OSM   C15S14006   2.255   0.780   7.975 -0.7570  0.0394 -0.6868
  130OSM   H15S14007   2.310   0.686   7.954 -1.5052 -0.5597 -0.0298
  130OSM   H15T14008   2.147   0.756   7.967 -0.7782 -2.3658  3.8129
  130OSM   C16S14009   2.284   0.813   8.125 -0.5245 -0.4247  0.0216
  130OSM   H16S14010   2.223   0.901   8.154 -0.7173 -1.0326  1.5843
  130OSM   H16T14011   2.389   0.849   8.127 -0.2137 -1.2541 -0.6676
  130OSM   C17S14012   2.267   0.698   8.225 -0.2753 -0.2748  0.5773
  130OSM   H17S14013   2.362   0.686   8.281 -0.3991  0.4402  0.9532
  130OSM   H17T14014   2.247   0.605   8.169  0.1497  1.3480 -2.5220
  130OSM   C18S14015   2.151   0.721   8.321  0.3519 -0.0396 -0.3699
  130OSM   H18S14016   2.137   0.637   8.393  1.4104  0.1457  0.0563
  130OSM   H18T14017   2.054   0.746   8.272 -0.7842 -0.1423  1.6952
  130OSM   H18U14018   2.180   0.809   8.381  0.0098 -1.4940  2.0572
  130OSM    C1F14019   1.849   0.793   6.823 -0.2679 -0.6064 -0.3148
  130OSM     OF14020   1.821   0.676   6.803 -0.3991  0.1382 -0.3803
  130OSM    C2F14021   1.782   0.874   6.935 -0.7539 -0.0113 -0.0677
  130OSM    H2F14022   1.671   0.879   6.926 -0.7884 -1.5913 -1.0251
  130OSM    H2G14023   1.830   0.974   6.938 -0.2778 -0.2213 -0.4225
  130OSM    C3F14024   1.828   0.816   7.064 -1.3433  0.2277  0.8185
  130OSM    H3F14025   1.938   0.804   7.071 -1.1942  0.1444 -1.2132
  130OSM    H3G14026   1.784   0.714   7.072 -0.9215 -0.4777 -3.5850
  130OSM    C4F14027   1.798   0.900   7.187 -0.6506  0.5829 -0.4130
  130OSM    H4F14028   1.689   0.907   7.207 -0.9013 -2.7954  0.0202
  130OSM    H4G14029   1.847   0.999   7.172  3.2378 -1.5748 -3.7630
  130OSM    C5F14030   1.854   0.844   7.320  0.0456  0.1112 -0.5923
  130OSM    H5F14031   1.964   0.826   7.322 -0.2809 -3.0397 -2.9266
  130OSM    H5G14032   1.811   0.743   7.337  0.0172  0.1755 -0.2788
  130OSM    C6F14033   1.815   0.929   7.445 -0.2999 -0.0823 -0.1618
  130OSM    H6F14034   1.706   0.948   7.449 -0.1348  0.8257  0.5174
  130OSM    H6G14035   1.859   1.031   7.440 -0.4351 -0.0242 -0.1678
  130OSM    C7F14036   1.854   0.862   7.584  0.1888 -0.6355 -0.4873
  130OSM    H7F14037   1.963   0.840   7.587  1.1334  2.7431 -3.2889
  130OSM    H7G14038   1.794   0.771   7.604  0.3976 -0.3738  1.4537
  130OSM    C8F14039   1.834   0.958   7.706  0.0705 -0.0794 -0.0775
  130OSM    H8F14040   1.742   1.017   7.690  1.0471  2.7663  3.5444
  130OSM    H8G14041   1.918   1.030   7.712 -0.0594 -0.0295  1.3678
  130OSM    C9F14042   1.822   0.877   7.836 -0.3464 -0.6846  0.1737
  130OSM    H9F14043   1.866   0.776   7.838 -1.7752 -1.3590 -0.6865
  130OSM   C10F14044   1.762   0.921   7.954  0.3605  1.0242  0.5997
  130OSM   H10F14045   1.757   0.852   8.040  1.6583 -0.3504 -0.3794
  130OSM   C11F14046   1.692   1.052   7.970  0.0602  0.3524  0.1051
  130OSM   H11F14047   1.591   1.035   8.012  0.0875 -0.0851  0.0046
  130OSM   H11G14048   1.676   1.099   7.871 -2.2157  0.7016  0.5850
  130OSM   C12F14049   1.761   1.156   8.057  0.5889  0.2439  0.1014
  130OSM   H12F14050   1.701   1.248   8.037  0.2690 -0.1393 -0.7315
  130OSM   H12G14051   1.862   1.169   8.013 -0.1816  2.6269 -1.1494
  130OSM   C13F14052   1.755   1.139   8.209  0.0337  0.3371 -0.7795
  130OSM   H13F14053   1.826   1.055   8.218  0.7721  0.7919 -1.9855
  130OSM   H13G14054   1.656   1.124   8.256 -0.1018 -1.7345 -1.5963
  130OSM   C14F14055   1.823   1.266   8.275 -0.2165  0.4223  0.1243
  130OSM   H14F14056   1.795   1.360   8.225 -0.2321 -0.6244 -1.9444
  130OSM   H14G14057   1.929   1.265   8.241 -0.6116 -2.2202 -1.3619
  130OSM   C15F14058   1.824   1.276   8.425 -0.2462  0.5580 -0.2251
  130OSM   H15F14059   1.720   1.291   8.462 -0.3935 -3.1278  1.2417
  130OSM   H15G14060   1.883   1.365   8.455  0.4280 -0.2572  0.9330
  130OSM   C16F14061   1.881   1.154   8.485 -0.2698  0.0366  0.2863
  130OSM   H16F14062   1.963   1.111   8.424 -0.6110 -0.2806  0.0475
  130OSM   H16G14063   1.804   1.073   8.486  1.2011 -1.4508 -0.7932
  130OSM   C17F14064   1.947   1.160   8.622  0.4432 -0.2750 -0.4168
  130OSM   H17F14065   2.052   1.192   8.606  0.0921  1.2977  0.2836
  130OSM   H17G14066   1.939   1.054   8.656 -0.8357  0.1105  0.5743
  130OSM   C18F14067   1.873   1.251   8.718 -0.5375 -0.1505 -0.1419
  130OSM   H18F14068   1.888   1.357   8.686 -1.1038 -0.0423 -0.0675
  130OSM   H18G14069   1.915   1.245   8.820  1.7943  1.4963 -0.9264
  130OSM   H18H14070   1.765   1.223   8.721 -0.3451 -1.0434 -0.9375
  131OSM      N14071   5.099   4.132   6.154 -0.3639  0.2336  0.9508
  131OSM    C1514072   5.095   4.081   6.015  1.0552 -0.1682  0.1050
  131OSM   H15A14073   5.026   3.998   6.006 -0.7364  1.2635  0.0234
  131OSM   H15B14074   5.191   4.048   5.980  1.9635  0.1623  2.1289
  131OSM   H15C14075   5.073   4.167   5.954  0.4860  0.6608  1.4237
  131OSM    C1414076   5.158   4.021   6.236 -0.1501  0.2940  0.2595
  131OSM   H14A14077   5.165   4.049   6.340  1.6476  2.2589 -0.3220
  131OSM   H14B14078   5.260   3.992   6.213 -0.4571  0.7151 -1.8597
  131OSM   H14C14079   5.094   3.934   6.235  1.1731 -0.7482 -1.7706
  131OSM    C1314080   5.190   4.246   6.149 -0.2481 -0.6854  0.0988
  131OSM   H13A14081   5.207   4.284   6.249  2.7633 -0.0175 -0.5632
  131OSM   H13B14082   5.161   4.319   6.075 -1.4053 -3.0970 -1.9717
  131OSM   H13C14083   5.292   4.219   6.125 -0.6432 -3.2723  0.9205
  131OSM    C1214084   4.962   4.170   6.215 -0.2100 -0.6263  0.0610
  131OSM   H12A14085   4.983   4.215   6.310  0.5004 -1.1209  0.1434
  131OSM   H12B14086   4.902   4.081   6.231 -0.3113 -0.6819 -0.5878
  131OSM    C1114087   4.866   4.266   6.141 -0.5125  0.4398  0.3126
  131OSM   H11A14088   4.794   4.282   6.224 -1.7682 -3.2459  0.1272
  131OSM   H11B14089   4.814   4.204   6.065  2.3766 -0.1584 -1.3499
  131OSM      P14090   4.914   4.513   6.163 -0.3571 -0.1292 -0.1401
  131OSM    O1314091   5.021   4.595   6.113  0.2868 -0.9489 -0.1806
  131OSM    O1414092   4.779   4.575   6.161  0.1523  0.6184 -0.3544
  131OSM    O1114093   4.947   4.470   6.309  0.3433 -0.2491  0.1647
  131OSM    O1214094   4.922   4.377   6.085  0.1257  0.0042  0.4652
  131OSM    C1S14095   5.043   4.541   6.395  0.0373  0.3136 -0.2480
  131OSM    H1S14096   5.037   4.651   6.381  1.1966  0.5363  0.7857
  131OSM    H1T14097   5.146   4.508   6.368 -0.1171 -0.0416 -0.4219
  131OSM     NF14098   5.127   4.578   6.623 -0.3922  1.0076 -0.5974
  131OSM    HNF14099   5.197   4.518   6.661 -0.3890  0.2863 -1.7014
  131OSM    C2S14100   5.022   4.513   6.545  0.2787 -0.3692 -0.4543
  131OSM    H2S14101   4.924   4.557   6.575  1.2528  0.5972  1.5437
  131OSM    C3S14102   5.005   4.363   6.573 -0.0377  0.0814 -0.1461
  131OSM    H3S14103   5.090   4.303   6.534 -2.2008 -2.4747 -1.2691
  131OSM     O314104   4.892   4.303   6.515  0.1801  0.1020 -0.4763
  131OSM    HO314105   4.873   4.355   6.437 -1.3084 -1.3983 -1.1462
  131OSM    C4S14106   4.975   4.348   6.714 -0.1813 -0.1322  0.5694
  131OSM    H4S14107   4.883   4.404   6.738 -0.0061  0.8697 -0.9570
  131OSM    C5S14108   5.051   4.288   6.813 -0.0836 -0.1498  0.2022
  131OSM    H5S14109   5.145   4.235   6.792 -0.1779 -0.6443  0.9498
  131OSM    C6S14110   5.010   4.281   6.958  0.1405 -0.5208 -0.5533
  131OSM    H6S14111   5.063   4.203   7.015  2.3287  2.4133  1.7411
  131OSM    H6T14112   4.900   4.266   6.971  0.5112 -1.9919  1.1860
  131OSM    C7S14113   5.047   4.420   7.030 -0.1464  0.2274 -0.3321
  131OSM    H7S14114   5.003   4.504   6.973 -2.0879 -0.0671  0.6651
  131OSM    H7T14115   5.157   4.439   7.031 -0.1680  0.3561  1.0463
  131OSM    C8S14116   4.994   4.425   7.177 -0.5299  0.4414  0.1258
  131OSM    H8S14117   5.036   4.341   7.236 -1.4701 -0.5801 -0.6190
  131OSM    H8T14118   4.885   4.414   7.193 -0.2057 -0.2743  2.1796
  131OSM    C9S14119   5.029   4.550   7.251  0.5959  0.2173  0.2765
  131OSM    H9S14120   4.980   4.639   7.206  0.0850 -0.2657 -0.1273
  131OSM    H9T14121   5.140   4.559   7.250  0.6621 -0.5905 -0.5187
  131OSM   C10S14122   4.995   4.548   7.402 -0.2629 -0.2705 -0.1273
  131OSM   H10S14123   4.890   4.583   7.412  0.8417  3.5932 -0.2816
  131OSM   H10T14124   5.044   4.642   7.437  1.4774 -1.4474  0.7137
  131OSM   C11S14125   5.045   4.432   7.492  0.1345 -0.3856  0.5721
  131OSM   H11S14126   5.146   4.394   7.467  0.2270  0.4235 -0.3016
  131OSM   H11T14127   4.989   4.337   7.477 -0.6871  0.1980 -0.1453
  131OSM   C12S14128   5.038   4.475   7.639 -0.0679 -0.1120  1.0364
  131OSM   H12S14129   4.937   4.513   7.668 -1.1734  0.0201 -2.5145
  131OSM   H12T14130   5.102   4.565   7.640 -0.2641  0.0347  0.5672
  131OSM   C13S14131   5.090   4.376   7.743  0.0495 -0.1523 -0.4062
  131OSM   H13S14132   5.184   4.324   7.717 -0.6159 -1.2558 -0.6667
  131OSM   H13T14133   5.024   4.287   7.734  2.6778 -2.0545 -2.3835
  131OSM   C14S14134   5.066   4.431   7.890 -0.3476  0.5447  0.3916
  131OSM   H14S14135   4.969   4.484   7.904  0.2394  1.8124 -0.1684
  131OSM   H14T14136   5.151   4.498   7.916 -0.5222  0.3747  1.4634
  131OSM   C15S14137   5.062   4.328   8.015 -0.1741 -0.2801 -0.1192
  131OSM   H15S14138   5.142   4.252   8.000 -1.5915 -1.9746  0.5056
  131OSM   H15T14139   4.967   4.270   8.011  0.3691 -1.1457 -1.8612
  131OSM   C16S14140   5.091   4.397   8.151 -0.1662 -0.4478  0.4661
  131OSM   H16S14141   5.015   4.478   8.160  1.2576  1.0577 -0.4080
  131OSM   H16T14142   5.186   4.454   8.160  0.0187 -0.4879 -1.0134
  131OSM   C17S14143   5.071   4.311   8.274  0.5905  0.0583  0.0476
  131OSM   H17S14144   5.150   4.233   8.266  0.0821 -0.4003 -0.7845
  131OSM   H17T14145   4.970   4.265   8.264  1.1507 -1.2754  0.3059
  131OSM   C18S14146   5.089   4.382   8.406  0.6416 -0.0069 -0.0961
  131OSM   H18S14147   5.075   4.315   8.494 -0.9304 -0.6770 -0.8058
  131OSM   H18T14148   5.024   4.470   8.424 -0.7237 -0.7557 -1.1012
  131OSM   H18U14149   5.191   4.424   8.418  1.7155 -3.0345  3.3753
  131OSM    C1F14150   5.143   4.708   6.629  0.8782  1.1130  0.3361
  131OSM     OF14151   5.055   4.777   6.577  0.5538 -0.1884  0.0779
  131OSM    C2F14152   5.260   4.764   6.703  0.1744  0.3231  0.0918
  131OSM    H2F14153   5.268   4.863   6.654  1.2202 -0.2135 -0.8574
  131OSM    H2G14154   5.351   4.703   6.688  0.1153  0.4195 -0.6651
  131OSM    C3F14155   5.245   4.791   6.857 -0.4652  0.0347  0.1679
  131OSM    H3F14156   5.343   4.832   6.889 -0.4943 -0.8476  1.4579
  131OSM    H3G14157   5.223   4.696   6.910  0.1513 -0.2824 -0.1359
  131OSM    C4F14158   5.132   4.887   6.880 -0.5114 -0.3554 -0.0436
  131OSM    H4F14159   5.053   4.859   6.808  0.8250 -1.0466 -1.2868
  131OSM    H4G14160   5.158   4.993   6.859 -0.8053 -0.3968 -0.6213
  131OSM    C5F14161   5.066   4.874   7.017  0.7747 -0.1342 -0.1258
  131OSM    H5F14162   5.017   4.774   7.021 -0.2688  0.3079 -1.1392
  131OSM    H5G14163   4.996   4.959   7.025  1.0022  0.0157  0.2643
  131OSM    C6F14164   5.165   4.894   7.135  0.0527 -0.0471  0.0807
  131OSM    H6F14165   5.219   4.984   7.097  0.5872 -1.0800 -1.7223
  131OSM    H6G14166   5.235   4.808   7.142  0.6469  0.0940 -2.7741
  131OSM    C7F14167   5.098   4.921   7.265 -0.2160  0.8006 -0.1283
  131OSM    H7F14168   5.032   4.837   7.294  1.0727  0.5130  2.2170
  131OSM    H7G14169   5.012   4.991   7.255 -2.5901 -1.9451 -0.0773
  131OSM    C8F14170   5.194   4.963   7.376  0.5949  0.0565  0.0852
  131OSM    H8F14171   5.124   4.992   7.457 -1.6066  1.6432 -2.2280
  131OSM    H8G14172   5.239   5.059   7.343  0.0828  1.2681  2.6533
  131OSM    C9F14173   5.288   4.855   7.420  0.6389  0.4760  1.0267
  131OSM    H9F14174   5.338   4.808   7.334 -0.3818  2.5997 -0.8369
  131OSM   C10F14175   5.303   4.800   7.538  0.3052  0.1818  0.4479
  131OSM   H10F14176   5.390   4.734   7.549  1.6427  1.5862 -1.0018
  131OSM   C11F14177   5.231   4.842   7.661  0.1082 -0.4737 -0.3617
  131OSM   H11F14178   5.124   4.812   7.657 -1.1123  3.3141 -0.3322
  131OSM   H11G14179   5.237   4.951   7.685  3.7028 -0.7839  0.6625
  131OSM   C12F14180   5.299   4.793   7.791  0.4346  0.3425 -0.4542
  131OSM   H12F14181   5.406   4.821   7.803  0.8909 -1.7501  0.9653
  131OSM   H12G14182   5.311   4.683   7.792  0.7588  0.3552 -1.4906
  131OSM   C13F14183   5.224   4.841   7.918 -0.2274 -0.3377  0.7642
  131OSM   H13F14184   5.115   4.831   7.901 -0.6395 -2.6459  3.8938
  131OSM   H13G14185   5.254   4.945   7.942  2.1000 -0.8731  0.4453
  131OSM   C14F14186   5.254   4.760   8.040  0.0689 -0.5724 -0.7531
  131OSM   H14F14187   5.363   4.751   8.060 -0.3503 -2.4761  1.0674
  131OSM   H14G14188   5.226   4.653   8.027  0.0766 -0.8521  1.2275
  131OSM   C15F14189   5.185   4.819   8.164  0.0246 -0.8562 -0.2826
  131OSM   H15F14190   5.077   4.792   8.170  0.0186 -0.5031  1.9866
  131OSM   H15G14191   5.177   4.930   8.167 -0.6822 -0.9151  1.7716
  131OSM   C16F14192   5.227   4.771   8.303 -0.3472 -0.3625 -1.1654
  131OSM   H16F14193   5.238   4.661   8.295 -1.8685 -0.4674 -2.1799
  131OSM   H16G14194   5.136   4.784   8.365 -0.2924  0.6060 -1.2601
  131OSM   C17F14195   5.336   4.853   8.366  0.1315  0.2252 -0.4068
  131OSM   H17F14196   5.328   4.964   8.365  1.5766  0.3491 -0.3449
  131OSM   H17G14197   5.425   4.826   8.305 -0.0246 -1.8921  0.2332
  131OSM   C18F14198   5.367   4.812   8.507  0.2154  0.8481  0.6440
  131OSM   H18F14199   5.392   4.704   8.512 -1.9238  0.3520  1.4091
  131OSM   H18G14200   5.269   4.828   8.556 -0.4913  0.0174 -0.4656
  131OSM   H18H14201   5.449   4.864   8.561  1.5235 -1.0441  0.5772
  132OSM      N14202   2.075   5.506   6.193 -0.0640 -0.4677 -0.8311
  132OSM    C1514203   1.964   5.444   6.124  0.3978 -0.7097  0.2082
  132OSM   H15A14204   1.969   5.337   6.137 -2.2552 -1.0266 -0.7606
  132OSM   H15B14205   1.960   5.470   6.020  0.2945  0.2210  0.4359
  132OSM   H15C14206   1.867   5.464   6.166 -0.2600 -0.7899 -1.2126
  132OSM    C1414207   2.207   5.450   6.142  0.0408 -0.5897 -0.5130
  132OSM   H14A14208   2.208   5.483   6.040 -0.5901  0.9981 -0.0384
  132OSM   H14B14209   2.208   5.345   6.167  0.6015  0.1014  2.9823
  132OSM   H14C14210   2.288   5.498   6.196 -0.9802  1.2319 -0.5470
  132OSM    C1314211   2.081   5.660   6.173  0.1870 -0.0113  1.1479
  132OSM   H13A14212   1.986   5.702   6.204 -0.1389  0.2080 -0.0898
  132OSM   H13B14213   2.086   5.689   6.069  0.3993  1.7015  1.6171
  132OSM   H13C14214   2.166   5.706   6.221 -0.5110  0.9366  1.5050
  132OSM    C1214215   2.066   5.479   6.344  0.6445  0.0171 -0.7363
  132OSM   H12A14216   2.167   5.480   6.381  0.5391  2.1005 -0.3731
  132OSM   H12B14217   2.027   5.379   6.357 -1.5007  0.6279 -1.9376
  132OSM    C1114218   1.977   5.573   6.432  0.1407  0.2600 -0.4450
  132OSM   H11A14219   2.006   5.680   6.417  0.5626  0.6294  2.4308
  132OSM   H11B14220   1.993   5.549   6.539 -0.3172  1.5425 -0.0661
  132OSM      P14221   1.759   5.429   6.441  0.0538  0.0711 -0.1380
  132OSM    O1314222   1.626   5.446   6.384 -0.0264 -0.4161  0.3661
  132OSM    O1414223   1.841   5.317   6.389  0.0663  0.0739 -0.1250
  132OSM    O1114224   1.745   5.427   6.594  0.6052 -0.3746  0.1447
  132OSM    O1214225   1.830   5.563   6.404 -0.5113  0.0872  0.5201
  132OSM    C1S14226   1.727   5.541   6.677 -0.8668 -0.8057 -0.6574
  132OSM    H1S14227   1.618   5.564   6.679 -0.6454  0.3899  1.7199
  132OSM    H1T14228   1.780   5.630   6.637  0.8600 -1.4955  0.0152
  132OSM     NF14229   1.737   5.634   6.910  0.0716 -0.5336 -0.0831
  132OSM    HNF14230   1.808   5.702   6.925  0.3601 -0.7268 -0.5376
  132OSM    C2S14231   1.768   5.522   6.828 -0.4853  0.2072 -0.0816
  132OSM    H2S14232   1.719   5.428   6.859  2.6546 -0.9609  1.8360
  132OSM    C3S14233   1.927   5.504   6.828  0.1191 -0.2633 -0.4962
  132OSM    H3S14234   1.955   5.605   6.792 -1.2501  1.1100  1.9873
  132OSM     O314235   1.990   5.396   6.758 -0.3641 -0.0058 -0.5138
  132OSM    HO314236   1.912   5.381   6.704 -0.7491  0.0975  0.0061
  132OSM    C4S14237   1.977   5.492   6.965  0.2968  0.2043 -0.4042
  132OSM    H4S14238   1.933   5.411   7.025  0.0534  0.7721  0.2046
  132OSM    C5S14239   2.064   5.582   7.025 -0.1540  0.9931 -0.0119
  132OSM    H5S14240   2.111   5.663   6.967 -0.3595  0.2716 -1.2262
  132OSM    C6S14241   2.114   5.572   7.162 -0.2463 -0.4727  0.0957
  132OSM    H6S14242   2.066   5.659   7.212  0.0149  0.1797 -0.7758
  132OSM    H6T14243   2.217   5.613   7.157 -1.4031  2.9390  1.2545
  132OSM    C7S14244   2.104   5.441   7.247 -0.6392 -0.0614  0.2295
  132OSM    H7S14245   2.148   5.354   7.195 -0.4229 -0.5668  1.2359
  132OSM    H7T14246   1.997   5.418   7.264 -1.4499  3.6758  1.0931
  132OSM    C8S14247   2.166   5.462   7.379 -0.2718  0.1365 -0.8851
  132OSM    H8S14248   2.137   5.567   7.400 -0.1029  0.4396 -2.0638
  132OSM    H8T14249   2.276   5.456   7.362 -0.3793 -0.0427 -1.5639
  132OSM    C9S14250   2.124   5.371   7.498  0.3231 -0.0895  0.0683
  132OSM    H9S14251   2.140   5.264   7.470 -1.7359 -0.6181  0.7926
  132OSM    H9T14252   2.016   5.371   7.520  0.3661 -1.3549  0.3602
  132OSM   C10S14253   2.208   5.395   7.615  0.4486 -0.3793  0.2378
  132OSM   H10S14254   2.193   5.499   7.649  1.3213  0.2155 -1.0967
  132OSM   H10T14255   2.316   5.389   7.588  1.2189  2.3385  2.2652
  132OSM   C11S14256   2.187   5.303   7.735  0.4446  0.8521  0.3081
  132OSM   H11S14257   2.213   5.200   7.700  0.0799  1.3785 -1.6739
  132OSM   H11T14258   2.080   5.288   7.759 -0.0456  1.2149 -1.4630
  132OSM   C12S14259   2.270   5.338   7.855 -0.5229 -0.5591 -0.0738
  132OSM   H12S14260   2.270   5.448   7.870 -0.1953 -0.7719  1.7627
  132OSM   H12T14261   2.378   5.318   7.834  0.2976  4.0052 -1.1636
  132OSM   C13S14262   2.229   5.268   7.990 -0.1007 -0.3371 -0.2749
  132OSM   H13S14263   2.244   5.158   7.993 -0.1343 -0.3862 -1.4413
  132OSM   H13T14264   2.121   5.288   8.007 -1.1745 -2.3960 -3.5784
  132OSM   C14S14265   2.309   5.332   8.105  0.1779 -0.4500 -0.3140
  132OSM   H14S14266   2.285   5.440   8.114 -1.2338 -0.8856  1.9986
  132OSM   H14T14267   2.415   5.322   8.074 -0.4988  2.0681 -4.0896
  132OSM   C15S14268   2.263   5.265   8.236  0.3472  0.3979 -0.6361
  132OSM   H15S14269   2.272   5.155   8.223 -3.4613 -0.1459  0.1422
  132OSM   H15T14270   2.155   5.289   8.244  0.5703  0.7926  3.0971
  132OSM   C16S14271   2.325   5.322   8.369  0.0082  0.7605  0.3202
  132OSM   H16S14272   2.300   5.430   8.377  1.3411  0.9773  2.3357
  132OSM   H16T14273   2.436   5.323   8.380  0.0160  1.6804  0.2774
  132OSM   C17S14274   2.262   5.259   8.503 -0.1041 -0.3434  0.3812
  132OSM   H17S14275   2.295   5.154   8.510  1.2920  0.1532  1.7564
  132OSM   H17T14276   2.153   5.280   8.511  0.3330  1.8197  1.5129
  132OSM   C18S14277   2.321   5.334   8.625  0.5486 -0.6853 -0.1399
  132OSM   H18S14278   2.235   5.386   8.673  0.2596 -1.5576  0.3112
  132OSM   H18T14279   2.387   5.415   8.586  1.7320 -1.8060 -0.5561
  132OSM   H18U14280   2.365   5.262   8.697 -0.3532 -0.6865  0.4189
  132OSM    C1F14281   1.613   5.652   6.947  0.0469 -0.5086  0.2390
  132OSM     OF14282   1.523   5.570   6.914 -0.4003  0.5107  0.2296
  132OSM    C2F14283   1.577   5.772   7.031  0.2187 -0.2749  0.7486
  132OSM    H2F14284   1.614   5.870   6.994 -4.4805  1.8263  0.9171
  132OSM    H2G14285   1.617   5.755   7.134 -0.5770  1.7891  1.4542
  132OSM    C3F14286   1.428   5.802   7.062  0.0389 -0.3787 -0.0315
  132OSM    H3F14287   1.388   5.713   7.116  1.5276 -0.4649  1.0093
  132OSM    H3G14288   1.369   5.823   6.971  1.8029  1.3970 -0.8518
  132OSM    C4F14289   1.396   5.921   7.160  0.0313  0.3161 -0.0218
  132OSM    H4F14290   1.298   5.957   7.124  0.0976 -0.3300 -0.8706
  132OSM    H4G14291   1.475   5.999   7.149  0.6385 -0.2816 -0.0080
  132OSM    C5F14292   1.380   5.877   7.306  0.1797  0.2208 -0.7006
  132OSM    H5F14293   1.476   5.831   7.338  0.1074 -0.5816 -1.6000
  132OSM    H5G14294   1.312   5.789   7.305  2.5551 -1.7238 -0.3258
  132OSM    C6F14295   1.338   5.988   7.403  0.1561 -0.0946 -0.0155
  132OSM    H6F14296   1.245   6.041   7.372 -0.5758 -0.1436  1.9609
  132OSM    H6G14297   1.425   6.057   7.399  2.0082 -2.2984  0.2126
  132OSM    C7F14298   1.317   5.929   7.543  0.3465 -0.7060 -0.3948
  132OSM    H7F14299   1.322   6.015   7.613 -3.1180  0.3088 -1.2131
  132OSM    H7G14300   1.402   5.860   7.567  0.0460 -0.2847  2.1757
  132OSM    C8F14301   1.190   5.858   7.580 -0.6462 -0.4809  0.3413
  132OSM    H8F14302   1.199   5.828   7.687  0.2574  2.3985  1.1600
  132OSM    H8G14303   1.179   5.762   7.524 -0.7428  0.3990 -1.2039
  132OSM    C9F14304   1.062   5.929   7.558  0.1816 -0.3855 -0.0226
  132OSM    H9F14305   1.040   5.944   7.451  0.6081  1.9868  0.1668
  132OSM   C10F14306   0.968   5.953   7.655 -0.1962  0.8095  0.4087
  132OSM   H10F14307   0.864   5.978   7.629 -0.0442  1.9129  0.8189
  132OSM   C11F14308   0.979   5.922   7.800  0.2023  0.1823  0.5789
  132OSM   H11F14309   1.058   5.851   7.830 -2.1599 -2.2652  1.3221
  132OSM   H11G14310   0.883   5.871   7.823 -0.5524  1.5136  0.5190
  132OSM   C12F14311   0.989   6.039   7.897 -0.4976  0.0935  0.4664
  132OSM   H12F14312   0.976   6.011   8.004  0.5240  2.3594  1.2490
  132OSM   H12G14313   0.914   6.114   7.866 -0.8121 -0.1998  0.5146
  132OSM   C13F14314   1.121   6.123   7.895  0.4490 -1.0865  0.4720
  132OSM   H13F14315   1.101   6.211   7.960  3.0794  0.4490 -0.6071
  132OSM   H13G14316   1.145   6.142   7.788 -0.2600  2.3778  0.7837
  132OSM   C14F14317   1.254   6.053   7.937  0.0498 -0.0651  0.2499
  132OSM   H14F14318   1.330   6.133   7.927  0.5610 -0.1900  2.6362
  132OSM   H14G14319   1.284   5.966   7.876  0.1541  0.2607 -0.1666
  132OSM   C15F14320   1.247   5.998   8.084 -0.5736  0.4221 -0.0408
  132OSM   H15F14321   1.327   5.920   8.080 -2.0446 -1.1445 -3.8412
  132OSM   H15G14322   1.147   5.953   8.099 -1.4670  1.5834 -2.0766
  132OSM   C16F14323   1.278   6.114   8.190 -0.3985 -0.0538  0.0883
  132OSM   H16F14324   1.206   6.194   8.163 -0.7154  0.2256  1.6296
  132OSM   H16G14325   1.380   6.156   8.177  0.8492 -2.5564  1.0445
  132OSM   C17F14326   1.252   6.069   8.330  0.3447 -1.1825 -0.0884
  132OSM   H17F14327   1.319   5.981   8.339  0.6826 -0.7852  1.8106
  132OSM   H17G14328   1.148   6.039   8.355 -0.9988  3.2991  0.5207
  132OSM   C18F14329   1.292   6.183   8.423  0.2919 -0.0725 -0.2884
  132OSM   H18F14330   1.276   6.142   8.526  2.4617 -1.4528 -0.4355
  132OSM   H18G14331   1.227   6.270   8.399 -0.4567 -0.6118 -0.2442
  132OSM   H18H14332   1.399   6.209   8.408 -0.7746  4.4580 -1.7261
  133OSM      N14333   1.827   4.596   6.367  0.1881 -0.5427 -0.3891
  133OSM    C1514334   1.828   4.568   6.516 -0.1153 -0.4240 -0.3429
  133OSM   H15A14335   1.811   4.657   6.575 -0.6697 -0.4161 -0.5098
  133OSM   H15B14336   1.922   4.521   6.542  0.3927  0.4646 -0.5247
  133OSM   H15C14337   1.755   4.493   6.542  0.4144 -0.6163  0.6496
  133OSM    C1414338   1.924   4.507   6.300  0.1702  0.3514 -0.4231
  133OSM   H14A14339   1.906   4.404   6.326 -1.4386  1.0412  1.4483
  133OSM   H14B14340   2.026   4.534   6.322 -0.4827  2.0802  0.7460
  133OSM   H14C14341   1.908   4.521   6.195  0.3762  1.5488 -0.3086
  133OSM    C1314342   1.693   4.577   6.306 -0.2143 -0.4306  0.6560
  133OSM   H13A14343   1.661   4.474   6.293  1.3625 -0.6743 -1.9695
  133OSM   H13B14344   1.701   4.627   6.210  1.4019 -0.3401  0.8211
  133OSM   H13C14345   1.627   4.644   6.360  2.6924  4.9280 -1.6499
  133OSM    C1214346   1.865   4.737   6.346 -0.6074 -0.2209 -0.2162
  133OSM   H12A14347   1.863   4.752   6.240 -0.0381 -0.7267 -0.3024
  133OSM   H12B14348   1.971   4.740   6.367 -0.7017 -2.7160  0.9944
  133OSM    C1114349   1.804   4.859   6.421  0.0910 -0.4207 -0.2921
  133OSM   H11A14350   1.866   4.951   6.415  0.8230 -0.8328  0.6204
  133OSM   H11B14351   1.805   4.839   6.531 -0.6871 -0.2205 -0.2419
  133OSM      P14352   1.556   4.915   6.470  0.0118 -0.4820  0.2040
  133OSM    O1314353   1.451   5.002   6.408 -0.5410 -0.1057  0.3549
  133OSM    O1414354   1.510   4.781   6.516  0.3618  0.3508  0.2458
  133OSM    O1114355   1.625   4.996   6.588 -0.4858  0.2229 -0.0399
  133OSM    O1214356   1.672   4.890   6.368 -0.2205 -0.1200 -0.0608
  133OSM    C1S14357   1.546   5.062   6.682  0.7508 -0.0270 -0.7931
  133OSM    H1S14358   1.442   5.023   6.678  1.0261 -0.7296 -1.2632
  133OSM    H1T14359   1.539   5.171   6.660 -2.0931  0.3460  1.3575
  133OSM     NF14360   1.518   5.084   6.930 -0.3329  0.0016 -0.0894
  133OSM    HNF14361   1.532   5.172   6.974  0.2508  1.5637 -3.1215
  133OSM    C2S14362   1.610   5.050   6.825 -0.2458  0.0243 -0.8962
  133OSM    H2S14363   1.636   4.942   6.834  0.8217 -0.1417 -4.5477
  133OSM    C3S14364   1.746   5.130   6.823 -0.0089  0.2112  0.1024
  133OSM    H3S14365   1.717   5.236   6.812  0.5500  0.4372  0.7054
  133OSM     O314366   1.838   5.109   6.718  0.5629 -0.5347 -0.9532
  133OSM    HO314367   1.784   5.058   6.657 -0.4317 -1.2049  0.4338
  133OSM    C4S14368   1.819   5.121   6.956  0.8380  0.3434  0.3328
  133OSM    H4S14369   1.783   5.207   7.015 -1.2128 -0.9572  1.0732
  133OSM    C5S14370   1.918   5.040   7.000  0.9562 -0.1033 -0.0488
  133OSM    H5S14371   1.948   4.951   6.943 -0.3901 -0.6167  0.0057
  133OSM    C6S14372   1.983   5.044   7.132  0.4453  0.3651 -0.1633
  133OSM    H6S14373   2.035   5.140   7.152 -0.4407  0.6829  0.6495
  133OSM    H6T14374   2.055   4.960   7.148  1.6433  1.1913 -1.0806
  133OSM    C7S14375   1.880   5.032   7.243  0.3634 -0.1889  0.1692
  133OSM    H7S14376   1.838   4.929   7.240  0.0406 -0.0511 -0.0910
  133OSM    H7T14377   1.791   5.094   7.223  0.2557 -0.1244  0.8162
  133OSM    C8S14378   1.929   5.049   7.390 -0.4993 -0.2496 -0.1042
  133OSM    H8S14379   1.960   5.156   7.390 -1.6811  0.1328 -1.3302
  133OSM    H8T14380   2.017   4.992   7.426 -0.5060 -0.2854 -0.1446
  133OSM    C9S14381   1.815   5.036   7.502 -0.3255  0.4528 -0.2826
  133OSM    H9S14382   1.775   4.933   7.503  2.0490 -0.5264 -0.4553
  133OSM    H9T14383   1.733   5.107   7.475  0.3817  1.7133  0.7543
  133OSM   C10S14384   1.864   5.084   7.640 -1.1573 -0.3095 -0.1432
  133OSM   H10S14385   1.899   5.187   7.624  1.6113 -0.7663  2.1490
  133OSM   H10T14386   1.943   5.016   7.678 -0.6409  0.2895 -0.1449
  133OSM   C11S14387   1.763   5.083   7.753  0.5732 -0.2116 -0.0908
  133OSM   H11S14388   1.728   4.979   7.771 -1.5838  0.7169  1.5144
  133OSM   H11T14389   1.672   5.140   7.724  0.7629  0.4915  0.6458
  133OSM   C12S14390   1.816   5.143   7.885  0.5834 -0.1265  0.1745
  133OSM   H12S14391   1.849   5.248   7.866  2.4164 -0.5346  0.8229
  133OSM   H12T14392   1.913   5.099   7.916  0.0353 -0.2119  1.8450
  133OSM   C13S14393   1.706   5.134   7.996 -0.5029 -0.1015  0.5260
  133OSM   H13S14394   1.680   5.028   8.014 -1.9934  0.5186  2.2902
  133OSM   H13T14395   1.618   5.196   7.971  0.4106  0.2217 -2.1780
  133OSM   C14S14396   1.771   5.159   8.133  0.2348 -0.2668  0.1439
  133OSM   H14S14397   1.695   5.188   8.209  0.0101  0.6361 -0.4100
  133OSM   H14T14398   1.817   5.258   8.113 -1.9940  1.2847  2.0715
  133OSM   C15S14399   1.868   5.054   8.182 -0.1305 -0.3536 -0.1056
  133OSM   H15S14400   1.961   5.070   8.124 -1.5642 -0.4316 -2.5471
  133OSM   H15T14401   1.831   4.955   8.150  1.5001  0.1780 -4.1939
  133OSM   C16S14402   1.882   5.070   8.335 -0.4088 -0.1100 -0.1821
  133OSM   H16S14403   1.794   5.027   8.386 -0.9839  1.3650  0.1080
  133OSM   H16T14404   1.890   5.180   8.351 -0.0943 -0.0372 -0.7785
  133OSM   C17S14405   2.009   5.008   8.378  0.2874  0.6153 -0.2980
  133OSM   H17S14406   2.091   5.073   8.339  1.1245 -0.9353 -1.2123
  133OSM   H17T14407   2.027   4.907   8.334  0.3824  0.4855  0.0395
  133OSM   C18S14408   2.012   4.989   8.525  0.4437  0.1014  0.7691
  133OSM   H18S14409   1.913   4.962   8.568  0.1436  0.8872  0.5825
  133OSM   H18T14410   2.046   5.085   8.568  2.8329  0.4361 -1.6047
  133OSM   H18U14411   2.069   4.897   8.550 -1.3513 -1.1110  0.6215
  133OSM    C1F14412   1.408   5.001   6.958 -0.0238 -0.6731  0.8924
  133OSM     OF14413   1.402   4.890   6.911  0.1391  0.0409  0.6685
  133OSM    C2F14414   1.299   5.066   7.044 -0.4902  0.2462  0.7127
  133OSM    H2F14415   1.212   5.079   6.976  0.5208 -0.4506 -0.7570
  133OSM    H2G14416   1.329   5.167   7.079  0.9897  0.6984 -1.6539
  133OSM    C3F14417   1.254   4.972   7.159  0.9633  0.4184  0.3384
  133OSM    H3F14418   1.242   4.866   7.127 -0.4124  0.2899  1.1587
  133OSM    H3G14419   1.150   5.009   7.175  1.1282  0.9486  0.1892
  133OSM    C4F14420   1.340   4.979   7.283 -0.1592 -0.2981  1.1205
  133OSM    H4F14421   1.359   5.083   7.317 -0.5564  0.4969 -0.9588
  133OSM    H4G14422   1.434   4.932   7.248 -0.9407 -0.1111 -1.4170
  133OSM    C5F14423   1.287   4.908   7.410  0.0159  0.1311  0.3388
  133OSM    H5F14424   1.264   4.802   7.386  1.2118 -0.3544  1.2280
  133OSM    H5G14425   1.190   4.957   7.436 -0.5761 -2.0098  2.5151
  133OSM    C6F14426   1.374   4.924   7.537  0.5963  0.3447 -0.1210
  133OSM    H6F14427   1.375   5.032   7.564 -0.8714  0.6938 -1.3381
  133OSM    H6G14428   1.477   4.898   7.505  1.1990 -0.9211  2.5267
  133OSM    C7F14429   1.329   4.835   7.653 -0.3065  0.1014  0.1817
  133OSM    H7F14430   1.328   4.727   7.626 -3.8608 -0.3867  1.7230
  133OSM    H7G14431   1.221   4.850   7.673 -0.3139 -1.3508  1.5327
  133OSM    C8F14432   1.406   4.872   7.778  0.0504 -0.2341 -0.6509
  133OSM    H8F14433   1.380   4.977   7.803  0.3573 -0.0622 -1.0576
  133OSM    H8G14434   1.515   4.873   7.756 -0.5404  0.7809 -4.0089
  133OSM    C9F14435   1.393   4.775   7.897  0.5576 -0.4270  0.7909
  133OSM    H9F14436   1.398   4.670   7.866  1.9046 -0.0524 -0.3665
  133OSM   C10F14437   1.350   4.802   8.018 -0.3073 -0.0208 -0.1957
  133OSM   H10F14438   1.336   4.723   8.093 -0.4530 -0.1918 -0.4014
  133OSM   C11F14439   1.314   4.935   8.080 -0.2866  0.0895 -0.0216
  133OSM   H11F14440   1.227   4.916   8.145 -0.6748 -3.1284 -1.3249
  133OSM   H11G14441   1.295   5.020   8.010 -1.6051 -0.4856 -0.3894
  133OSM   C12F14442   1.418   4.977   8.187 -0.4615  0.0753 -0.6677
  133OSM   H12F14443   1.518   4.980   8.138 -1.0465  2.3753 -1.8510
  133OSM   H12G14444   1.432   4.904   8.270 -0.9270  2.4537  1.6200
  133OSM   C13F14445   1.381   5.111   8.254  0.0989  0.5741  0.6492
  133OSM   H13F14446   1.327   5.174   8.181 -0.2391 -1.0126 -0.5296
  133OSM   H13G14447   1.472   5.162   8.291  0.8672 -0.4488  0.2259
  133OSM   C14F14448   1.290   5.092   8.381 -0.2281  0.5597 -0.5771
  133OSM   H14F14449   1.222   5.012   8.345  1.2800 -1.4463  0.7952
  133OSM   H14G14450   1.231   5.185   8.394 -0.2912  0.2605  1.9452
  133OSM   C15F14451   1.368   5.060   8.512 -0.3781  0.5507 -0.0265
  133OSM   H15F14452   1.444   5.140   8.526  1.0559 -0.4221 -1.7846
  133OSM   H15G14453   1.426   4.967   8.493 -1.0283 -0.0756  1.0140
  133OSM   C16F14454   1.278   5.053   8.636  0.0928  0.5337 -0.3029
  133OSM   H16F14455   1.199   5.130   8.639  0.6518  1.0842  0.5391
  133OSM   H16G14456   1.340   5.070   8.726 -0.1009 -0.0186 -0.0612
  133OSM   C17F14457   1.208   4.917   8.654 -0.0813  0.3513  0.8431
  133OSM   H17F14458   1.290   4.844   8.645 -0.4082  0.0809 -0.0261
  133OSM   H17G14459   1.145   4.901   8.563  4.2584  0.9260 -2.5724
  133OSM   C18F14460   1.141   4.899   8.790 -0.4272 -0.2245  0.2877
  133OSM   H18F14461   1.100   4.795   8.796  1.6065 -1.0758  0.3812
  133OSM   H18G14462   1.055   4.964   8.814 -0.2036 -0.1895  1.0168
  133OSM   H18H14463   1.213   4.915   8.873  0.5604  0.6440 -0.6965
  134OSM      N14464   2.963   1.354   6.580  0.2144  0.3547  0.1683
  134OSM    C1514465   2.820   1.336   6.547 -0.4231 -0.0441  0.3458
  134OSM   H15A14466   2.753   1.345   6.632  0.5341 -0.7595  1.1975
  134OSM   H15B14467   2.814   1.238   6.501  1.1606 -1.3817  2.7660
  134OSM   H15C14468   2.788   1.411   6.477  1.8718 -1.2442 -2.1353
  134OSM    C1414469   2.986   1.479   6.650  0.3470 -0.0986  0.5204
  134OSM   H14A14470   2.908   1.492   6.723  2.7616  1.6705  2.9772
  134OSM   H14B14471   2.980   1.560   6.579  0.0537 -1.4592 -1.0909
  134OSM   H14C14472   3.087   1.474   6.688 -0.1154 -1.5438  1.6656
  134OSM    C1314473   3.015   1.247   6.673  0.5036 -0.1289  0.2469
  134OSM   H13A14474   2.963   1.254   6.767  1.2688 -3.1528  0.9944
  134OSM   H13B14475   3.120   1.257   6.698 -0.2855  1.6402  3.3103
  134OSM   H13C14476   2.990   1.146   6.644 -0.8616  0.6043 -1.2695
  134OSM    C1214477   3.040   1.337   6.444 -0.3625 -0.4663 -0.5391
  134OSM   H12A14478   3.031   1.431   6.393 -2.3851 -1.4437 -2.1101
  134OSM   H12B14479   2.990   1.273   6.373 -1.1183  0.2568 -0.6704
  134OSM    C1114480   3.192   1.291   6.452 -0.1305 -0.3249 -0.1437
  134OSM   H11A14481   3.246   1.350   6.529 -1.5140 -0.5048  0.9966
  134OSM   H11B14482   3.232   1.313   6.350  1.1046 -2.0618 -0.0729
  134OSM      P14483   3.178   1.032   6.414  0.2023  0.1545  0.4162
  134OSM    O1314484   3.060   1.057   6.326  0.9702 -0.1403 -0.5928
  134OSM    O1414485   3.299   0.978   6.345 -0.1758 -0.4814 -0.4899
  134OSM    O1114486   3.135   0.929   6.533 -0.4943  0.2013  0.1651
  134OSM    O1214487   3.213   1.155   6.500 -0.2189 -0.3172  0.0234
  134OSM    C1S14488   3.217   0.913   6.649  0.3223 -0.0434  0.5029
  134OSM    H1S14489   3.312   0.971   6.652 -0.8554  1.9722  0.5228
  134OSM    H1T14490   3.247   0.806   6.653  2.2240  0.4954  2.7051
  134OSM     NF14491   3.247   0.902   6.890 -0.2081 -0.5602 -0.4976
  134OSM    HNF14492   3.232   0.818   6.941  2.2031 -0.8826 -0.1886
  134OSM    C2S14493   3.148   0.944   6.787 -0.0378  0.1447  0.1308
  134OSM    H2S14494   3.132   1.054   6.791 -1.7683 -0.0416 -0.7496
  134OSM    C3S14495   3.015   0.865   6.805  0.1124  0.1495 -0.6412
  134OSM    H3S14496   3.043   0.758   6.811  1.3434  0.4882  0.2814
  134OSM     O314497   2.925   0.874   6.694 -0.2453  0.4252 -0.2516
  134OSM    HO314498   2.976   0.892   6.615  0.2434  0.6693  0.1159
  134OSM    C4S14499   2.947   0.904   6.931  0.3631 -0.6346 -0.2997
  134OSM    H4S14500   2.951   0.818   7.000 -1.2128 -0.7499 -0.2967
  134OSM    C5S14501   2.872   1.018   6.955  0.1719  0.4997  0.4135
  134OSM    H5S14502   2.845   1.083   6.870 -0.5466 -0.4355 -0.0890
  134OSM    C6S14503   2.801   1.055   7.087  0.0129 -0.3470  0.1198
  134OSM    H6S14504   2.691   1.040   7.082  0.2070 -1.9110  0.0468
  134OSM    H6T14505   2.814   1.164   7.105  1.4477 -0.3546 -0.6838
  134OSM    C7S14506   2.839   0.979   7.207  0.2228  0.4012  0.0034
  134OSM    H7S14507   2.950   0.973   7.213  0.1028 -2.5722  0.9370
  134OSM    H7T14508   2.794   0.881   7.179  1.8176  0.0714 -1.5795
  134OSM    C8S14509   2.779   1.028   7.337  0.2537  0.2299  0.4762
  134OSM    H8S14510   2.673   0.997   7.343  0.6790 -1.1896  1.1833
  134OSM    H8T14511   2.787   1.138   7.350 -3.5942  0.5835  0.8298
  134OSM    C9S14512   2.842   0.956   7.451  0.8772 -0.0450 -0.7032
  134OSM    H9S14513   2.951   0.978   7.455  0.4831  2.1330 -0.8234
  134OSM    H9T14514   2.838   0.846   7.463  1.3037  0.0446  0.3458
  134OSM   C10S14515   2.788   1.009   7.584 -0.3898  0.3818 -0.4393
  134OSM   H10S14516   2.677   1.001   7.579 -0.4282 -0.8314  1.3807
  134OSM   H10T14517   2.824   1.113   7.600  0.8689 -0.3049  1.5321
  134OSM   C11S14518   2.835   0.918   7.701 -0.2474  0.2343 -0.3661
  134OSM   H11S14519   2.944   0.936   7.710  0.0033 -0.6964 -1.3409
  134OSM   H11T14520   2.816   0.814   7.669 -0.3060 -0.1044  0.7453
  134OSM   C12S14521   2.758   0.957   7.834 -0.3122  0.4164  0.4987
  134OSM   H12S14522   2.650   0.942   7.814 -0.4233  2.9528 -1.3461
  134OSM   H12T14523   2.769   1.067   7.843  1.3625  0.5311 -1.9061
  134OSM   C13S14524   2.808   0.886   7.956 -0.0811 -0.1382  1.2466
  134OSM   H13S14525   2.917   0.903   7.968 -0.1579  1.2008  0.2471
  134OSM   H13T14526   2.788   0.780   7.930 -0.1672  0.1063  0.2933
  134OSM   C14S14527   2.728   0.936   8.076 -0.5266 -0.0618 -0.6889
  134OSM   H14S14528   2.621   0.908   8.071 -0.5464 -0.2466  0.5561
  134OSM   H14T14529   2.726   1.047   8.083  1.1008 -0.1240  2.8381
  134OSM   C15S14530   2.787   0.890   8.215  0.5888 -0.3675 -0.3392
  134OSM   H15S14531   2.886   0.938   8.231 -0.5519  1.1044  3.5314
  134OSM   H15T14532   2.795   0.781   8.200 -2.2921 -0.6379 -0.5812
  134OSM   C16S14533   2.702   0.946   8.332 -0.1636  0.3695  0.7756
  134OSM   H16S14534   2.599   0.905   8.327 -0.4668  0.8391  2.4029
  134OSM   H16T14535   2.696   1.056   8.315  0.7907  0.2599 -0.4409
  134OSM   C17S14536   2.768   0.919   8.468 -0.3825  0.2411  0.2233
  134OSM   H17S14537   2.878   0.927   8.455 -0.3557 -0.5144 -0.0660
  134OSM   H17T14538   2.741   0.814   8.494  0.9384 -0.0215  0.6122
  134OSM   C18S14539   2.740   1.018   8.581  0.0903  0.2613  0.1286
  134OSM   H18S14540   2.629   1.022   8.587  0.1309  0.4460  0.9048
  134OSM   H18T14541   2.776   1.122   8.562 -1.8737  0.8178 -0.8418
  134OSM   H18U14542   2.767   0.977   8.681 -1.2682  1.0248  0.8399
  134OSM    C1F14543   3.350   0.975   6.924 -0.0023  0.1746  0.2160
  134OSM     OF14544   3.365   1.095   6.889 -0.5036 -0.0947  0.0172
  134OSM    C2F14545   3.442   0.907   7.016  0.9706  0.4927 -0.8124
  134OSM    H2F14546   3.515   0.844   6.960  0.9018  1.3396 -1.8731
  134OSM    H2G14547   3.383   0.840   7.083  1.1793 -0.6016 -1.6851
  134OSM    C3F14548   3.520   1.009   7.097 -0.2899 -0.0502  0.3596
  134OSM    H3F14549   3.452   1.073   7.156 -0.0531 -0.0669  0.6503
  134OSM    H3G14550   3.570   1.089   7.038  0.8620  1.2586  2.9765
  134OSM    C4F14551   3.643   0.952   7.181  0.0927  0.5173 -0.1258
  134OSM    H4F14552   3.717   0.894   7.122 -2.3831 -2.5794 -0.4426
  134OSM    H4G14553   3.585   0.880   7.242  0.1225 -0.0995 -0.8114
  134OSM    C5F14554   3.699   1.061   7.279 -0.3291 -0.1405 -0.2241
  134OSM    H5F14555   3.704   1.151   7.213  1.9468  0.0530  0.1247
  134OSM    H5G14556   3.797   1.031   7.321 -1.3510 -0.9131  1.7193
  134OSM    C6F14557   3.599   1.097   7.392 -0.1849  0.4659 -0.3696
  134OSM    H6F14558   3.496   1.100   7.350 -0.2598 -2.3209 -0.5724
  134OSM    H6G14559   3.624   1.204   7.410  1.5479 -0.2027  1.5844
  134OSM    C7F14560   3.601   1.011   7.516  0.0921  0.8342  0.2394
  134OSM    H7F14561   3.563   0.909   7.494  1.2988  0.4673 -0.1673
  134OSM    H7G14562   3.523   1.053   7.584 -0.2348 -1.5019  1.4047
  134OSM    C8F14563   3.732   1.014   7.594 -0.2680  0.0346  0.0313
  134OSM    H8F14564   3.818   1.001   7.525  0.9460  1.5544  1.1699
  134OSM    H8G14565   3.747   0.934   7.670  1.5110  2.9652  3.0615
  134OSM    C9F14566   3.745   1.150   7.671  0.2667 -0.1840  0.2544
  134OSM    H9F14567   3.800   1.231   7.621  1.6835 -0.1314  1.8105
  134OSM   C10F14568   3.690   1.180   7.787  0.5569 -0.1285  0.0619
  134OSM   H10F14569   3.707   1.279   7.830  3.4329  0.1036 -1.3875
  134OSM   C11F14570   3.607   1.082   7.866  0.0740  0.0529 -0.4501
  134OSM   H11F14571   3.566   0.997   7.807 -1.3072  0.6460 -0.3861
  134OSM   H11G14572   3.533   1.130   7.934 -0.2354 -0.6805 -0.2600
  134OSM   C12F14573   3.705   1.019   7.968 -0.2473  0.0655 -0.4229
  134OSM   H12F14574   3.785   1.089   7.997 -0.7157  0.6297 -0.4848
  134OSM   H12G14575   3.749   0.931   7.916  0.5001  1.0680 -1.5304
  134OSM   C13F14576   3.627   0.965   8.097  0.1221  0.2688 -0.4535
  134OSM   H13F14577   3.538   0.907   8.063 -0.3471  1.4018 -1.2142
  134OSM   H13G14578   3.578   1.039   8.164 -0.9320 -1.9193  1.3363
  134OSM   C14F14579   3.732   0.891   8.178  0.1453  0.2619 -1.0509
  134OSM   H14F14580   3.823   0.950   8.203 -0.5706  0.7760  0.4524
  134OSM   H14G14581   3.766   0.800   8.123 -1.2505 -0.6913 -0.4063
  134OSM   C15F14582   3.682   0.844   8.320  0.5836  0.6366  0.2958
  134OSM   H15F14583   3.733   0.747   8.341  1.4777  0.6698 -1.5695
  134OSM   H15G14584   3.574   0.821   8.309  0.7141 -0.6379  1.3237
  134OSM   C16F14585   3.715   0.942   8.440  0.1838 -0.3155  0.4397
  134OSM   H16F14586   3.675   1.041   8.410 -0.1253 -0.9856 -1.4837
  134OSM   H16G14587   3.823   0.964   8.457  0.4108  0.0697 -1.3463
  134OSM   C17F14588   3.656   0.890   8.572 -0.2077 -0.1084 -0.2092
  134OSM   H17F14589   3.561   0.840   8.544  0.0364  0.3061 -1.8739
  134OSM   H17G14590   3.637   0.972   8.645  0.2944 -1.0443  1.0220
  134OSM   C18F14591   3.752   0.802   8.644  0.1550 -0.2899  0.0124
  134OSM   H18F14592   3.790   0.732   8.567 -1.6396 -0.8279 -0.4193
  134OSM   H18G14593   3.711   0.736   8.723 -0.2758 -0.7167 -0.5600
  134OSM   H18H14594   3.844   0.851   8.682  0.6889 -0.9107 -0.4653
  135OSM      N14595   2.145   1.394   6.226 -0.0947 -0.4629  0.3232
  135OSM    C1514596   2.225   1.266   6.182 -0.1520  0.2094 -0.5735
  135OSM   H15A14597   2.328   1.266   6.214 -0.7823 -1.4702  1.7815
  135OSM   H15B14598   2.213   1.249   6.077 -1.9185 -0.3567 -0.3191
  135OSM   H15C14599   2.177   1.186   6.236 -1.6277  0.5933 -1.2721
  135OSM    C1414600   2.174   1.501   6.127  0.4190  0.3724 -0.1001
  135OSM   H14A14601   2.271   1.545   6.144  2.2206 -3.0937 -0.4973
  135OSM   H14B14602   2.103   1.581   6.141 -0.9964 -0.8270 -0.1138
  135OSM   H14C14603   2.182   1.466   6.025  1.3248  0.2091  0.0208
  135OSM    C1314604   1.996   1.365   6.222  0.5062  0.4177 -0.2796
  135OSM   H13A14605   1.974   1.270   6.268 -0.5335  1.0360  0.5355
  135OSM   H13B14606   1.969   1.363   6.117 -0.0397  2.3559 -0.2123
  135OSM   H13C14607   1.941   1.442   6.275  1.5822  0.5227  0.7060
  135OSM    C1214608   2.188   1.439   6.368  0.5160  0.3788 -0.6008
  135OSM   H12A14609   2.137   1.529   6.399 -1.7172 -1.0693  0.1520
  135OSM   H12B14610   2.291   1.471   6.359  0.9945 -0.6290  0.8937
  135OSM    C1114611   2.182   1.338   6.484 -0.3499 -0.0350  0.0851
  135OSM   H11A14612   2.084   1.286   6.484  1.3445 -3.5840 -1.3332
  135OSM   H11B14613   2.195   1.386   6.584 -3.4815  1.7926 -0.2823
  135OSM      P14614   2.427   1.260   6.474  0.0031 -0.0600  0.3105
  135OSM    O1314615   2.494   1.128   6.504 -0.0916 -0.1301  0.7161
  135OSM    O1414616   2.484   1.337   6.364 -0.4703 -0.3344 -0.3280
  135OSM    O1114617   2.419   1.350   6.604 -0.5140  0.3731 -0.3629
  135OSM    O1214618   2.272   1.229   6.456  0.3162 -0.1560  0.0029
  135OSM    C1S14619   2.497   1.472   6.624  0.2454 -0.0054 -0.0447
  135OSM    H1S14620   2.429   1.547   6.578 -0.5849  0.2610  1.5511
  135OSM    H1T14621   2.587   1.471   6.559 -0.0604 -3.1628 -0.5596
  135OSM     NF14622   2.574   1.651   6.771  0.3305 -0.0840 -0.4508
  135OSM    HNF14623   2.672   1.665   6.784 -0.2383  1.4361  3.9184
  135OSM    C2S14624   2.524   1.513   6.772 -0.1310  0.1176  0.5554
  135OSM    H2S14625   2.421   1.513   6.814 -1.4744 -0.7771 -2.4837
  135OSM    C3S14626   2.621   1.411   6.842 -0.3042  0.4764 -0.2693
  135OSM    H3S14627   2.725   1.423   6.804 -0.7606  1.9533 -1.1190
  135OSM     O314628   2.600   1.274   6.807 -0.6177  0.6132  0.6011
  135OSM    HO314629   2.538   1.274   6.734 -0.2453  0.6785  0.2800
  135OSM    C4S14630   2.619   1.420   6.996  0.2254 -0.0565  0.0025
  135OSM    H4S14631   2.707   1.473   7.034  1.2107 -1.7276  0.1242
  135OSM    C5S14632   2.529   1.357   7.074  0.0493  0.1005  0.0889
  135OSM    H5S14633   2.450   1.312   7.013 -1.1271  1.4991  0.5111
  135OSM    C6S14634   2.516   1.355   7.219 -0.3510 -0.6943 -0.4345
  135OSM    H6S14635   2.480   1.256   7.254 -1.3094  0.5143  2.2367
  135OSM    H6T14636   2.428   1.415   7.250 -1.3872 -2.1664 -0.4023
  135OSM    C7S14637   2.641   1.389   7.304  0.0250  0.4636 -0.5709
  135OSM    H7S14638   2.690   1.476   7.255 -1.1030  1.2550 -0.3093
  135OSM    H7T14639   2.711   1.303   7.313 -0.7852  0.0119  2.2711
  135OSM    C8S14640   2.608   1.430   7.449 -0.1157  0.6916  0.3136
  135OSM    H8S14641   2.544   1.522   7.449  0.5399  1.2284 -1.9655
  135OSM    H8T14642   2.704   1.464   7.492  0.7342 -0.5686 -0.5496
  135OSM    C9S14643   2.547   1.313   7.523  0.1310 -0.4174  0.2980
  135OSM    H9S14644   2.615   1.227   7.543  0.6968 -0.2073 -0.6756
  135OSM    H9T14645   2.455   1.285   7.468  1.2328 -0.0004 -1.8879
  135OSM   C10S14646   2.524   1.360   7.667  0.6518 -0.0589 -0.6443
  135OSM   H10S14647   2.475   1.460   7.677 -1.6342 -1.0863 -0.7697
  135OSM   H10T14648   2.625   1.370   7.711  1.1605 -0.8419 -1.6146
  135OSM   C11S14649   2.436   1.265   7.754  0.9401  0.4873 -0.3744
  135OSM   H11S14650   2.473   1.161   7.744  0.1976  0.0615  1.0895
  135OSM   H11T14651   2.339   1.263   7.699  0.5303 -0.5089  0.3449
  135OSM   C12S14652   2.406   1.288   7.906 -0.6267  0.1773 -0.0648
  135OSM   H12S14653   2.328   1.223   7.949  0.6879 -0.7138  1.0538
  135OSM   H12T14654   2.386   1.397   7.912 -2.0574 -0.0986  0.5106
  135OSM   C13S14655   2.538   1.268   7.986 -0.0532  0.1177  1.2683
  135OSM   H13S14656   2.626   1.311   7.934 -0.2218  1.0172  1.6991
  135OSM   H13T14657   2.550   1.158   7.993  1.1443 -0.0044 -1.3949
  135OSM   C14S14658   2.536   1.322   8.125 -0.6498 -0.1225 -0.1792
  135OSM   H14S14659   2.508   1.429   8.133 -0.3557 -0.1312  1.2498
  135OSM   H14T14660   2.628   1.299   8.182 -2.6559 -4.7647  1.6392
  135OSM   C15S14661   2.425   1.259   8.212 -0.1118  0.5269  0.3823
  135OSM   H15S14662   2.429   1.150   8.191 -0.4040  0.5594  0.1447
  135OSM   H15T14663   2.324   1.295   8.183 -1.9474 -3.5580  0.9771
  135OSM   C16S14664   2.442   1.271   8.366 -0.0665  0.1014  0.6419
  135OSM   H16S14665   2.441   1.378   8.398 -1.8418  0.0664  0.7992
  135OSM   H16T14666   2.543   1.233   8.390  0.2164 -0.0261 -0.7003
  135OSM   C17S14667   2.338   1.200   8.457 -0.2412 -0.0143  0.7284
  135OSM   H17S14668   2.251   1.270   8.456 -0.5741 -0.3392 -2.5025
  135OSM   H17T14669   2.367   1.188   8.564 -2.5577 -2.1577  1.2194
  135OSM   C18S14670   2.287   1.064   8.405 -0.4506 -0.2061  0.2417
  135OSM   H18S14671   2.207   1.015   8.465  0.4733 -2.4828 -0.2698
  135OSM   H18T14672   2.377   1.000   8.399  0.1802  0.4485  1.9127
  135OSM   H18U14673   2.263   1.085   8.299  1.5150  0.6374 -0.0794
  135OSM    C1F14674   2.498   1.756   6.751 -0.3442 -0.3722  0.3624
  135OSM     OF14675   2.384   1.745   6.706  0.4797  0.0430 -0.1042
  135OSM    C2F14676   2.557   1.890   6.781  0.4323 -0.0336  0.3367
  135OSM    H2F14677   2.547   1.951   6.689 -1.3688 -0.0867  0.4507
  135OSM    H2G14678   2.665   1.874   6.802  0.4101 -0.8516 -0.1095
  135OSM    C3F14679   2.478   1.973   6.886 -0.1254  0.1721  0.9021
  135OSM    H3F14680   2.368   1.962   6.878 -0.3015  2.4633 -0.8163
  135OSM    H3G14681   2.489   2.082   6.865  0.2454 -0.3832 -2.3514
  135OSM    C4F14682   2.529   1.950   7.029  0.0918  0.1827 -0.0265
  135OSM    H4F14683   2.489   2.028   7.098  1.7024 -0.1059  1.3071
  135OSM    H4G14684   2.640   1.955   7.034  0.0817  1.5997 -0.5749
  135OSM    C5F14685   2.492   1.817   7.082  0.3530 -0.0838  0.9161
  135OSM    H5F14686   2.560   1.732   7.059 -0.6843 -0.7265  0.1207
  135OSM    H5G14687   2.396   1.779   7.041  0.2976  0.3452  0.6493
  135OSM    C6F14688   2.496   1.812   7.231 -0.3140 -0.4976 -0.2750
  135OSM    H6F14689   2.467   1.714   7.272  3.5170 -1.8248 -0.3099
  135OSM    H6G14690   2.421   1.889   7.258  0.5837  0.6185 -0.8567
  135OSM    C7F14691   2.625   1.849   7.301 -0.3289 -0.1160 -0.6396
  135OSM    H7F14692   2.681   1.939   7.270  1.3345 -1.0643 -0.5042
  135OSM    H7G14693   2.690   1.762   7.276  0.8202  0.3671  0.5660
  135OSM    C8F14694   2.599   1.866   7.451 -0.0452 -0.2912 -0.3442
  135OSM    H8F14695   2.514   1.804   7.486  0.7245 -4.4221 -4.8228
  135OSM    H8G14696   2.569   1.973   7.450  0.2866 -0.1972 -0.2701
  135OSM    C9F14697   2.716   1.860   7.549  0.4736 -0.0437 -0.1161
  135OSM    H9F14698   2.816   1.891   7.515  0.8002 -1.3508 -0.4009
  135OSM   C10F14699   2.706   1.812   7.676  0.2392  0.5176 -0.5882
  135OSM   H10F14700   2.802   1.814   7.730 -0.1812  0.4388  0.1825
  135OSM   C11F14701   2.581   1.779   7.759 -0.3435  1.0893  0.0839
  135OSM   H11F14702   2.500   1.743   7.692  0.3888 -0.7205  0.1109
  135OSM   H11G14703   2.533   1.872   7.797 -2.8410  0.0125 -0.2167
  135OSM   C12F14704   2.613   1.677   7.862 -0.2481  0.1140 -0.7795
  135OSM   H12F14705   2.643   1.581   7.816 -0.3488  0.6922 -2.0971
  135OSM   H12G14706   2.518   1.655   7.916 -0.0377 -0.1582 -0.5151
  135OSM   C13F14707   2.718   1.725   7.968  0.7027 -0.7236 -0.0417
  135OSM   H13F14708   2.699   1.830   7.999  0.0761 -1.1858  1.1933
  135OSM   H13G14709   2.814   1.724   7.911  0.5421  0.7942 -0.3835
  135OSM   C14F14710   2.744   1.625   8.079 -0.1909  0.6043 -0.7042
  135OSM   H14F14711   2.776   1.530   8.032 -0.0830  0.2299  0.1117
  135OSM   H14G14712   2.644   1.591   8.114  0.0966 -0.1613 -0.5990
  135OSM   C15F14713   2.847   1.671   8.184  0.1826  0.5970  0.1223
  135OSM   H15F14714   2.823   1.774   8.218  1.5238  0.8705  0.3129
  135OSM   H15G14715   2.942   1.687   8.128  0.7957 -0.9836  0.6492
  135OSM   C16F14716   2.887   1.591   8.314 -0.0781 -0.3146 -0.9402
  135OSM   H16F14717   2.955   1.657   8.373  0.7926 -3.4443  1.8682
  135OSM   H16G14718   2.950   1.502   8.296  0.8047  0.4804 -1.9112
  135OSM   C17F14719   2.771   1.543   8.407  0.0706 -0.0665 -0.2309
  135OSM   H17F14720   2.711   1.487   8.332 -0.6893  1.0310 -0.4763
  135OSM   H17G14721   2.704   1.626   8.437  0.5835  0.0282  0.6663
  135OSM   C18F14722   2.822   1.468   8.525  0.7608  0.3207 -0.3887
  135OSM   H18F14723   2.891   1.527   8.588  1.6583  0.0114 -1.0434
  135OSM   H18G14724   2.876   1.372   8.506 -0.8019 -0.4081 -1.4741
  135OSM   H18H14725   2.738   1.442   8.593 -0.6042  0.2104 -2.0470
  136OSM      N14726   6.381   2.497   6.066 -0.3752  0.4238 -0.2219
  136OSM    C1514727   6.338   2.431   5.932 -0.5410 -0.0684 -0.2360
  136OSM   H15A14728   6.425   2.436   5.868  1.2430 -2.1474  1.8557
  136OSM   H15B14729   6.259   2.490   5.889 -0.9619 -0.1360  0.4376
  136OSM   H15C14730   6.318   2.329   5.962  2.3712 -0.4462  0.8328
  136OSM    C1414731   6.510   2.450   6.131  0.0597 -0.1379  0.7338
  136OSM   H14A14732   6.519   2.343   6.128  1.4588 -0.0363 -2.1629
  136OSM   H14B14733   6.518   2.494   6.229  2.3214  0.1927  0.4579
  136OSM   H14C14734   6.590   2.493   6.072 -0.6785  0.2747  0.0122
  136OSM    C1314735   6.402   2.646   6.047  0.0746 -0.2652  0.3999
  136OSM   H13A14736   6.430   2.692   6.141 -2.4594  1.0431  0.6175
  136OSM   H13B14737   6.319   2.706   6.014  0.2025  1.3055  2.7095
  136OSM   H13C14738   6.480   2.671   5.977  3.3202  2.0807  4.3533
  136OSM    C1214739   6.259   2.485   6.159 -0.5435  0.5205 -0.3543
  136OSM   H12A14740   6.168   2.515   6.109  0.3563  1.5438 -1.4554
  136OSM   H12B14741   6.281   2.555   6.238  3.7913  0.5264 -1.3518
  136OSM    C1114742   6.236   2.341   6.215 -0.0425 -0.0583 -0.7376
  136OSM   H11A14743   6.173   2.329   6.305 -0.4809 -2.4459 -1.2825
  136OSM   H11B14744   6.336   2.301   6.244 -0.2634  0.4656  0.8317
  136OSM      P14745   6.035   2.267   6.073  0.2519  0.2436 -0.1774
  136OSM    O1314746   6.005   2.410   6.039 -0.1389 -0.0880  0.2021
  136OSM    O1414747   6.007   2.178   5.956 -0.2106  0.0510  0.3285
  136OSM    O1114748   5.953   2.217   6.200  0.2225 -0.4489  0.5407
  136OSM    O1214749   6.186   2.251   6.116  0.3167 -0.2844 -0.2225
  136OSM    C1S14750   5.960   2.077   6.239 -0.0062 -0.4032  0.8256
  136OSM    H1S14751   6.063   2.056   6.276  0.1377  1.4571  1.5877
  136OSM    H1T14752   5.943   2.021   6.145 -0.9097  2.0381 -0.5708
  136OSM     NF14753   5.873   1.930   6.432 -0.0559  0.3005  0.4797
  136OSM    HNF14754   5.814   1.850   6.424 -1.1311  1.1866 -0.9118
  136OSM    C2S14755   5.850   2.043   6.342 -0.4224 -0.0788 -0.5152
  136OSM    H2S14756   5.846   2.131   6.410  1.9971 -2.6710  3.3748
  136OSM    C3S14757   5.720   2.029   6.265 -0.1779 -0.1633  0.8170
  136OSM    H3S14758   5.731   1.939   6.200  1.8590  1.1623 -0.8050
  136OSM     O314759   5.688   2.146   6.181 -0.5540  0.5145  0.3491
  136OSM    HO314760   5.769   2.197   6.177  1.0392 -1.8390  0.5506
  136OSM    C4S14761   5.611   1.996   6.364  0.8515  0.1083 -0.1719
  136OSM    H4S14762   5.581   1.892   6.383  1.1271  0.1346  0.4129
  136OSM    C5S14763   5.556   2.086   6.449  0.5442  0.1458 -0.5892
  136OSM    H5S14764   5.594   2.190   6.444  0.9366 -0.0422 -2.1799
  136OSM    C6S14765   5.449   2.046   6.544 -0.1310 -0.6838 -0.7738
  136OSM    H6S14766   5.348   2.067   6.503 -0.9015  2.5309  2.3753
  136OSM    H6T14767   5.461   2.106   6.636  2.4430 -2.4447  0.1512
  136OSM    C7S14768   5.433   1.904   6.599 -0.0043 -0.1862  0.1116
  136OSM    H7S14769   5.414   1.831   6.517 -0.1177  1.2066 -1.1559
  136OSM    H7T14770   5.342   1.900   6.662  0.4259  0.8419  0.8226
  136OSM    C8S14771   5.556   1.869   6.681 -0.7282 -0.6327 -0.7372
  136OSM    H8S14772   5.634   1.947   6.678 -0.5664 -0.7988 -0.9166
  136OSM    H8T14773   5.601   1.782   6.627 -0.8503 -1.9798  1.2107
  136OSM    C9S14774   5.521   1.833   6.832 -0.4589  0.3851 -0.2367
  136OSM    H9S14775   5.447   1.751   6.833 -0.4805  0.4106  0.5724
  136OSM    H9T14776   5.478   1.927   6.872  0.3617  1.0358 -0.8581
  136OSM   C10S14777   5.641   1.785   6.912 -0.2230 -0.7295  0.1684
  136OSM   H10S14778   5.708   1.872   6.895  0.5072 -1.6987 -2.5367
  136OSM   H10T14779   5.682   1.702   6.850 -0.0872  1.4331 -2.8279
  136OSM   C11S14780   5.617   1.737   7.052  0.1672 -0.5416  0.9803
  136OSM   H11S14781   5.695   1.666   7.086 -0.8785 -1.2098  2.0875
  136OSM   H11T14782   5.531   1.667   7.043 -0.1653  0.0178 -0.3114
  136OSM   C12S14783   5.583   1.849   7.151  0.7736 -0.0256  0.6248
  136OSM   H12S14784   5.509   1.923   7.115 -0.3386 -1.3443  0.0942
  136OSM   H12T14785   5.661   1.916   7.193 -0.5900  1.4746  0.8678
  136OSM   C13S14786   5.523   1.789   7.280 -0.2019 -0.2501 -0.6372
  136OSM   H13S14787   5.603   1.733   7.332 -0.1087  0.9147  0.5145
  136OSM   H13T14788   5.428   1.734   7.263 -2.2710  2.3584  1.5918
  136OSM   C14S14789   5.482   1.903   7.387 -0.5254  0.4481  0.2100
  136OSM   H14S14790   5.411   1.959   7.322  1.6176  0.2439 -2.5228
  136OSM   H14T14791   5.570   1.969   7.405 -1.0171  1.8296 -1.9989
  136OSM   C15S14792   5.418   1.857   7.511  0.3535 -0.1215 -0.2589
  136OSM   H15S14793   5.479   1.773   7.550  0.0950 -0.3639 -0.3714
  136OSM   H15T14794   5.316   1.815   7.494  1.2965 -1.3871 -3.6176
  136OSM   C16S14795   5.408   1.973   7.610 -0.1042  0.0816  0.3778
  136OSM   H16S14796   5.509   2.018   7.619  0.6058 -0.4069 -3.5480
  136OSM   H16T14797   5.372   1.945   7.712  0.4920  1.8079  1.1060
  136OSM   C17S14798   5.322   2.091   7.557 -0.1090 -0.4087 -0.5140
  136OSM   H17S14799   5.258   2.048   7.478 -0.4302 -0.2190 -0.3576
  136OSM   H17T14800   5.380   2.182   7.530 -0.7626  0.0541 -0.3882
  136OSM   C18S14801   5.215   2.138   7.658 -0.2986 -0.0562 -0.4800
  136OSM   H18S14802   5.133   2.063   7.662 -1.1514  0.5288 -3.7330
  136OSM   H18T14803   5.171   2.236   7.629 -0.4829  0.6428  1.9141
  136OSM   H18U14804   5.245   2.150   7.764 -0.4641 -0.4804 -0.3834
  136OSM    C1F14805   5.969   1.943   6.524 -0.0619  0.2455  0.2184
  136OSM     OF14806   6.050   2.027   6.505 -1.0441 -0.3972 -0.3122
  136OSM    C2F14807   5.974   1.842   6.638 -0.7206 -0.6462  0.5164
  136OSM    H2F14808   6.058   1.777   6.605  0.8984  1.9333 -0.7751
  136OSM    H2G14809   5.875   1.791   6.642 -0.8240 -0.7102 -1.8478
  136OSM    C3F14810   6.000   1.917   6.777  0.0981 -0.3608 -0.0687
  136OSM    H3F14811   5.911   1.981   6.792  1.0102  1.4436 -1.8044
  136OSM    H3G14812   6.088   1.984   6.768 -0.6733  0.3862 -3.8353
  136OSM    C4F14813   6.018   1.823   6.889 -0.2613 -0.1374  0.2504
  136OSM    H4F14814   6.068   1.729   6.857  0.6873  0.3646  0.2245
  136OSM    H4G14815   5.918   1.788   6.923 -0.6555  0.5964 -0.1313
  136OSM    C5F14816   6.085   1.888   7.014  0.2062 -0.6762 -0.8402
  136OSM    H5F14817   6.052   1.987   7.053  1.3236 -0.5165 -0.2614
  136OSM    H5G14818   6.191   1.918   7.002  0.5169  0.5388  3.2688
  136OSM    C6F14819   6.095   1.791   7.131 -0.2375 -0.2304  0.4740
  136OSM    H6F14820   6.155   1.705   7.093 -1.5473 -0.6133 -0.8138
  136OSM    H6G14821   6.000   1.742   7.165 -1.0637  0.1882 -1.1624
  136OSM    C7F14822   6.178   1.849   7.253  0.2434  0.7568 -0.5795
  136OSM    H7F14823   6.264   1.899   7.204 -0.0600  1.9785  0.1063
  136OSM    H7G14824   6.218   1.765   7.314 -1.8007  1.3609  1.7620
  136OSM    C8F14825   6.097   1.939   7.343 -0.1716 -0.5136  0.3435
  136OSM    H8F14826   6.071   2.024   7.276  1.3660  0.2313  0.6380
  136OSM    H8G14827   6.165   1.989   7.416 -0.2689 -0.5022  0.4255
  136OSM    C9F14828   5.984   1.865   7.403 -0.6168 -0.1984 -0.2653
  136OSM    H9F14829   5.902   1.828   7.340  0.4502 -0.9785 -1.2278
  136OSM   C10F14830   5.984   1.836   7.536  0.2269  0.0148  0.2340
  136OSM   H10F14831   5.904   1.774   7.579 -0.3727 -0.5070 -1.5238
  136OSM   C11F14832   6.084   1.883   7.642 -0.1005  0.2933  0.1638
  136OSM   H11F14833   6.171   1.933   7.594  0.2093  0.5993  1.0142
  136OSM   H11G14834   6.126   1.800   7.703 -0.8720 -1.1478 -1.1842
  136OSM   C12F14835   6.025   1.988   7.741  0.2805 -0.1682  0.1703
  136OSM   H12F14836   5.959   1.952   7.823 -1.2208  2.2884  0.1483
  136OSM   H12G14837   5.983   2.078   7.692  0.1968 -0.3900 -0.1676
  136OSM   C13F14838   6.150   2.048   7.818  0.1485  0.3056 -0.8501
  136OSM   H13F14839   6.219   2.093   7.743 -0.6613  2.1501 -0.5395
  136OSM   H13G14840   6.208   1.964   7.862 -0.4869  0.9479  1.3120
  136OSM   C14F14841   6.112   2.164   7.921 -0.5426 -0.2190 -0.3567
  136OSM   H14F14842   6.022   2.134   7.979  0.2740  1.3504  1.8647
  136OSM   H14G14843   6.086   2.250   7.856  0.1973  0.8793  0.7513
  136OSM   C15F14844   6.224   2.217   8.017  0.7312  0.2899  1.7522
  136OSM   H15F14845   6.213   2.324   8.042  0.5784  0.2873  1.6995
  136OSM   H15G14846   6.312   2.213   7.951 -0.2816 -0.7388  0.4112
  136OSM   C16F14847   6.262   2.124   8.137 -0.2141  0.5477  0.1080
  136OSM   H16F14848   6.282   2.019   8.104 -0.5393  0.6704 -0.4960
  136OSM   H16G14849   6.176   2.110   8.205  0.6741 -1.4925  0.8918
  136OSM   C17F14850   6.381   2.178   8.217  0.0333 -0.7501  0.2484
  136OSM   H17F14851   6.354   2.276   8.262 -0.9988 -0.8618 -0.0926
  136OSM   H17G14852   6.460   2.184   8.139 -1.7494  0.4157 -1.5729
  136OSM   C18F14853   6.448   2.086   8.325  0.1473 -0.3075  0.0440
  136OSM   H18F14854   6.377   2.061   8.407 -1.0360  0.8953 -0.5937
  136OSM   H18G14855   6.521   2.150   8.379  2.3786 -0.5303 -2.5118
  136OSM   H18H14856   6.488   1.995   8.275  3.0013  0.3361  0.9202
  137OSM      N14857   4.624   0.306   6.574 -0.1129  0.3162  0.3624
  137OSM    C1514858   4.626   0.386   6.700  0.1254 -0.3829 -0.0810
  137OSM   H15A14859   4.525   0.374   6.738  0.4493 -1.5476  0.4683
  137OSM   H15B14860   4.653   0.487   6.675  1.6168 -0.1076  2.2978
  137OSM   H15C14861   4.696   0.349   6.774  0.9205  1.5214  0.1653
  137OSM    C1414862   4.767   0.281   6.538  0.2811  0.6985  0.5002
  137OSM   H14A14863   4.818   0.365   6.583 -0.3761  1.5383 -0.2806
  137OSM   H14B14864   4.773   0.285   6.431  0.0279  0.5241  0.4776
  137OSM   H14C14865   4.800   0.186   6.577  1.6871  1.7394  1.9693
  137OSM    C1314866   4.557   0.169   6.594  0.0684  0.4219  0.4911
  137OSM   H13A14867   4.571   0.102   6.510  1.8650  0.9306  0.3458
  137OSM   H13B14868   4.452   0.184   6.613 -0.4604 -2.2650  0.0862
  137OSM   H13C14869   4.607   0.125   6.679 -1.8490  0.5659  1.7462
  137OSM    C1214870   4.548   0.383   6.463 -0.3133 -0.2655 -0.5519
  137OSM   H12A14871   4.557   0.330   6.369  0.9950  0.6492 -0.9698
  137OSM   H12B14872   4.599   0.478   6.452  0.7489 -0.7233  0.2989
  137OSM    C1114873   4.391   0.416   6.475 -0.4395 -0.9994  0.0983
  137OSM   H11A14874   4.377   0.479   6.385  2.1107  0.2858  0.5224
  137OSM   H11B14875   4.386   0.479   6.566  0.6989 -0.2198 -0.3538
  137OSM      P14876   4.181   0.294   6.541  0.0799  0.0888  0.3678
  137OSM    O1314877   4.092   0.377   6.450 -0.3775  0.2724 -0.0353
  137OSM    O1414878   4.150   0.149   6.556  0.5114 -0.1891  0.3191
  137OSM    O1114879   4.197   0.367   6.678 -0.0311  0.2352 -0.2153
  137OSM    O1214880   4.320   0.298   6.480 -0.2768 -0.0948  0.8006
  137OSM    C1S14881   4.081   0.443   6.721 -0.0257 -0.1476  0.0251
  137OSM    H1S14882   3.988   0.390   6.692  0.7889 -1.3693 -0.4486
  137OSM    H1T14883   4.089   0.546   6.678  0.0737  0.5126  1.5652
  137OSM     NF14884   3.951   0.507   6.912  0.1379 -0.3652 -0.9172
  137OSM    HNF14885   3.943   0.606   6.925 -1.4039 -0.7064  1.3710
  137OSM    C2S14886   4.081   0.463   6.875  0.2376  0.2938  0.8477
  137OSM    H2S14887   4.093   0.360   6.914  1.7265  1.2859  3.2388
  137OSM    C3S14888   4.198   0.558   6.914  0.5263  0.2581  0.1182
  137OSM    H3S14889   4.195   0.655   6.859 -0.3193  0.2220  0.0867
  137OSM     O314890   4.316   0.492   6.883 -1.1227 -0.0660  0.3926
  137OSM    HO314891   4.282   0.416   6.836 -0.3100  0.4661 -1.1350
  137OSM    C4S14892   4.187   0.585   7.060  0.0467  0.6852  0.4663
  137OSM    H4S14893   4.239   0.517   7.129 -1.3527  0.1657  1.0470
  137OSM    C5S14894   4.144   0.705   7.104  0.0837  1.0682 -0.2341
  137OSM    H5S14895   4.112   0.771   7.022  0.9453  0.3609 -1.1706
  137OSM    C6S14896   4.145   0.753   7.252  0.7251 -0.9062  0.6349
  137OSM    H6S14897   4.041   0.792   7.266  0.2462 -1.7613 -0.3731
  137OSM    H6T14898   4.214   0.832   7.287 -1.1105  0.9465  0.2965
  137OSM    C7S14899   4.173   0.649   7.356 -0.8676  0.1981  1.1844
  137OSM    H7S14900   4.281   0.627   7.340 -1.3388 -1.2516 -0.2643
  137OSM    H7T14901   4.112   0.557   7.347 -2.4120  1.2937 -0.1848
  137OSM    C8S14902   4.166   0.697   7.501  0.1986 -0.0520 -0.6149
  137OSM    H8S14903   4.214   0.796   7.514  0.6511 -0.5474  1.9569
  137OSM    H8T14904   4.228   0.635   7.567  1.4269  0.3680 -1.3410
  137OSM    C9S14905   4.029   0.712   7.556  0.2130  0.0181 -0.6910
  137OSM    H9S14906   3.971   0.618   7.544  0.8270 -0.6224  1.0895
  137OSM    H9T14907   3.966   0.782   7.495 -0.9231 -0.4093 -0.0327
  137OSM   C10S14908   4.019   0.759   7.700 -0.0069 -0.5791 -0.4642
  137OSM   H10S14909   3.929   0.821   7.722  0.8112 -0.4350  3.0278
  137OSM   H10T14910   4.107   0.825   7.715  0.4393 -1.3929  0.5877
  137OSM   C11S14911   4.041   0.653   7.809  0.6715 -0.6162  1.0349
  137OSM   H11S14912   4.127   0.592   7.774  0.1355  0.0987 -1.8000
  137OSM   H11T14913   3.948   0.592   7.815 -0.5979  1.1296  0.0106
  137OSM   C12S14914   4.059   0.728   7.941  0.2888  0.1396 -0.7930
  137OSM   H12S14915   3.979   0.804   7.937  0.6360  0.7111  1.4612
  137OSM   H12T14916   4.166   0.757   7.944  1.0813 -2.5531  0.3885
  137OSM   C13S14917   4.052   0.634   8.063  0.7374  0.1363  0.3403
  137OSM   H13S14918   4.120   0.547   8.052 -0.8946 -1.0660 -0.5681
  137OSM   H13T14919   3.953   0.585   8.063  0.5456  0.5237  0.3463
  137OSM   C14S14920   4.082   0.710   8.188 -0.4843 -0.1525 -0.2496
  137OSM   H14S14921   4.018   0.800   8.201  2.0671  1.5862  1.1245
  137OSM   H14T14922   4.186   0.749   8.192 -0.1996 -0.9587  0.4801
  137OSM   C15S14923   4.064   0.619   8.313 -0.4385 -0.1672 -0.3459
  137OSM   H15S14924   4.144   0.542   8.310 -0.9185 -0.6571 -1.9905
  137OSM   H15T14925   3.962   0.576   8.326 -0.5560  0.9399  3.4971
  137OSM   C16S14926   4.085   0.700   8.443  0.0914  0.3184  0.0646
  137OSM   H16S14927   4.001   0.773   8.437 -0.6894 -0.5622  0.0842
  137OSM   H16T14928   4.178   0.761   8.436 -0.7170  1.6376  0.5916
  137OSM   C17S14929   4.086   0.617   8.565  0.5655  0.1842  0.3677
  137OSM   H17S14930   4.161   0.536   8.559  0.1867 -0.1809  0.4891
  137OSM   H17T14931   3.987   0.568   8.577  0.8307 -0.0548  1.7906
  137OSM   C18S14932   4.103   0.699   8.697 -0.8841  0.3226 -0.8929
  137OSM   H18S14933   4.022   0.776   8.696  0.1456  1.4440 -1.4665
  137OSM   H18T14934   4.202   0.746   8.711  0.0111 -1.8165  0.4531
  137OSM   H18U14935   4.083   0.629   8.781  1.5480  1.5349  0.7968
  137OSM    C1F14936   3.850   0.425   6.922  0.5440 -0.7869  0.2209
  137OSM     OF14937   3.857   0.303   6.918 -0.3750 -0.0090  0.6736
  137OSM    C2F14938   3.717   0.496   6.933 -0.2179 -0.5147 -0.1664
  137OSM    H2F14939   3.655   0.460   6.849 -0.3285 -0.0749 -0.2732
  137OSM    H2G14940   3.740   0.604   6.925 -0.2161 -0.3678  1.4617
  137OSM    C3F14941   3.634   0.466   7.053  0.2616  0.1368 -0.2604
  137OSM    H3F14942   3.646   0.356   7.061  1.0245  0.3121  1.2834
  137OSM    H3G14943   3.526   0.490   7.040  0.5645  1.2755 -0.8133
  137OSM    C4F14944   3.690   0.532   7.178  0.2415  0.3840  0.0137
  137OSM    H4F14945   3.653   0.637   7.185 -1.2697 -0.1108 -0.1160
  137OSM    H4G14946   3.800   0.537   7.168  0.3276 -2.7912 -1.8412
  137OSM    C5F14947   3.654   0.446   7.298 -0.1489  0.5934  0.1790
  137OSM    H5F14948   3.694   0.345   7.277 -1.3172  0.4330 -1.3810
  137OSM    H5G14949   3.544   0.458   7.310 -0.4159 -1.6689  0.3490
  137OSM    C6F14950   3.726   0.509   7.419 -0.1418 -0.7539 -0.0502
  137OSM    H6F14951   3.690   0.614   7.419 -2.2251 -1.4334  0.3814
  137OSM    H6G14952   3.831   0.514   7.384 -0.9621 -1.0045 -2.7046
  137OSM    C7F14953   3.716   0.428   7.551  0.0501 -0.1989  0.9018
  137OSM    H7F14954   3.806   0.458   7.609  0.4232  1.9721 -0.6685
  137OSM    H7G14955   3.722   0.321   7.522 -1.6751 -0.1183  0.0666
  137OSM    C8F14956   3.587   0.459   7.624  0.0806  0.4406  0.7276
  137OSM    H8F14957   3.577   0.393   7.713  0.3784 -0.1337  0.3349
  137OSM    H8G14958   3.504   0.437   7.554  0.5771  0.0559  0.2570
  137OSM    C9F14959   3.567   0.599   7.669  0.1300 -0.1331  0.2053
  137OSM    H9F14960   3.560   0.672   7.586  0.7458  0.7823  0.9341
  137OSM   C10F14961   3.533   0.641   7.792 -0.1541 -0.2215  0.2821
  137OSM   H10F14962   3.517   0.749   7.807 -2.0151 -0.6519  1.8491
  137OSM   C11F14963   3.509   0.562   7.916 -0.1844  0.4570 -0.2967
  137OSM   H11F14964   3.433   0.482   7.903 -0.5524  1.0617 -1.9810
  137OSM   H11G14965   3.476   0.625   8.002  0.9845  0.3013  0.2919
  137OSM   C12F14966   3.637   0.492   7.968  0.2324 -0.2290 -0.4782
  137OSM   H12F14967   3.711   0.569   7.999  0.2415 -0.4509  0.0630
  137OSM   H12G14968   3.684   0.433   7.887  0.9160  0.9569 -0.9735
  137OSM   C13F14969   3.623   0.394   8.091  0.0704  0.4975  0.4281
  137OSM   H13F14970   3.669   0.297   8.063  0.9224  0.4090  2.0053
  137OSM   H13G14971   3.517   0.363   8.103  0.4476 -1.5071 -0.9298
  137OSM   C14F14972   3.682   0.460   8.213 -0.1730  0.4559 -0.8332
  137OSM   H14F14973   3.640   0.563   8.218 -0.1984  0.4452 -0.8230
  137OSM   H14G14974   3.790   0.486   8.205 -0.0951  0.5523  0.3308
  137OSM   C15F14975   3.642   0.393   8.342 -0.1484  0.1825 -0.4046
  137OSM   H15F14976   3.691   0.294   8.358  1.1609  1.0704  1.4337
  137OSM   H15G14977   3.532   0.385   8.331 -0.1081  0.2420 -0.8352
  137OSM   C16F14978   3.678   0.479   8.473  0.0114 -0.8203 -0.1327
  137OSM   H16F14979   3.635   0.581   8.459  1.2071 -0.1409  0.9873
  137OSM   H16G14980   3.785   0.506   8.462 -0.7755  3.2562  0.5221
  137OSM   C17F14981   3.640   0.428   8.612  0.2429  0.1197 -0.3042
  137OSM   H17F14982   3.529   0.433   8.615  0.0413 -2.6962 -0.9583
  137OSM   H17G14983   3.680   0.500   8.688 -0.7800  0.4878 -0.1049
  137OSM   C18F14984   3.675   0.285   8.646 -0.2841  0.0566  0.1170
  137OSM   H18F14985   3.783   0.277   8.625  0.2017  3.0511  1.0164
  137OSM   H18G14986   3.632   0.208   8.578  2.7684 -1.2841 -0.4431
  137OSM   H18H14987   3.647   0.255   8.750  1.2094  0.0017  0.5158
  138OSM      N14988   3.693   3.712   6.469  0.5488  0.1780 -0.3292
  138OSM    C1514989   3.790   3.813   6.515 -0.7335  0.0054 -0.3698
  138OSM   H15A14990   3.758   3.843   6.613 -2.1367 -1.1028 -0.4648
  138OSM   H15B14991   3.782   3.900   6.451 -0.4579  0.2572 -0.0690
  138OSM   H15C14992   3.889   3.768   6.516 -2.2410 -3.6271  0.0234
  138OSM    C1414993   3.684   3.613   6.579 -0.2719  0.0325 -0.0468
  138OSM   H14A14994   3.611   3.536   6.558 -0.9256  0.4286  0.7115
  138OSM   H14B14995   3.643   3.660   6.667 -2.0135  1.4855 -1.5335
  138OSM   H14C14996   3.779   3.571   6.607 -1.4928 -1.8131  1.5900
  138OSM    C1314997   3.556   3.776   6.473  0.1365  0.2274 -0.0176
  138OSM   H13A14998   3.548   3.852   6.397 -0.7843 -0.0042 -0.1665
  138OSM   H13B14999   3.534   3.816   6.571  2.1082 -0.1120  0.6046
  138OSM   H13C15000   3.485   3.700   6.443  0.2860  0.7741 -1.8571
  138OSM    C1215001   3.723   3.663   6.327  0.2223  0.0014 -0.1734
  138OSM   H12A15002   3.725   3.750   6.263 -2.6448 -0.7479 -1.4072
  138OSM   H12B15003   3.635   3.613   6.289  1.1149 -2.2093  0.4828
  138OSM    C1115004   3.855   3.577   6.313  0.6325 -0.2573 -0.3685
  138OSM   H11A15005   3.931   3.624   6.380  0.8223  0.0021 -0.7633
  138OSM   H11B15006   3.890   3.580   6.208  0.9701 -2.1984 -0.3512
  138OSM      P15007   3.748   3.336   6.284 -0.8853 -0.2871  0.0983
  138OSM    O1315008   3.623   3.400   6.234 -0.9344  0.1450 -0.2780
  138OSM    O1415009   3.844   3.270   6.190 -0.4875 -0.2964  0.7473
  138OSM    O1115010   3.714   3.229   6.399  0.3313  0.0476  0.1602
  138OSM    O1215011   3.831   3.447   6.366  0.4022 -0.3477 -0.4706
  138OSM    C1S15012   3.780   3.253   6.525  0.5923  0.0157 -0.0120
  138OSM    H1S15013   3.727   3.340   6.569  0.0451 -0.8212  1.0318
  138OSM    H1T15014   3.889   3.272   6.517  0.4225  1.2057  0.3936
  138OSM     NF15015   3.818   3.169   6.752  0.1989  0.1400 -0.0030
  138OSM    HNF15016   3.905   3.139   6.790  0.3329  0.6901  0.1242
  138OSM    C2S15017   3.769   3.120   6.620  0.0246  0.1447  0.8690
  138OSM    H2S15018   3.659   3.105   6.631 -0.2535  0.9404 -0.5804
  138OSM    C3S15019   3.842   3.000   6.563  0.6378 -0.0997 -0.5427
  138OSM    H3S15020   3.950   3.024   6.565  0.6519 -0.0661 -1.3970
  138OSM     O315021   3.816   2.968   6.426  0.0416 -0.0154 -0.0446
  138OSM    HO315022   3.790   3.048   6.380 -1.8983 -0.9892 -0.7208
  138OSM    C4S15023   3.813   2.879   6.643  0.0480 -0.1947  0.1441
  138OSM    H4S15024   3.899   2.880   6.711 -0.2771 -0.1058  0.5598
  138OSM    C5S15025   3.700   2.802   6.639 -0.0819  0.4446  0.3577
  138OSM    H5S15026   3.612   2.842   6.585  1.3832  1.7239 -1.2255
  138OSM    C6S15027   3.679   2.694   6.738 -0.6726 -0.4583 -0.0055
  138OSM    H6S15028   3.665   2.599   6.682 -1.8393  0.2239 -0.9034
  138OSM    H6T15029   3.590   2.713   6.802  1.7430  0.4413  3.4000
  138OSM    C7S15030   3.786   2.672   6.840  0.0319  0.0077 -0.0614
  138OSM    H7S15031   3.785   2.749   6.920 -0.5192 -1.7314  1.6784
  138OSM    H7T15032   3.890   2.672   6.801  0.6428  0.5042  1.5039
  138OSM    C8S15033   3.762   2.537   6.908  0.1945 -0.3784 -0.1651
  138OSM    H8S15034   3.778   2.448   6.843  0.6709 -0.6025  0.2536
  138OSM    H8T15035   3.657   2.520   6.941  0.1585 -0.5114 -0.3447
  138OSM    C9S15036   3.847   2.516   7.036 -0.8074 -0.5657  0.4169
  138OSM    H9S15037   3.955   2.537   7.024 -0.6784 -1.8857 -1.0254
  138OSM    H9T15038   3.848   2.409   7.066 -0.2295 -0.7701 -0.3031
  138OSM   C10S15039   3.796   2.599   7.146 -0.0924 -0.3965 -0.2420
  138OSM   H10S15040   3.689   2.572   7.161 -1.1511  3.0654 -0.8281
  138OSM   H10T15041   3.793   2.708   7.129  1.9133 -0.3528 -0.5714
  138OSM   C11S15042   3.872   2.586   7.278  0.6247  0.1769 -0.1932
  138OSM   H11S15043   3.973   2.630   7.258  1.0223  0.3348  1.9387
  138OSM   H11T15044   3.894   2.479   7.298  0.2617  0.1122 -0.1449
  138OSM   C12S15045   3.806   2.670   7.388  0.2599  0.5489 -0.1177
  138OSM   H12S15046   3.703   2.630   7.401  1.1274 -1.2135  1.7034
  138OSM   H12T15047   3.804   2.776   7.352 -0.1937  0.1549 -1.3104
  138OSM   C13S15048   3.882   2.668   7.521  0.0236  0.4171  0.7869
  138OSM   H13S15049   3.983   2.707   7.495 -0.8695  1.7325 -0.9445
  138OSM   H13T15050   3.891   2.564   7.557  1.8587  0.0674 -0.5133
  138OSM   C14S15051   3.813   2.751   7.633 -0.0606  0.4966 -0.3628
  138OSM   H14S15052   3.730   2.694   7.680 -0.1763 -0.3643 -1.5937
  138OSM   H14T15053   3.771   2.844   7.589 -2.2629  0.2574  1.0968
  138OSM   C15S15054   3.910   2.801   7.737  0.2246  0.7010 -0.1644
  138OSM   H15S15055   3.850   2.878   7.790  0.3364  0.6178  0.0835
  138OSM   H15T15056   3.996   2.848   7.685  0.1216  2.4855  1.1949
  138OSM   C16S15057   3.950   2.691   7.831  0.1479  0.2051 -0.0470
  138OSM   H16S15058   3.993   2.604   7.778  1.5085  0.5655  0.4313
  138OSM   H16T15059   3.859   2.669   7.891 -0.3789  1.3465 -0.3884
  138OSM   C17S15060   4.057   2.720   7.945  0.3570  0.3864  0.8473
  138OSM   H17S15061   4.050   2.816   8.001 -0.6184  0.2229  1.0199
  138OSM   H17T15062   4.153   2.736   7.890  0.5191  0.1279  1.0539
  138OSM   C18S15063   4.074   2.600   8.043  0.1925 -0.7026  0.2797
  138OSM   H18S15064   4.135   2.644   8.125 -0.1293 -1.3320  0.8724
  138OSM   H18T15065   4.128   2.518   7.991 -0.5094 -0.3015 -1.1171
  138OSM   H18U15066   3.975   2.570   8.083 -0.6097  1.9168  0.4718
  138OSM    C1F15067   3.743   3.246   6.833  0.2895  0.1152 -0.1118
  138OSM     OF15068   3.629   3.277   6.801  0.0466 -0.2090 -0.0183
  138OSM    C2F15069   3.793   3.280   6.974 -0.5247 -0.4989  0.3844
  138OSM    H2F15070   3.790   3.391   6.971  1.4085 -0.4082  0.5650
  138OSM    H2G15071   3.902   3.260   6.985 -0.2669  0.6537  0.0877
  138OSM    C3F15072   3.721   3.219   7.088  0.3592 -0.0548 -0.2319
  138OSM    H3F15073   3.731   3.108   7.086  3.1733 -0.1042  3.6929
  138OSM    H3G15074   3.617   3.254   7.096  0.3672  0.1625 -1.0212
  138OSM    C4F15075   3.797   3.244   7.226 -0.5930 -0.1591  0.6960
  138OSM    H4F15076   3.806   3.353   7.243  0.0809  0.0720 -0.9432
  138OSM    H4G15077   3.903   3.214   7.214 -0.8974 -0.8774 -0.4250
  138OSM    C5F15078   3.744   3.157   7.335 -0.2040 -0.2984  0.3212
  138OSM    H5F15079   3.753   3.050   7.306  2.8251  0.2649 -1.2097
  138OSM    H5G15080   3.639   3.186   7.355 -0.6532 -1.0520 -0.7970
  138OSM    C6F15081   3.819   3.180   7.463  0.0925 -0.7357  0.0485
  138OSM    H6F15082   3.771   3.143   7.556 -0.0207  0.1597  0.3607
  138OSM    H6G15083   3.827   3.290   7.480 -1.5872 -0.6620  0.6208
  138OSM    C7F15084   3.954   3.103   7.448  0.7475 -0.9025  0.4120
  138OSM    H7F15085   4.011   3.153   7.366  0.5292  0.2522  0.9396
  138OSM    H7G15086   3.934   2.998   7.419 -0.0963 -0.4106 -0.8735
  138OSM    C8F15087   4.044   3.116   7.568 -0.1873  0.5863 -0.9133
  138OSM    H8F15088   4.132   3.053   7.543 -0.5221 -0.8453  1.2283
  138OSM    H8G15089   4.001   3.070   7.660  2.2522  1.1902  0.5985
  138OSM    C9F15090   4.100   3.254   7.606  0.4622  0.2716  0.2273
  138OSM    H9F15091   4.078   3.332   7.532  0.4863 -0.6294 -0.7520
  138OSM   C10F15092   4.156   3.285   7.727 -0.3469  0.3714 -0.0720
  138OSM   H10F15093   4.197   3.385   7.745  0.6035  0.1447 -0.8725
  138OSM   C11F15094   4.178   3.196   7.847 -0.1308  0.3828  0.6171
  138OSM   H11F15095   4.286   3.200   7.873  0.0388  1.0577 -0.1326
  138OSM   H11G15096   4.148   3.095   7.812  2.0140  0.1958 -0.8494
  138OSM   C12F15097   4.096   3.237   7.964  0.0600 -0.3980 -0.4243
  138OSM   H12F15098   3.987   3.227   7.941 -0.2641  0.1364  0.7841
  138OSM   H12G15099   4.121   3.343   7.987 -0.8641  0.2508 -2.2255
  138OSM   C13F15100   4.125   3.140   8.084 -0.0483  0.3098 -0.0568
  138OSM   H13F15101   4.123   3.034   8.051  1.6935 -0.6458  2.5931
  138OSM   H13G15102   4.037   3.142   8.152 -0.5612 -0.3264 -0.6855
  138OSM   C14F15103   4.251   3.168   8.156 -0.7257  0.1217 -0.2405
  138OSM   H14F15104   4.262   3.279   8.154 -2.9745  0.4613  1.5011
  138OSM   H14G15105   4.333   3.122   8.098  0.8420  0.0206  1.9563
  138OSM   C15F15106   4.253   3.110   8.298 -0.4883 -0.2108 -0.2515
  138OSM   H15F15107   4.169   3.145   8.361  0.4973  1.7888  0.0364
  138OSM   H15G15108   4.349   3.146   8.342  0.1461  0.1638 -1.8551
  138OSM   C16F15109   4.255   2.953   8.292  0.6262  0.3218 -0.1661
  138OSM   H16F15110   4.348   2.923   8.238  1.1689 -1.4012  1.6137
  138OSM   H16G15111   4.173   2.920   8.225  0.2161  1.7152 -0.3847
  138OSM   C17F15112   4.241   2.889   8.432 -0.8684  0.3655 -0.3127
  138OSM   H17F15113   4.294   2.954   8.505  2.5567 -2.4107 -0.1100
  138OSM   H17G15114   4.305   2.799   8.426  0.7671  1.5929 -2.4541
  138OSM   C18F15115   4.097   2.860   8.467 -0.2892  0.1909  0.1350
  138OSM   H18F15116   4.086   2.834   8.575  0.3719 -0.2228  0.1099
  138OSM   H18G15117   4.057   2.775   8.407 -0.0976 -0.3033  0.6852
  138OSM   H18H15118   4.041   2.954   8.454  1.2626  1.0566 -0.5630
  139OSM      N15119   1.548   3.665   6.561  0.6463  0.9798  0.3226
  139OSM    C1515120   1.664   3.682   6.469 -0.2309 -0.3695  0.0240
  139OSM   H15A15121   1.632   3.661   6.367  1.0429  2.9796 -1.2071
  139OSM   H15B15122   1.746   3.616   6.491  0.3594  0.3110 -0.0893
  139OSM   H15C15123   1.703   3.782   6.478  1.4823 -1.1777  2.3971
  139OSM    C1415124   1.585   3.697   6.701 -0.1590  0.1784  0.0247
  139OSM   H14A15125   1.498   3.701   6.764  0.7954 -0.5893  1.4320
  139OSM   H14B15126   1.621   3.798   6.712 -1.2773  0.4526  1.4030
  139OSM   H14C15127   1.653   3.622   6.740 -2.5720 -3.2431 -1.7850
  139OSM    C1315128   1.438   3.752   6.514  0.9333  0.1711  0.3482
  139OSM   H13A15129   1.351   3.732   6.575 -0.0225 -3.6818 -1.9057
  139OSM   H13B15130   1.421   3.744   6.408 -0.6339  0.1789  0.5660
  139OSM   H13C15131   1.454   3.858   6.514 -2.1054  0.7200 -0.2258
  139OSM    C1215132   1.501   3.522   6.551  0.1810 -0.2240 -0.3399
  139OSM   H12A15133   1.414   3.509   6.613  1.7341  0.2205  2.0499
  139OSM   H12B15134   1.573   3.457   6.598  0.6670  0.6567  0.1579
  139OSM    C1115135   1.477   3.459   6.414  0.1736 -0.8117  0.4215
  139OSM   H11A15136   1.402   3.523   6.363  1.2143  1.8539  1.9978
  139OSM   H11B15137   1.430   3.359   6.427  1.7800 -1.7163 -0.4624
  139OSM      P15138   1.702   3.324   6.370  0.0245 -0.2083  0.1097
  139OSM    O1315139   1.726   3.245   6.246  0.3530 -0.4095 -0.0800
  139OSM    O1415140   1.824   3.391   6.424  0.5213 -0.3563  0.3742
  139OSM    O1115141   1.625   3.237   6.476  0.1519  0.5388 -0.3963
  139OSM    O1215142   1.596   3.441   6.336  0.4727 -0.7731  0.1445
  139OSM    C1S15143   1.688   3.178   6.596  0.2971 -0.3464 -0.2015
  139OSM    H1S15144   1.775   3.241   6.624 -0.8918  2.0541 -1.5872
  139OSM    H1T15145   1.726   3.075   6.577 -0.6848 -0.6402 -0.6425
  139OSM     NF15146   1.657   3.176   6.842  0.1422  0.0931  0.2036
  139OSM    HNF15147   1.672   3.091   6.893  2.1535  1.4167  2.0018
  139OSM    C2S15148   1.585   3.168   6.711  0.2529  0.6216 -0.3250
  139OSM    H2S15149   1.525   3.261   6.709 -1.1974 -0.2555  0.6062
  139OSM    C3S15150   1.503   3.040   6.685 -1.0175  0.2913 -0.1964
  139OSM    H3S15151   1.570   2.952   6.695 -2.4456 -1.0031 -1.2938
  139OSM     O315152   1.452   3.035   6.550  0.0764  0.0838  0.1300
  139OSM    HO315153   1.498   3.108   6.507  0.2412 -0.3445 -0.4395
  139OSM    C4S15154   1.388   3.016   6.783 -0.1266 -0.2300 -0.3997
  139OSM    H4S15155   1.290   3.057   6.754 -1.3905 -2.2641  0.7731
  139OSM    C5S15156   1.396   2.950   6.899  0.2877  0.0276  0.6211
  139OSM    H5S15157   1.495   2.925   6.941  0.5010 -0.9574 -0.4363
  139OSM    C6S15158   1.279   2.936   6.996  0.2004 -0.0310  0.0902
  139OSM    H6S15159   1.187   2.992   6.969 -0.0090 -0.9532 -1.2125
  139OSM    H6T15160   1.311   2.975   7.095 -1.9822  1.4182  0.2832
  139OSM    C7S15161   1.228   2.795   7.043 -0.2021 -0.4599  0.6038
  139OSM    H7S15162   1.305   2.716   7.034  1.5778  1.3570 -0.9206
  139OSM    H7T15163   1.145   2.777   6.971  0.1214  0.7821 -0.1041
  139OSM    C8S15164   1.161   2.780   7.182 -0.4210 -0.5974  0.1481
  139OSM    H8S15165   1.124   2.677   7.196  1.6261 -1.1123  2.7043
  139OSM    H8T15166   1.063   2.832   7.186 -0.8509 -1.4820  3.2539
  139OSM    C9S15167   1.246   2.826   7.303 -0.5362  0.3439  0.4214
  139OSM    H9S15168   1.272   2.933   7.310 -0.7383  0.3856  0.5490
  139OSM    H9T15169   1.339   2.769   7.326  1.9814  3.2279 -1.8538
  139OSM   C10S15170   1.163   2.808   7.440  0.5401  0.1294  0.1886
  139OSM   H10S15171   1.161   2.702   7.472 -0.4422  0.4531  1.2708
  139OSM   H10T15172   1.057   2.838   7.426  0.4199  0.0406  0.8967
  139OSM   C11S15173   1.204   2.892   7.559 -0.2054 -0.1257 -0.4842
  139OSM   H11S15174   1.161   2.994   7.544 -1.7165 -0.8881 -1.6660
  139OSM   H11T15175   1.314   2.903   7.551 -0.1958  0.5289  0.3921
  139OSM   C12S15176   1.146   2.833   7.693  0.0321  0.0340  0.5553
  139OSM   H12S15177   1.208   2.743   7.713  1.1023  0.9482  1.5300
  139OSM   H12T15178   1.040   2.806   7.671  0.4858 -2.7570  1.3739
  139OSM   C13S15179   1.165   2.933   7.815 -0.4211  0.6824  0.7560
  139OSM   H13S15180   1.145   2.876   7.908 -2.1383  0.4026  0.2496
  139OSM   H13T15181   1.083   3.005   7.794  0.1235  1.0678 -0.1448
  139OSM   C14S15182   1.302   2.995   7.815 -0.0456  0.4411  0.0407
  139OSM   H14S15183   1.300   3.069   7.732 -1.4700 -1.0817 -1.3513
  139OSM   H14T15184   1.394   2.938   7.791 -1.4555 -1.7391 -0.4490
  139OSM   C15S15185   1.329   3.065   7.955  0.9406  0.4293  0.2153
  139OSM   H15S15186   1.369   3.001   8.037 -1.8504  0.9995  2.1798
  139OSM   H15T15187   1.231   3.108   7.987  0.6210  0.0828 -0.2803
  139OSM   C16S15188   1.424   3.183   7.934 -1.3864  0.5769  0.1244
  139OSM   H16S15189   1.410   3.231   7.835 -1.1348 -2.9987 -1.7996
  139OSM   H16T15190   1.526   3.138   7.927 -1.1796  0.9216  0.8262
  139OSM   C17S15191   1.437   3.284   8.057 -0.4475  0.2974  0.3177
  139OSM   H17S15192   1.334   3.323   8.072 -1.1695 -0.4975 -2.0996
  139OSM   H17T15193   1.508   3.363   8.026  1.0433 -0.9923  0.3444
  139OSM   C18S15194   1.501   3.216   8.187 -0.0648 -0.0568  0.2208
  139OSM   H18S15195   1.445   3.129   8.228  1.8199 -1.3548  0.1394
  139OSM   H18T15196   1.514   3.296   8.263 -2.1020  0.1103  0.4555
  139OSM   H18U15197   1.606   3.188   8.163  1.2763  3.4784  1.2901
  139OSM    C1F15198   1.708   3.289   6.880 -0.5591  0.0838 -0.1484
  139OSM     OF15199   1.685   3.396   6.820  0.3623  0.5416 -0.3192
  139OSM    C2F15200   1.808   3.294   6.998 -0.0456 -0.1356  0.2901
  139OSM    H2F15201   1.903   3.252   6.960  1.5494  1.4796  2.3046
  139OSM    H2G15202   1.772   3.222   7.074 -0.6139  0.5090  0.6470
  139OSM    C3F15203   1.831   3.433   7.070  0.2354 -0.0113  0.8240
  139OSM    H3F15204   1.735   3.460   7.118  0.0764 -1.0728  1.1258
  139OSM    H3G15205   1.850   3.508   6.991  1.3003 -0.8490  0.2578
  139OSM    C4F15206   1.941   3.433   7.174  0.4544  0.2977  0.1257
  139OSM    H4F15207   1.928   3.517   7.246 -0.7353 -0.6760  1.1149
  139OSM    H4G15208   2.038   3.435   7.121  0.0922 -0.6157 -0.6034
  139OSM    C5F15209   1.938   3.310   7.265  0.2475  0.1400  0.2677
  139OSM    H5F15210   1.964   3.216   7.212 -0.4576 -1.1752  2.1507
  139OSM    H5G15211   1.836   3.296   7.308 -0.5172  0.0865 -1.5147
  139OSM    C6F15212   2.017   3.321   7.398 -0.0891 -1.3158  0.2210
  139OSM    H6F15213   1.949   3.392   7.449  0.0900 -1.2309  0.3445
  139OSM    H6G15214   2.120   3.361   7.391 -0.3470 -0.8409 -0.9518
  139OSM    C7F15215   2.037   3.181   7.460 -0.1452  0.2106  0.0832
  139OSM    H7F15216   2.112   3.120   7.406  2.4124  1.8223  1.5737
  139OSM    H7G15217   1.937   3.135   7.467  0.5639 -1.1907  2.2351
  139OSM    C8F15218   2.115   3.211   7.600  1.0200  0.3238 -0.1132
  139OSM    H8F15219   2.056   3.301   7.628  0.4554  0.0668 -0.4563
  139OSM    H8G15220   2.218   3.227   7.563  0.5325 -0.8251 -2.1132
  139OSM    C9F15221   2.104   3.095   7.701  0.8128  0.9050  0.0064
  139OSM    H9F15222   2.111   2.997   7.653  0.8572  0.8852  0.0540
  139OSM   C10F15223   2.078   3.108   7.830 -0.1218 -0.1193 -0.2805
  139OSM   H10F15224   2.081   3.022   7.898 -1.6648 -0.4764 -0.6324
  139OSM   C11F15225   2.064   3.236   7.909 -0.0352 -0.9496  0.3871
  139OSM   H11F15226   1.966   3.223   7.959  0.6917 -3.7031  1.2494
  139OSM   H11G15227   2.060   3.323   7.840  1.5982 -1.3970 -0.3171
  139OSM   C12F15228   2.174   3.272   8.011  0.7821 -0.4875 -0.5516
  139OSM   H12F15229   2.159   3.217   8.106  1.0457 -1.9404 -1.3307
  139OSM   H12G15230   2.149   3.378   8.036  0.4479 -0.7623  0.3131
  139OSM   C13F15231   2.313   3.273   7.947  0.6494 -0.5450  0.0198
  139OSM   H13F15232   2.310   3.305   7.841 -1.5623  1.0499  0.4986
  139OSM   H13G15233   2.339   3.165   7.947  2.0341 -0.2514 -1.3721
  139OSM   C14F15234   2.402   3.363   8.029 -0.3799  1.2853 -0.1554
  139OSM   H14F15235   2.349   3.451   8.070 -1.6340  1.3826 -1.8958
  139OSM   H14G15236   2.479   3.406   7.962 -0.2840  2.9704  0.9701
  139OSM   C15F15237   2.462   3.295   8.160  0.5666 -0.6977  0.2075
  139OSM   H15F15238   2.385   3.228   8.202  0.8986 -0.6567  0.8902
  139OSM   H15G15239   2.484   3.380   8.228 -0.6464  0.5350 -0.8826
  139OSM   C16F15240   2.585   3.208   8.141 -1.1180 -0.0862  0.0716
  139OSM   H16F15241   2.663   3.246   8.071 -3.8224  0.1839 -3.0680
  139OSM   H16G15242   2.545   3.117   8.091 -0.5160  0.2454 -1.0573
  139OSM   C17F15243   2.646   3.172   8.278 -0.5124 -0.4000  0.5165
  139OSM   H17F15244   2.717   3.092   8.249 -0.4958 -0.5551  0.9807
  139OSM   H17G15245   2.564   3.125   8.336  0.7095 -1.1206  1.7318
  139OSM   C18F15246   2.714   3.277   8.355  0.2612 -0.4866  0.0217
  139OSM   H18F15247   2.773   3.226   8.433 -1.2938 -3.7789 -0.7860
  139OSM   H18G15248   2.632   3.343   8.393  0.5019 -0.0516 -0.2048
  139OSM   H18H15249   2.769   3.346   8.287 -2.3783 -1.2810 -3.1889
  140OSM      N15250   2.702   5.276   6.119 -0.7688  0.2009 -0.2544
  140OSM    C1515251   2.651   5.168   6.028  0.5808 -0.4131  0.4418
  140OSM   H15A15252   2.671   5.068   6.063  1.2913  0.1642  1.7392
  140OSM   H15B15253   2.689   5.182   5.928  0.5746 -1.4523  0.2818
  140OSM   H15C15254   2.544   5.180   6.033  0.5574 -1.0522  1.6770
  140OSM    C1415255   2.668   5.403   6.057  0.4055 -0.0584  0.0110
  140OSM   H14A15256   2.564   5.394   6.028  0.4739  1.4325 -0.8107
  140OSM   H14B15257   2.723   5.401   5.964  1.1594 -0.4692  0.4590
  140OSM   H14C15258   2.692   5.487   6.121  0.7340  1.2196 -1.6966
  140OSM    C1315259   2.633   5.259   6.250 -0.6689 -0.0344  0.3081
  140OSM   H13A15260   2.662   5.167   6.298 -2.9378  0.0343  1.9517
  140OSM   H13B15261   2.526   5.269   6.241 -0.7142  1.0048  1.7104
  140OSM   H13C15262   2.670   5.335   6.318  0.8164 -0.6531  0.2213
  140OSM    C1215263   2.849   5.256   6.134 -0.4708 -0.1271 -0.3699
  140OSM   H12A15264   2.898   5.276   6.041 -1.4663 -1.1864 -1.1604
  140OSM   H12B15265   2.868   5.152   6.158  0.8776 -0.0859 -1.1932
  140OSM    C1115266   2.909   5.354   6.240  0.8719  0.0723 -0.4620
  140OSM   H11A15267   3.017   5.326   6.240  0.1779 -2.9744  0.7282
  140OSM   H11B15268   2.883   5.324   6.344  0.0053  2.4413  0.0749
  140OSM      P15269   2.861   5.610   6.314 -0.2647 -0.1741 -0.2233
  140OSM    O1315270   2.952   5.720   6.279 -0.3538 -0.0748 -1.1548
  140OSM    O1415271   2.718   5.638   6.318  0.4616 -0.3119 -0.3215
  140OSM    O1115272   2.902   5.554   6.456  0.7456 -0.3061  0.0919
  140OSM    O1215273   2.880   5.491   6.213 -0.3104 -0.3266 -0.4460
  140OSM    C1S15274   3.039   5.540   6.498 -0.1456 -0.4926  0.0319
  140OSM    H1S15275   3.079   5.644   6.502 -0.8127 -0.1899 -0.8676
  140OSM    H1T15276   3.095   5.475   6.429  0.0149  0.6934 -0.9888
  140OSM     NF15277   3.210   5.472   6.671  0.3597  0.7639 -0.9102
  140OSM    HNF15278   3.253   5.390   6.634 -2.8363 -1.7366  0.4555
  140OSM    C2S15279   3.061   5.474   6.636 -0.3579  0.0344  0.6767
  140OSM    H2S15280   2.994   5.535   6.699 -0.5795  0.2420  0.2444
  140OSM    C3S15281   3.000   5.329   6.638 -0.0420 -0.2940 -0.2578
  140OSM    H3S15282   3.040   5.267   6.555 -2.3747  0.0154 -1.7181
  140OSM     O315283   2.863   5.326   6.619 -0.1394  0.8437 -0.0273
  140OSM    HO315284   2.846   5.399   6.559 -0.5870 -2.2015 -4.0309
  140OSM    C4S15285   3.037   5.256   6.766 -0.1639  0.3692 -0.1983
  140OSM    H4S15286   3.125   5.192   6.757 -1.4681 -1.4672 -0.5427
  140OSM    C5S15287   2.982   5.265   6.893 -1.0686  0.1919 -0.2996
  140OSM    H5S15288   2.902   5.338   6.910  0.1331  1.3365  0.7205
  140OSM    C6S15289   3.032   5.195   7.023  0.0349 -1.0087  0.1708
  140OSM    H6S15290   3.070   5.276   7.089 -0.1630 -1.1455  0.4523
  140OSM    H6T15291   3.124   5.133   7.011  2.1183  1.7728  0.6055
  140OSM    C7S15292   2.918   5.123   7.091  0.0867 -0.3371  0.6181
  140OSM    H7S15293   2.886   5.055   7.010  0.8022  2.1068 -1.9048
  140OSM    H7T15294   2.839   5.201   7.100  2.0321  1.9018 -0.4812
  140OSM    C8S15295   2.962   5.065   7.225  0.2033 -0.6207 -0.8227
  140OSM    H8S15296   3.059   5.011   7.214  1.0870  0.6209  0.5603
  140OSM    H8T15297   2.891   4.987   7.262 -0.2959  0.6340  1.0014
  140OSM    C9S15298   2.987   5.173   7.336 -0.3645  0.0207 -0.4842
  140OSM    H9S15299   2.949   5.274   7.308 -0.3331 -0.0854 -0.9199
  140OSM    H9T15300   3.095   5.195   7.341 -0.3548 -0.0758 -0.2499
  140OSM   C10S15301   2.932   5.122   7.471 -0.3007 -0.2921 -0.5897
  140OSM   H10S15302   2.830   5.080   7.458  0.2696 -1.8072 -0.4326
  140OSM   H10T15303   2.928   5.201   7.549  1.7277  0.7449 -1.4563
  140OSM   C11S15304   3.018   5.006   7.533 -0.4558 -0.5205 -0.2351
  140OSM   H11S15305   3.114   5.049   7.568  0.9787 -1.2944 -2.9842
  140OSM   H11T15306   3.033   4.929   7.455 -0.6112 -0.0254 -0.7593
  140OSM   C12S15307   2.947   4.948   7.656  0.3509  0.0523 -0.7659
  140OSM   H12S15308   2.862   4.879   7.639  0.0607 -0.0375  0.8653
  140OSM   H12T15309   2.917   5.043   7.707  1.9502  0.4532 -0.5267
  140OSM   C13S15310   3.048   4.872   7.759  0.7156  0.3697 -0.2408
  140OSM   H13S15311   3.133   4.941   7.772 -0.9796  2.8753 -1.6836
  140OSM   H13T15312   3.075   4.774   7.714 -1.4459 -0.5998  0.4015
  140OSM   C14S15313   2.993   4.851   7.902 -0.5219 -0.0614  0.7039
  140OSM   H14S15314   2.899   4.793   7.908 -1.8826  2.0383  0.8612
  140OSM   H14T15315   2.950   4.947   7.938  1.1428  1.2471 -0.6445
  140OSM   C15S15316   3.105   4.812   8.005 -0.0405  0.0060 -0.2582
  140OSM   H15S15317   3.187   4.885   7.989 -0.4109  0.8818  1.5026
  140OSM   H15T15318   3.144   4.712   7.975 -0.8437 -0.4925  0.3098
  140OSM   C16S15319   3.066   4.804   8.163 -0.4515  0.0547 -0.0302
  140OSM   H16S15320   3.065   4.909   8.199  2.5821  0.6073 -1.3081
  140OSM   H16T15321   3.142   4.745   8.220  0.6453  0.1430 -1.3543
  140OSM   C17S15322   2.936   4.725   8.171  0.2758 -0.8140  0.4245
  140OSM   H17S15323   2.951   4.641   8.101  1.6480 -1.0851  1.0125
  140OSM   H17T15324   2.856   4.782   8.118  0.4808  0.5205  1.4822
  140OSM   C18S15325   2.887   4.670   8.306  0.4267  0.3010  0.3456
  140OSM   H18S15326   2.812   4.589   8.292 -0.4719  1.2541 -0.5231
  140OSM   H18T15327   2.857   4.758   8.367  0.8476  1.4083 -1.0116
  140OSM   H18U15328   2.982   4.629   8.349  0.9024  0.3265 -0.6542
  140OSM    C1F15329   3.268   5.574   6.727  0.7231 -0.3767 -0.5204
  140OSM     OF15330   3.208   5.680   6.732  0.5675 -0.2129 -0.1347
  140OSM    C2F15331   3.413   5.569   6.775 -0.3981 -0.6846 -0.6048
  140OSM    H2F15332   3.474   5.653   6.737 -2.3840  1.0672 -0.1038
  140OSM    H2G15333   3.451   5.478   6.723 -1.8492 -0.7481 -1.6131
  140OSM    C3F15334   3.424   5.584   6.929 -0.3228  0.1173  0.5173
  140OSM    H3F15335   3.397   5.687   6.960 -2.7263 -1.2517  3.4713
  140OSM    H3G15336   3.534   5.573   6.945  0.0555 -2.2404 -2.7428
  140OSM    C4F15337   3.345   5.486   7.010  0.3971 -0.8121 -1.1452
  140OSM    H4F15338   3.388   5.384   7.011  1.2627 -0.4678 -1.6411
  140OSM    H4G15339   3.240   5.476   6.975  0.9573 -0.3499 -3.1256
  140OSM    C5F15340   3.323   5.532   7.152 -0.3377 -0.7383 -0.3927
  140OSM    H5F15341   3.246   5.611   7.162 -0.7927 -1.3738  1.3457
  140OSM    H5G15342   3.419   5.572   7.190 -0.3221 -0.5673 -0.6070
  140OSM    C6F15343   3.291   5.422   7.257  0.1119 -0.0125 -0.2814
  140OSM    H6F15344   3.322   5.327   7.208  3.1096  1.3696 -1.2865
  140OSM    H6G15345   3.182   5.403   7.272  0.7261 -2.5015  1.5482
  140OSM    C7F15346   3.351   5.449   7.396  0.0061 -0.7866 -0.2851
  140OSM    H7F15347   3.312   5.544   7.438  1.0470 -0.5767  0.2352
  140OSM    H7G15348   3.460   5.444   7.375 -0.3115 -1.6838 -1.9050
  140OSM    C8F15349   3.313   5.336   7.491 -0.1673 -0.1105 -0.8202
  140OSM    H8F15350   3.342   5.236   7.453 -1.2414 -1.0576  0.7492
  140OSM    H8G15351   3.202   5.330   7.494 -0.1668 -0.3429 -1.2052
  140OSM    C9F15352   3.365   5.370   7.632 -0.3080 -0.6894 -0.0075
  140OSM    H9F15353   3.473   5.352   7.642 -0.4205 -1.6819 -0.4501
  140OSM   C10F15354   3.303   5.405   7.742  0.5198  0.3989 -0.2973
  140OSM   H10F15355   3.356   5.403   7.839 -0.1131  0.1223  0.0476
  140OSM   C11F15356   3.154   5.424   7.759  0.0568 -0.1028 -0.2245
  140OSM   H11F15357   3.110   5.471   7.669  1.0942  1.0437 -0.1561
  140OSM   H11G15358   3.136   5.508   7.830 -1.8706 -0.7081  0.0679
  140OSM   C12F15359   3.070   5.304   7.808 -0.3394 -0.7537 -0.4099
  140OSM   H12F15360   3.076   5.213   7.744  4.0746 -3.0731  2.7882
  140OSM   H12G15361   2.966   5.346   7.810  0.9204  2.6627  0.9631
  140OSM   C13F15362   3.114   5.272   7.954  0.3380 -0.1019  0.7014
  140OSM   H13F15363   3.225   5.265   7.963  0.1120 -1.0024  3.9257
  140OSM   H13G15364   3.096   5.168   7.988 -1.9360  0.2440  0.6956
  140OSM   C14F15365   3.084   5.378   8.062 -0.5583  0.0112  0.3046
  140OSM   H14F15366   3.031   5.462   8.013 -0.4823 -1.3841 -2.3432
  140OSM   H14G15367   3.177   5.418   8.108  0.1705 -0.7536 -0.4574
  140OSM   C15F15368   2.997   5.328   8.178  0.0916  0.2959  0.1797
  140OSM   H15F15369   2.988   5.404   8.259 -1.5577  0.4692 -0.1257
  140OSM   H15G15370   3.062   5.249   8.220  1.8838 -0.9483 -4.3184
  140OSM   C16F15371   2.850   5.286   8.131 -0.5633 -0.1430 -0.1430
  140OSM   H16F15372   2.860   5.199   8.063  1.7178 -0.6049  0.6891
  140OSM   H16G15373   2.808   5.374   8.078  1.6771  0.8597 -0.3759
  140OSM   C17F15374   2.769   5.244   8.257  0.0232  0.2681 -0.4371
  140OSM   H17F15375   2.664   5.232   8.225 -1.4037  0.2044  3.7204
  140OSM   H17G15376   2.763   5.319   8.339  0.7137 -1.1888  1.0077
  140OSM   C18F15377   2.811   5.110   8.320 -0.3579  0.0997 -1.0099
  140OSM   H18F15378   2.915   5.123   8.356 -1.0164 -1.7150  1.7918
  140OSM   H18G15379   2.801   5.025   8.249  3.5592 -2.0492  0.7450
  140OSM   H18H15380   2.756   5.081   8.412  1.1231  0.5622  0.0540
  141OSM      N15381   3.609   0.242   6.401  0.6728 -0.1598 -0.0231
  141OSM    C1515382   3.464   0.261   6.362  0.1512  0.1531 -0.5925
  141OSM   H15A15383   3.406   0.178   6.398  0.8403  0.6783  1.8782
  141OSM   H15B15384   3.453   0.283   6.256  2.5476  3.3268 -0.3324
  141OSM   H15C15385   3.428   0.352   6.407  2.8955  0.2939  1.5725
  141OSM    C1415386   3.667   0.120   6.340  0.2773  0.2550 -0.1604
  141OSM   H14A15387   3.605   0.036   6.363 -2.7214  1.5349 -2.8428
  141OSM   H14B15388   3.766   0.099   6.379 -1.3025 -1.7709  3.1749
  141OSM   H14C15389   3.667   0.145   6.235 -0.8065 -2.3446 -0.8336
  141OSM    C1315390   3.684   0.357   6.350  0.5167 -0.1357  0.1676
  141OSM   H13A15391   3.791   0.344   6.358  0.6836  0.2332 -1.2909
  141OSM   H13B15392   3.658   0.450   6.398 -2.1302  0.4203 -2.0903
  141OSM   H13C15393   3.666   0.362   6.244 -0.7318 -0.4572  0.3496
  141OSM    C1215394   3.623   0.237   6.552  0.1148 -0.0455 -0.7662
  141OSM   H12A15395   3.724   0.236   6.589 -0.0443 -2.4434 -0.2513
  141OSM   H12B15396   3.591   0.135   6.565  1.6789 -0.4431  0.2156
  141OSM    C1115397   3.522   0.335   6.631  0.1728  0.5442  0.0195
  141OSM   H11A15398   3.539   0.328   6.741  2.7055 -0.5876 -0.3848
  141OSM   H11B15399   3.419   0.296   6.614 -0.4277  2.4764 -1.0832
  141OSM      P15400   3.416   0.564   6.578 -0.0423  0.1164 -0.3754
  141OSM    O1315401   3.465   0.701   6.612 -0.0694 -0.3978 -0.3634
  141OSM    O1415402   3.356   0.541   6.448  0.0597 -0.2277  0.3175
  141OSM    O1115403   3.301   0.523   6.681 -0.0904  0.2903 -0.0959
  141OSM    O1215404   3.531   0.469   6.597 -0.9937  0.0862  0.5131
  141OSM    C1S15405   3.312   0.531   6.822 -0.3011  0.0658  0.6334
  141OSM    H1S15406   3.321   0.635   6.859  3.3691 -0.4417  1.6424
  141OSM    H1T15407   3.405   0.478   6.853  0.3464  1.3582  0.9552
  141OSM     NF15408   3.222   0.470   7.045 -0.5762 -0.6465  0.4646
  141OSM    HNF15409   3.270   0.397   7.092 -0.4758 -0.2055  1.0603
  141OSM    C2S15410   3.202   0.455   6.900  0.4974  1.1221  0.5175
  141OSM    H2S15411   3.105   0.501   6.871  1.0535  2.0988  0.1345
  141OSM    C3S15412   3.201   0.305   6.854 -0.3834  0.0508 -0.4229
  141OSM    H3S15413   3.304   0.269   6.875  0.7873  1.7468 -2.7013
  141OSM     O315414   3.192   0.279   6.717  1.0263  0.2959 -0.3075
  141OSM    HO315415   3.196   0.364   6.673  0.5901  0.2442 -0.4490
  141OSM    C4S15416   3.103   0.234   6.935 -0.1333 -0.1183  0.2400
  141OSM    H4S15417   3.150   0.184   7.021  0.3321  1.5225  0.9836
  141OSM    C5S15418   2.976   0.215   6.903  0.3571 -0.1622 -0.4057
  141OSM    H5S15419   2.929   0.265   6.816  0.3032  0.3451 -0.0928
  141OSM    C6S15420   2.877   0.135   6.995 -1.3760 -0.4737  0.1569
  141OSM    H6S15421   2.891   0.028   6.969 -1.4731 -0.5902  0.5821
  141OSM    H6T15422   2.774   0.174   6.977 -0.9909  0.5527  0.1314
  141OSM    C7S15423   2.899   0.136   7.147 -0.2506 -0.1438 -0.8870
  141OSM    H7S15424   2.924   0.243   7.167  1.7262 -1.0834  2.7403
  141OSM    H7T15425   2.994   0.079   7.158  0.9829  1.6882 -1.3814
  141OSM    C8S15426   2.787   0.069   7.229 -0.2132 -0.9640 -0.2565
  141OSM    H8S15427   2.765  -0.028   7.180  2.0339 -2.9468  2.3449
  141OSM    H8T15428   2.701   0.139   7.244 -0.0284 -1.4146  4.4205
  141OSM    C9S15429   2.829   0.033   7.364 -0.6518  1.1580 -0.0230
  141OSM    H9S15430   2.862   0.122   7.420 -0.4950  0.6561  0.6945
  141OSM    H9T15431   2.908  -0.045   7.365 -1.0843  0.7133  0.5770
  141OSM   C10S15432   2.713  -0.034   7.437  0.5684 -0.1550 -0.0355
  141OSM   H10S15433   2.687  -0.136   7.402  2.0509 -1.2009  1.6887
  141OSM   H10T15434   2.632   0.040   7.422  1.5942  1.0108 -0.0207
  141OSM   C11S15435   2.740  -0.058   7.589  0.2674  0.0089 -0.2160
  141OSM   H11S15436   2.749   0.044   7.634  1.5929  0.2823 -1.0308
  141OSM   H11T15437   2.837  -0.111   7.604 -1.6140 -3.3944  0.9218
  141OSM   C12S15438   2.634  -0.145   7.643  0.7145 -0.3035 -0.5910
  141OSM   H12S15439   2.634  -0.251   7.610  0.7896 -0.1688 -1.0214
  141OSM   H12T15440   2.531  -0.111   7.618  0.8473  0.4452 -0.1673
  141OSM   C13S15441   2.642  -0.146   7.798 -0.9890 -0.6080  0.9283
  141OSM   H13S15442   2.737  -0.180   7.843 -1.7967 -1.1069  2.3197
  141OSM   H13T15443   2.569  -0.226   7.825 -0.0270 -1.9057 -0.1358
  141OSM   C14S15444   2.602  -0.013   7.867 -0.4859  0.3371  0.2741
  141OSM   H14S15445   2.523   0.048   7.820  0.6558 -0.6357 -3.1963
  141OSM   H14T15446   2.689   0.056   7.878 -1.1813  1.0703  1.3336
  141OSM   C15S15447   2.557  -0.027   8.011  0.3589  0.6178 -0.1392
  141OSM   H15S15448   2.546   0.070   8.064 -2.2600  0.5097 -0.3629
  141OSM   H15T15449   2.644  -0.078   8.056  1.4926  2.5243 -0.0273
  141OSM   C16S15450   2.424  -0.102   8.031 -0.7786 -0.7813  0.0809
  141OSM   H16S15451   2.433  -0.211   8.012 -1.0145 -0.9945  1.1343
  141OSM   H16T15452   2.349  -0.067   7.957 -1.8309 -0.7606  1.1251
  141OSM   C17S15453   2.357  -0.068   8.169  0.1348 -0.3502 -0.2514
  141OSM   H17S15454   2.250  -0.098   8.166  0.0750 -0.2380  0.5336
  141OSM   H17T15455   2.349   0.043   8.181 -1.7552 -0.2635 -1.8902
  141OSM   C18S15456   2.435  -0.130   8.281 -0.0444  0.1399 -0.1873
  141OSM   H18S15457   2.398  -0.096   8.381  1.0249  0.5560  0.0842
  141OSM   H18T15458   2.538  -0.089   8.276  0.5980 -1.3828  0.1222
  141OSM   H18U15459   2.438  -0.241   8.283 -1.7480  0.0585  0.6807
  141OSM    C1F15460   3.221   0.589   7.101 -0.5428  0.3953  0.0325
  141OSM     OF15461   3.180   0.688   7.039  0.4200  0.5939 -0.0149
  141OSM    C2F15462   3.275   0.604   7.244  0.8854  0.4409  0.1670
  141OSM    H2F15463   3.386   0.594   7.246  0.8063 -2.1939 -1.9263
  141OSM    H2G15464   3.237   0.520   7.306 -0.0376  1.4937  1.0564
  141OSM    C3F15465   3.226   0.735   7.314  0.1089 -0.6848 -0.3777
  141OSM    H3F15466   3.116   0.751   7.309  0.3965  2.3359  0.8395
  141OSM    H3G15467   3.266   0.831   7.275 -2.0682  0.8959  1.0337
  141OSM    C4F15468   3.255   0.728   7.468 -1.3767  0.2925  0.0305
  141OSM    H4F15469   3.364   0.747   7.472 -1.7120  2.4816  0.0403
  141OSM    H4G15470   3.246   0.622   7.503  3.4019 -0.9536 -1.7662
  141OSM    C5F15471   3.174   0.821   7.560  0.6849 -0.0376  0.2506
  141OSM    H5F15472   3.070   0.783   7.562  0.4321  0.6030  2.9511
  141OSM    H5G15473   3.184   0.924   7.519  1.3390 -0.1321  0.1517
  141OSM    C6F15474   3.201   0.811   7.708  0.3056 -0.6411 -0.3365
  141OSM    H6F15475   3.155   0.895   7.765  0.9764  1.8202 -3.1508
  141OSM    H6G15476   3.310   0.805   7.728  0.2923 -2.8324 -0.6274
  141OSM    C7F15477   3.148   0.681   7.775 -0.0919 -0.4176  0.0574
  141OSM    H7F15478   3.201   0.597   7.724  2.7953  2.7014 -2.5313
  141OSM    H7G15479   3.040   0.665   7.755 -0.0481 -0.2840 -0.2866
  141OSM    C8F15480   3.165   0.660   7.924 -0.4224 -0.5729 -0.4695
  141OSM    H8F15481   3.101   0.736   7.975  2.4498  1.4592  0.3537
  141OSM    H8G15482   3.268   0.692   7.951 -0.6272  0.7726 -1.1932
  141OSM    C9F15483   3.154   0.522   7.984 -0.1699 -0.0500  0.3887
  141OSM    H9F15484   3.190   0.439   7.921 -0.4014  0.3982 -0.3407
  141OSM   C10F15485   3.101   0.495   8.104 -0.6823  0.5127  0.0118
  141OSM   H10F15486   3.107   0.391   8.140  2.2392 -0.3048 -2.3480
  141OSM   C11F15487   3.052   0.599   8.199 -0.5346 -0.2135  0.0889
  141OSM   H11F15488   3.008   0.550   8.288 -1.2048  2.0941  1.1225
  141OSM   H11G15489   2.971   0.659   8.152  0.6783  1.5553  0.1540
  141OSM   C12F15490   3.170   0.683   8.262 -1.0615  0.1841 -0.1404
  141OSM   H12F15491   3.116   0.756   8.327 -0.5828 -0.8414  1.4830
  141OSM   H12G15492   3.217   0.751   8.188 -0.8257 -0.6052 -0.7313
  141OSM   C13F15493   3.273   0.604   8.351 -1.2854  0.1162  0.2187
  141OSM   H13F15494   3.339   0.548   8.281 -1.4140 -0.3592  0.4703
  141OSM   H13G15495   3.232   0.525   8.418  0.4122 -1.5481 -0.5790
  141OSM   C14F15496   3.349   0.693   8.447  0.1359 -0.0724  0.8744
  141OSM   H14F15497   3.326   0.800   8.426 -0.3210 -0.4413 -0.6112
  141OSM   H14G15498   3.457   0.686   8.422  0.1558  1.6605  0.2856
  141OSM   C15F15499   3.325   0.655   8.598 -0.3978  0.2633  0.4149
  141OSM   H15F15500   3.391   0.705   8.672  0.7873  0.5542 -0.8070
  141OSM   H15G15501   3.354   0.548   8.600  1.4209  0.6151 -1.9573
  141OSM   C16F15502   3.180   0.683   8.630  0.5203 -1.0185  0.1297
  141OSM   H16F15503   3.116   0.653   8.545 -0.9583  0.6983  0.5700
  141OSM   H16G15504   3.167   0.794   8.635 -0.3090 -1.1623  2.0937
  141OSM   C17F15505   3.121   0.630   8.763 -0.0574 -0.6959 -0.0201
  141OSM   H17F15506   3.198   0.658   8.839  0.1520  0.0677 -0.4972
  141OSM   H17G15507   3.112   0.519   8.767  1.8314 -0.8730  0.6541
  141OSM   C18F15508   2.982   0.693   8.789  0.2377  0.6531 -0.4692
  141OSM   H18F15509   2.993   0.800   8.819  1.4481  0.8400 -1.4794
  141OSM   H18G15510   2.942   0.640   8.878 -2.4831  0.3133 -1.8149
  141OSM   H18H15511   2.908   0.683   8.707 -0.8649 -0.8769  0.6577
  142OSM      N15512   3.373   1.940   6.307  0.1143 -0.1602 -0.1944
  142OSM    C1515513   3.458   2.039   6.235  0.5809 -0.1658  0.4531
  142OSM   H15A15514   3.434   2.041   6.130  1.6342 -0.5127  0.1933
  142OSM   H15B15515   3.563   2.019   6.247  0.3382 -2.2120 -0.5128
  142OSM   H15C15516   3.458   2.137   6.280 -3.6671  0.6818 -0.9544
  142OSM    C1415517   3.359   1.815   6.238 -0.6284 -0.4239 -0.0948
  142OSM   H14A15518   3.449   1.756   6.243  0.6328  1.3250 -1.2340
  142OSM   H14B15519   3.337   1.831   6.134 -1.0153  0.0799  0.0552
  142OSM   H14C15520   3.287   1.749   6.284  0.0654 -1.5711 -0.6360
  142OSM    C1315521   3.438   1.923   6.439 -0.2335 -0.5543  0.0928
  142OSM   H13A15522   3.386   1.847   6.495  1.7829 -1.3814  0.9370
  142OSM   H13B15523   3.434   2.013   6.499  1.3768 -0.5255  0.2238
  142OSM   H13C15524   3.545   1.910   6.426  0.4698  3.1744  1.0294
  142OSM    C1215525   3.233   1.998   6.329 -0.0018 -0.4780 -0.4548
  142OSM   H12A15526   3.166   1.916   6.352  1.8087 -1.6638  0.7846
  142OSM   H12B15527   3.196   2.039   6.236 -1.3523 -2.1789 -0.7116
  142OSM    C1115528   3.216   2.115   6.437  0.4878  0.5502  0.7469
  142OSM   H11A15529   3.257   2.062   6.526  1.8594 -1.1111 -0.7936
  142OSM   H11B15530   3.107   2.132   6.447  0.4483  1.3046 -0.7483
  142OSM      P15531   3.228   2.346   6.312 -0.2272 -0.1042  0.0659
  142OSM    O1315532   3.351   2.427   6.272 -0.1242  0.3189 -0.1635
  142OSM    O1415533   3.147   2.278   6.211  0.2326  0.1649 -0.4682
  142OSM    O1115534   3.137   2.440   6.404  0.6012  0.5660  0.0536
  142OSM    O1215535   3.287   2.231   6.407  0.5526  0.2660  0.4774
  142OSM    C1S15536   3.127   2.411   6.545  0.3003  0.4369 -0.5324
  142OSM    H1S15537   3.224   2.389   6.593 -0.0356 -1.0726 -0.5048
  142OSM    H1T15538   3.056   2.328   6.564  1.1051  0.0448  0.9372
  142OSM     NF15539   3.095   2.522   6.770 -0.4719  0.2801 -0.0436
  142OSM    HNF15540   3.011   2.510   6.822  0.9156 -0.7731  2.0996
  142OSM    C2S15541   3.075   2.540   6.623 -0.5074  0.3271 -0.3144
  142OSM    H2S15542   3.134   2.625   6.582  1.2420 -0.6346  0.1036
  142OSM    C3S15543   2.928   2.569   6.587  0.2312  0.0292 -0.0496
  142OSM    H3S15544   2.869   2.483   6.625 -1.8274  2.0160  1.6216
  142OSM     O315545   2.902   2.573   6.443  0.2324 -0.1739 -0.0161
  142OSM    HO315546   2.977   2.523   6.411  1.1343  1.0303  0.1504
  142OSM    C4S15547   2.873   2.687   6.656 -0.3687  0.1406  0.2129
  142OSM    H4S15548   2.819   2.664   6.749  0.6278 -0.6109  0.6243
  142OSM    C5S15549   2.884   2.814   6.622 -0.6959 -0.1279 -0.1212
  142OSM    H5S15550   2.916   2.842   6.520 -1.6905  1.0433 -0.1462
  142OSM    C6S15551   2.815   2.925   6.692 -0.5655 -0.2926 -0.5475
  142OSM    H6S15552   2.734   2.966   6.628  0.0749  0.4109 -0.9216
  142OSM    H6T15553   2.885   3.008   6.718 -2.0111  0.8288 -0.1223
  142OSM    C7S15554   2.746   2.902   6.829  0.2280  0.5351 -0.4715
  142OSM    H7S15555   2.694   2.804   6.826  0.5676  0.3562 -0.6183
  142OSM    H7T15556   2.669   2.979   6.850  0.4043  1.4781 -2.9555
  142OSM    C8S15557   2.843   2.909   6.953  0.4557 -0.3809  0.0476
  142OSM    H8S15558   2.884   3.011   6.969  0.2490 -0.5025  1.5185
  142OSM    H8T15559   2.926   2.840   6.925  0.2187 -0.9221  0.6445
  142OSM    C9S15560   2.782   2.857   7.086  0.3025 -0.0980  0.4709
  142OSM    H9S15561   2.722   2.774   7.045 -1.8248  1.9780 -0.8166
  142OSM    H9T15562   2.716   2.936   7.127  0.3576  1.2082 -1.8067
  142OSM   C10S15563   2.888   2.811   7.186  0.2216 -0.3109  0.1464
  142OSM   H10S15564   2.948   2.904   7.194  1.0267 -0.7017 -1.0073
  142OSM   H10T15565   2.944   2.723   7.148 -0.1693  0.3690 -2.1674
  142OSM   C11S15566   2.822   2.777   7.317 -0.3410  0.2936 -0.2012
  142OSM   H11S15567   2.751   2.694   7.294  1.1127 -1.0932  0.1293
  142OSM   H11T15568   2.762   2.865   7.349  2.7315  2.7825 -0.7990
  142OSM   C12S15569   2.930   2.733   7.415 -0.1452 -0.1158 -0.2233
  142OSM   H12S15570   3.007   2.813   7.422 -2.0882  2.0950 -2.2281
  142OSM   H12T15571   2.978   2.640   7.379 -0.2305 -0.1178 -0.3297
  142OSM   C13S15572   2.868   2.707   7.550  0.1715 -0.3746  0.3186
  142OSM   H13S15573   2.794   2.624   7.544 -0.5953  0.2507  0.9568
  142OSM   H13T15574   2.816   2.797   7.587  1.6990  0.1209  1.3199
  142OSM   C14S15575   2.967   2.669   7.656 -0.2297  0.1385  0.1840
  142OSM   H14S15576   3.046   2.747   7.666  0.0316 -0.1681  0.5445
  142OSM   H14T15577   3.012   2.573   7.624  0.3743  0.2884  0.5644
  142OSM   C15S15578   2.893   2.630   7.782  0.7666  0.6758  0.7188
  142OSM   H15S15579   2.865   2.524   7.767  3.5404  0.0021 -0.2304
  142OSM   H15T15580   2.799   2.688   7.797  0.8188  0.8238  0.4772
  142OSM   C16S15581   2.989   2.634   7.899 -0.0545 -0.1095 -0.8169
  142OSM   H16S15582   3.029   2.734   7.925 -0.3977  0.1798 -1.4034
  142OSM   H16T15583   3.086   2.594   7.861 -0.3853 -2.2597  0.4166
  142OSM   C17S15584   2.934   2.551   8.012 -0.2605 -0.2754  0.4623
  142OSM   H17S15585   2.952   2.444   7.989  1.3704  0.2755 -1.0487
  142OSM   H17T15586   2.824   2.568   8.015 -0.1796  0.1673  1.1875
  142OSM   C18S15587   2.986   2.597   8.148  0.0739  0.1065 -0.3791
  142OSM   H18S15588   2.954   2.533   8.233 -0.0035  1.1646  0.4103
  142OSM   H18T15589   2.957   2.702   8.166 -2.0638 -0.4610 -0.2569
  142OSM   H18U15590   3.096   2.589   8.160  0.1141  1.9436  0.9333
  142OSM    C1F15591   3.211   2.525   6.836 -0.7135 -0.1554 -0.5292
  142OSM     OF15592   3.312   2.573   6.781  0.3005  0.0436 -0.4116
  142OSM    C2F15593   3.221   2.476   6.971 -0.2771 -0.2526 -0.3604
  142OSM    H2F15594   3.146   2.397   6.993 -0.2052  0.2289  1.9415
  142OSM    H2G15595   3.188   2.555   7.043  0.0728 -0.5870  0.1735
  142OSM    C3F15596   3.363   2.411   7.000 -0.5092  0.0976  0.1339
  142OSM    H3F15597   3.443   2.485   6.978 -1.3665  0.6654 -1.2384
  142OSM    H3G15598   3.364   2.324   6.932  1.3729  0.2999 -0.1323
  142OSM    C4F15599   3.380   2.366   7.143  1.1348  0.3739 -0.2309
  142OSM    H4F15600   3.487   2.339   7.157  0.6059 -2.4668 -1.0642
  142OSM    H4G15601   3.315   2.278   7.162 -0.9549  2.4928  3.7872
  142OSM    C5F15602   3.324   2.459   7.244 -0.4932  0.2500  0.1751
  142OSM    H5F15603   3.215   2.475   7.231 -0.3860  0.0902 -0.9958
  142OSM    H5G15604   3.389   2.549   7.244  0.4620 -0.3288  2.8199
  142OSM    C6F15605   3.347   2.400   7.387  0.2307 -0.2108  0.2018
  142OSM    H6F15606   3.448   2.429   7.420 -0.1577  0.4201  0.8517
  142OSM    H6G15607   3.359   2.289   7.381  0.4862 -0.1838  0.2039
  142OSM    C7F15608   3.243   2.439   7.493 -0.0647 -0.1100  0.2114
  142OSM    H7F15609   3.194   2.529   7.449  0.8642 -0.5147 -1.7201
  142OSM    H7G15610   3.287   2.483   7.585 -2.2120  1.1869  0.7064
  142OSM    C8F15611   3.137   2.334   7.519  0.0089 -0.3080  0.2240
  142OSM    H8F15612   3.092   2.298   7.424 -0.8719  1.6124 -0.1294
  142OSM    H8G15613   3.046   2.371   7.571 -0.4905 -0.1923 -0.7102
  142OSM    C9F15614   3.199   2.216   7.593 -0.5609  0.1219 -0.0109
  142OSM    H9F15615   3.285   2.177   7.536 -0.6266  0.1729 -0.1455
  142OSM   C10F15616   3.167   2.161   7.712  0.0346  0.4805  0.1516
  142OSM   H10F15617   3.231   2.082   7.755  0.7241  0.7682 -0.3186
  142OSM   C11F15618   3.059   2.225   7.797  0.6669 -0.5000  0.1628
  142OSM   H11F15619   2.961   2.188   7.759  0.0689 -0.7365  1.8648
  142OSM   H11G15620   3.055   2.335   7.784 -2.1117 -0.4554  0.7072
  142OSM   C12F15621   3.072   2.184   7.943 -0.3105  0.0936  0.1485
  142OSM   H12F15622   3.080   2.073   7.950 -1.0048 -0.1080 -1.5849
  142OSM   H12G15623   2.979   2.217   7.995 -0.2176  2.0932 -0.8572
  142OSM   C13F15624   3.193   2.235   8.022 -0.4824 -1.0627 -0.2412
  142OSM   H13F15625   3.179   2.344   8.041  1.6117 -0.5389 -1.3735
  142OSM   H13G15626   3.281   2.235   7.954  1.0788  2.0495  1.5521
  142OSM   C14F15627   3.232   2.168   8.158  0.6521  0.2214 -0.3709
  142OSM   H14F15628   3.333   2.122   8.154  0.5750  0.0607 -0.5010
  142OSM   H14G15629   3.177   2.073   8.171 -0.8952  1.1620  0.2456
  142OSM   C15F15630   3.222   2.240   8.291  1.1610  0.2139 -0.2126
  142OSM   H15F15631   3.288   2.329   8.299 -1.2144  2.0125  0.5752
  142OSM   H15G15632   3.262   2.165   8.363 -0.7012 -0.7040 -0.0546
  142OSM   C16F15633   3.088   2.300   8.346 -0.1156  0.1621  0.0771
  142OSM   H16F15634   3.025   2.217   8.387  0.4803 -1.1963 -1.6099
  142OSM   H16G15635   3.036   2.337   8.255  1.3966 -0.5223 -1.1040
  142OSM   C17F15636   3.109   2.412   8.452 -0.4854  0.2828 -0.2929
  142OSM   H17F15637   3.168   2.495   8.409 -0.1530  0.1691 -0.0554
  142OSM   H17G15638   3.164   2.362   8.534 -1.4760  2.5060  1.8286
  142OSM   C18F15639   2.981   2.467   8.516  0.3150  0.0141 -0.4105
  142OSM   H18F15640   3.004   2.543   8.594 -0.5918  0.5750 -0.6816
  142OSM   H18G15641   2.912   2.394   8.562 -0.8591  2.7323  2.4713
  142OSM   H18H15642   2.931   2.527   8.438  2.3498  4.0305  1.0741
  143OSM      N15643   3.216   4.664   6.353  0.0778  0.0212 -0.6715
  143OSM    C1515644   3.069   4.698   6.356  0.1639 -0.5310 -0.1261
  143OSM   H15A15645   3.043   4.783   6.417 -0.5315  0.1727 -1.3613
  143OSM   H15B15646   3.016   4.614   6.398  0.3252 -0.7851 -0.4225
  143OSM   H15C15647   3.022   4.704   6.259 -0.2700  1.3572  0.1667
  143OSM    C1415648   3.260   4.628   6.488 -0.0103 -0.4798  0.3963
  143OSM   H14A15649   3.360   4.588   6.483 -0.0438 -0.4599 -1.3223
  143OSM   H14B15650   3.203   4.553   6.540 -1.2140  0.8854  1.0815
  143OSM   H14C15651   3.253   4.712   6.555  0.2998  0.7904 -1.0796
  143OSM    C1315652   3.221   4.548   6.264  0.3046  0.3072  0.2515
  143OSM   H13A15653   3.197   4.576   6.163  2.6346  1.8930  0.0499
  143OSM   H13B15654   3.162   4.464   6.299 -0.1778  0.0305 -1.1399
  143OSM   H13C15655   3.324   4.519   6.251 -0.1384 -0.2239 -2.9027
  143OSM    C1215656   3.300   4.777   6.294  0.6957  0.1824 -0.3136
  143OSM   H12A15657   3.283   4.863   6.356  0.1691  1.1856 -1.7934
  143OSM   H12B15658   3.260   4.800   6.196 -3.1996 -0.3944  0.9691
  143OSM    C1115659   3.454   4.751   6.279  0.3022 -0.1976  0.4789
  143OSM   H11A15660   3.487   4.840   6.221 -0.5425  0.6480  1.2753
  143OSM   H11B15661   3.471   4.661   6.216  0.5741  1.5160 -2.0423
  143OSM      P15662   3.605   4.597   6.431 -0.0833 -0.0034  0.5579
  143OSM    O1315663   3.545   4.484   6.362 -0.1769  0.1065 -0.5529
  143OSM    O1415664   3.752   4.612   6.411 -0.9628  0.8567  0.1480
  143OSM    O1115665   3.576   4.584   6.581 -0.8458  0.4633 -0.3847
  143OSM    O1215666   3.529   4.739   6.400  0.2377  0.3546  0.1210
  143OSM    C1S15667   3.613   4.703   6.654  0.2977  0.2995  0.2120
  143OSM    H1S15668   3.564   4.793   6.611 -2.7859 -0.5850  1.5959
  143OSM    H1T15669   3.723   4.718   6.661  0.5111 -0.7682 -0.5877
  143OSM     NF15670   3.591   4.833   6.865  0.1758 -0.0126 -0.0051
  143OSM    HNF15671   3.677   4.850   6.913 -0.4216 -0.8079  1.4133
  143OSM    C2S15672   3.570   4.704   6.804 -0.3883  0.2718 -0.0504
  143OSM    H2S15673   3.465   4.668   6.804 -0.3157  0.0414  0.7226
  143OSM    C3S15674   3.641   4.584   6.877  0.7674  0.4341  0.2473
  143OSM    H3S15675   3.750   4.604   6.871  0.6784  1.7034  1.9741
  143OSM     O315676   3.621   4.459   6.806 -0.7243  0.0173  0.1695
  143OSM    HO315677   3.582   4.497   6.726  1.7482  0.5989 -0.8377
  143OSM    C4S15678   3.605   4.575   7.023 -0.3309 -0.6293 -0.2638
  143OSM    H4S15679   3.668   4.641   7.084  2.7912 -4.6698  1.4147
  143OSM    C5S15680   3.537   4.485   7.091  0.4514  0.1997 -0.0204
  143OSM    H5S15681   3.509   4.392   7.038  0.0923 -0.2449  0.9339
  143OSM    C6S15682   3.530   4.491   7.238 -0.7271  0.4854 -0.4222
  143OSM    H6S15683   3.439   4.435   7.267  0.0994 -0.8950 -0.4201
  143OSM    H6T15684   3.507   4.591   7.280 -3.4611 -0.1241 -0.2446
  143OSM    C7S15685   3.642   4.412   7.318 -0.0505  0.5741  0.2790
  143OSM    H7S15686   3.740   4.460   7.296 -0.4698  1.5091  0.4205
  143OSM    H7T15687   3.644   4.310   7.273 -0.7677  1.1257 -1.0265
  143OSM    C8S15688   3.630   4.421   7.468  0.0680 -0.6592  0.4068
  143OSM    H8S15689   3.547   4.360   7.511 -0.5705  0.0390  0.1779
  143OSM    H8T15690   3.598   4.526   7.487  0.7355 -0.0738 -1.4867
  143OSM    C9S15691   3.754   4.385   7.535 -0.6356 -0.2927 -0.5964
  143OSM    H9S15692   3.844   4.440   7.499  1.0706 -3.2106 -1.1317
  143OSM    H9T15693   3.787   4.279   7.531 -0.2244 -0.2154  0.5638
  143OSM   C10S15694   3.748   4.429   7.683  1.5693 -0.7983  0.2622
  143OSM   H10S15695   3.727   4.538   7.693  0.9881 -1.0682  2.3383
  143OSM   H10T15696   3.853   4.421   7.718  0.9120  0.3060  2.7133
  143OSM   C11S15697   3.669   4.330   7.769 -0.8673 -0.2202 -0.0077
  143OSM   H11S15698   3.721   4.232   7.779  1.2140  0.8559  0.2421
  143OSM   H11T15699   3.572   4.308   7.721 -1.4342 -0.2401  1.1163
  143OSM   C12S15700   3.651   4.373   7.914 -0.2649 -0.6177 -0.1850
  143OSM   H12S15701   3.603   4.288   7.967 -3.1842  1.9719  1.6886
  143OSM   H12T15702   3.569   4.447   7.922  1.4574  1.6170 -1.9328
  143OSM   C13S15703   3.765   4.424   7.996 -0.9022 -0.4490  0.1575
  143OSM   H13S15704   3.861   4.404   7.943 -0.2438 -2.1830  1.8972
  143OSM   H13T15705   3.772   4.359   8.086 -0.5465  0.9859  1.1889
  143OSM   C14S15706   3.760   4.571   8.048  0.1108  0.3915  0.1014
  143OSM   H14S15707   3.757   4.646   7.966  0.3305  0.0805 -0.1922
  143OSM   H14T15708   3.848   4.603   8.108  1.9554  1.3541 -2.9007
  143OSM   C15S15709   3.644   4.601   8.151 -0.6411  0.7700  0.2652
  143OSM   H15S15710   3.636   4.536   8.241 -0.1790 -1.7713 -1.4162
  143OSM   H15T15711   3.549   4.587   8.095 -1.3730  2.4988  1.0090
  143OSM   C16S15712   3.659   4.743   8.206  0.0941 -0.5737 -1.3219
  143OSM   H16S15713   3.631   4.804   8.117 -2.7852  0.3039  0.0764
  143OSM   H16T15714   3.763   4.761   8.241 -0.4182 -1.3486  0.6857
  143OSM   C17S15715   3.561   4.770   8.314 -0.5232 -0.0042 -0.4816
  143OSM   H17S15716   3.581   4.694   8.394 -0.5703 -1.5734 -1.8990
  143OSM   H17T15717   3.460   4.752   8.271  0.8109 -0.4539 -3.7431
  143OSM   C18S15718   3.568   4.908   8.383 -1.0160  0.0804  0.1319
  143OSM   H18S15719   3.539   4.989   8.313 -0.1817 -1.3541 -1.9514
  143OSM   H18T15720   3.676   4.908   8.409 -1.0999 -2.3988  0.7635
  143OSM   H18U15721   3.494   4.907   8.466 -3.5323 -0.8873 -1.9836
  143OSM    C1F15722   3.509   4.930   6.840  0.6076  0.1825  0.0352
  143OSM     OF15723   3.407   4.900   6.775  0.4829  0.0372  0.5682
  143OSM    C2F15724   3.534   5.071   6.886 -0.4634  0.4714 -0.3384
  143OSM    H2F15725   3.512   5.134   6.797  0.2001  2.2402  0.6877
  143OSM    H2G15726   3.640   5.085   6.918  0.0358 -2.6121 -0.3646
  143OSM    C3F15727   3.437   5.120   7.000  0.5446 -0.1453  0.2420
  143OSM    H3F15728   3.335   5.141   6.961  0.5213 -0.0107  0.3775
  143OSM    H3G15729   3.485   5.203   7.057  1.3456 -1.5026  1.6125
  143OSM    C4F15730   3.398   5.033   7.116 -0.2956  0.3500 -0.0263
  143OSM    H4F15731   3.350   4.937   7.086  0.2939  0.2909 -0.8044
  143OSM    H4G15732   3.326   5.098   7.169  0.5749  0.6002  0.8868
  143OSM    C5F15733   3.509   4.979   7.204 -0.0274  0.3564 -0.0127
  143OSM    H5F15734   3.567   5.057   7.258  0.0475 -0.3209  0.9093
  143OSM    H5G15735   3.569   4.905   7.147 -1.4400 -0.7328 -0.1356
  143OSM    C6F15736   3.445   4.887   7.317 -0.5793 -0.2591 -0.0357
  143OSM    H6F15737   3.391   4.809   7.259 -2.6548  2.0343 -1.3837
  143OSM    H6G15738   3.365   4.945   7.367 -0.3055 -0.2154  0.3533
  143OSM    C7F15739   3.551   4.842   7.403  0.1793  0.0838 -0.7105
  143OSM    H7F15740   3.610   4.929   7.438  1.9797 -1.4774  0.3976
  143OSM    H7G15741   3.623   4.780   7.346  0.2133  0.0365 -0.6180
  143OSM    C8F15742   3.513   4.774   7.534 -0.5048  0.5105  0.1110
  143OSM    H8F15743   3.606   4.745   7.588 -0.9397 -2.5348 -0.5491
  143OSM    H8G15744   3.452   4.684   7.511 -3.5154  2.8161 -1.6472
  143OSM    C9F15745   3.437   4.865   7.620 -0.4454 -0.1869 -0.7004
  143OSM    H9F15746   3.331   4.880   7.594  0.0319  2.4004 -1.4742
  143OSM   C10F15747   3.481   4.937   7.727  0.0154 -0.5829  0.1303
  143OSM   H10F15748   3.413   5.001   7.785  0.5391  0.3536 -0.2755
  143OSM   C11F15749   3.615   4.942   7.794  0.2169  0.1434 -0.3527
  143OSM   H11F15750   3.688   4.907   7.718 -2.3533 -1.6299 -2.1674
  143OSM   H11G15751   3.619   4.879   7.885 -0.1139 -1.4033 -1.3796
  143OSM   C12F15752   3.657   5.096   7.828 -0.2311 -0.0389  0.4177
  143OSM   H12F15753   3.681   5.157   7.738  0.3047 -1.0962 -0.1844
  143OSM   H12G15754   3.747   5.072   7.890 -1.1168  0.4094  1.9168
  143OSM   C13F15755   3.562   5.169   7.922 -0.3480  0.3980  0.0746
  143OSM   H13F15756   3.526   5.098   7.999  3.2547  0.5397  2.1300
  143OSM   H13G15757   3.481   5.221   7.867 -0.0200  0.3109 -0.4936
  143OSM   C14F15758   3.620   5.277   8.003  0.4634 -0.4509 -0.2127
  143OSM   H14F15759   3.665   5.350   7.933 -0.0716  0.9289  0.8257
  143OSM   H14G15760   3.704   5.244   8.067 -2.1821 -0.6110  3.5071
  143OSM   C15F15761   3.517   5.350   8.093  0.7386 -0.2053  0.1589
  143OSM   H15F15762   3.417   5.368   8.048  1.1529  0.5351 -0.4936
  143OSM   H15G15763   3.556   5.452   8.112 -3.6265  1.6842  0.1196
  143OSM   C16F15764   3.506   5.288   8.235 -0.0382 -0.4521 -0.0745
  143OSM   H16F15765   3.610   5.283   8.274  0.6181 -3.0161 -1.8292
  143OSM   H16G15766   3.467   5.184   8.226  2.0799 -1.4351  1.3084
  143OSM   C17F15767   3.416   5.376   8.326 -0.2656 -0.5769 -0.4630
  143OSM   H17F15768   3.384   5.306   8.406 -2.6040 -0.0884 -0.8738
  143OSM   H17G15769   3.327   5.414   8.270 -0.9859  2.1328  2.2671
  143OSM   C18F15770   3.494   5.488   8.401  0.7136  0.3524  0.5527
  143OSM   H18F15771   3.427   5.568   8.439  1.3864  0.9040  0.5990
  143OSM   H18G15772   3.561   5.546   8.334  1.9005 -2.0843 -0.4703
  143OSM   H18H15773   3.557   5.449   8.484  0.5519 -3.1163 -0.8001
  144OSM      N15774   3.848   4.258   5.914  0.0246  0.3420  0.6116
  144OSM    C1515775   3.732   4.165   5.889  0.3584 -0.0859 -0.3215
  144OSM   H15A15776   3.744   4.099   5.804 -3.0650 -2.0103  0.4900
  144OSM   H15B15777   3.640   4.221   5.884  0.4617 -0.0373 -3.2078
  144OSM   H15C15778   3.724   4.097   5.972 -0.4179 -0.7869 -0.9509
  144OSM    C1415779   3.973   4.180   5.896 -0.0192 -0.0020  0.2457
  144OSM   H14A15780   3.980   4.107   5.976 -3.3952  0.9467  1.5846
  144OSM   H14B15781   4.062   4.242   5.898 -0.1564  0.2436 -0.8420
  144OSM   H14C15782   3.972   4.129   5.801 -0.1124 -0.1139  0.3073
  144OSM    C1315783   3.845   4.373   5.804 -0.1220 -0.2652 -0.2102
  144OSM   H13A15784   3.763   4.444   5.814  1.1498  1.2596 -0.1331
  144OSM   H13B15785   3.831   4.318   5.712 -2.5179 -1.6752  0.9104
  144OSM   H13C15786   3.937   4.429   5.796 -0.2607  0.1854  1.0533
  144OSM    C1215787   3.836   4.324   6.049 -0.8508  0.0928  0.2127
  144OSM   H12A15788   3.747   4.384   6.040  0.9680  2.7390 -1.8757
  144OSM   H12B15789   3.917   4.394   6.062 -0.2263 -0.2882 -1.3630
  144OSM    C1115790   3.824   4.231   6.173 -0.5380  0.1977 -0.0665
  144OSM   H11A15791   3.852   4.285   6.266 -0.0378 -0.8822  0.4293
  144OSM   H11B15792   3.903   4.154   6.163 -1.2109 -0.8102  1.8632
  144OSM      P15793   3.662   4.046   6.261  0.0225  0.0703 -0.2619
  144OSM    O1315794   3.518   4.045   6.286  0.4511  0.2902 -0.2286
  144OSM    O1415795   3.730   3.931   6.188  0.0373 -0.3385 -0.1225
  144OSM    O1115796   3.740   4.080   6.397  0.7408 -0.2363 -0.9193
  144OSM    O1215797   3.691   4.182   6.182  0.5269  0.9974 -0.3805
  144OSM    C1S15798   3.666   4.155   6.496 -0.4008  0.3093 -0.4480
  144OSM    H1S15799   3.564   4.114   6.511 -0.8191  0.8405 -1.7316
  144OSM    H1T15800   3.643   4.261   6.472 -1.0699  0.3098  0.1580
  144OSM     NF15801   3.649   4.194   6.743 -0.3203  0.0305 -0.4834
  144OSM    HNF15802   3.652   4.287   6.780 -0.7908 -0.0906 -0.1250
  144OSM    C2S15803   3.745   4.161   6.637 -0.0890  0.3522  0.1536
  144OSM    H2S15804   3.780   4.057   6.655 -0.6400 -0.2706 -2.1363
  144OSM    C3S15805   3.868   4.258   6.627  0.0225 -0.0242 -0.1953
  144OSM    H3S15806   3.827   4.361   6.640 -1.9109 -1.0546  2.6753
  144OSM     O315807   3.937   4.259   6.503  0.1032 -0.1949 -0.6642
  144OSM    HO315808   3.882   4.203   6.447 -2.1373  0.7968  0.4472
  144OSM    C4S15809   3.972   4.238   6.735 -0.3130 -0.2803  0.3541
  144OSM    H4S15810   3.995   4.132   6.757  1.5066 -0.2800 -1.3020
  144OSM    C5S15811   4.032   4.334   6.811  0.7931 -0.4031 -0.7141
  144OSM    H5S15812   4.025   4.440   6.782  2.7923  0.0157  0.1186
  144OSM    C6S15813   4.129   4.300   6.921  0.3129 -0.5646 -0.6132
  144OSM    H6S15814   4.221   4.362   6.919 -0.1939  0.3127  1.0497
  144OSM    H6T15815   4.166   4.196   6.914  2.0096  0.0099 -0.5529
  144OSM    C7S15816   4.059   4.307   7.061 -0.1267  0.1580 -0.0016
  144OSM    H7S15817   3.968   4.243   7.061 -0.9639  1.3068  0.1467
  144OSM    H7T15818   4.023   4.412   7.066  1.1338  0.6625 -1.0055
  144OSM    C8S15819   4.148   4.282   7.176  0.3110 -0.1526 -0.4196
  144OSM    H8S15820   4.225   4.362   7.175 -0.2641  0.4057 -0.9481
  144OSM    H8T15821   4.195   4.183   7.159  1.1566  0.2212 -0.2805
  144OSM    C9S15822   4.074   4.301   7.312  0.4893 -0.6769 -0.1645
  144OSM    H9S15823   4.005   4.215   7.317  0.4028 -0.5278  2.8493
  144OSM    H9T15824   4.013   4.393   7.322  1.1405 -0.2068 -0.4216
  144OSM   C10S15825   4.172   4.294   7.433  0.3854  0.1382 -0.7065
  144OSM   H10S15826   4.266   4.354   7.432  0.7678 -0.3861  0.9227
  144OSM   H10T15827   4.205   4.188   7.435  1.0288  0.3258 -1.0469
  144OSM   C11S15828   4.105   4.306   7.569  0.2052 -0.4488 -0.0901
  144OSM   H11S15829   4.013   4.244   7.569  1.0074 -1.7166  1.2673
  144OSM   H11T15830   4.070   4.411   7.582  0.5876  0.3303 -4.2242
  144OSM   C12S15831   4.190   4.251   7.688 -0.1213 -0.7245 -0.1993
  144OSM   H12S15832   4.284   4.310   7.690 -0.4944  0.0845 -2.8628
  144OSM   H12T15833   4.217   4.145   7.669 -1.4183 -1.4271  1.5667
  144OSM   C13S15834   4.115   4.261   7.823 -0.1778 -0.1275  0.3042
  144OSM   H13S15835   4.040   4.180   7.820 -0.5509  0.0956  2.1864
  144OSM   H13T15836   4.068   4.362   7.826  2.1604  1.0787 -0.5101
  144OSM   C14S15837   4.208   4.249   7.944 -0.9569  0.8007  0.4246
  144OSM   H14S15838   4.279   4.334   7.951 -0.6304  0.6560 -0.8085
  144OSM   H14T15839   4.275   4.160   7.939 -1.2410  0.6273 -0.5499
  144OSM   C15S15840   4.126   4.241   8.068  0.4917  0.2963  1.4110
  144OSM   H15S15841   4.035   4.177   8.066 -0.6209  1.7874  2.2139
  144OSM   H15T15842   4.069   4.336   8.073  2.6696  1.7632  0.0766
  144OSM   C16S15843   4.187   4.211   8.210 -0.1426 -0.3271 -0.0440
  144OSM   H16S15844   4.106   4.222   8.284 -1.5313  1.1015 -1.6843
  144OSM   H16T15845   4.254   4.299   8.223 -2.3155  1.2084  1.1995
  144OSM   C17S15846   4.256   4.074   8.233 -0.0660  0.3132  0.1142
  144OSM   H17S15847   4.341   4.063   8.163 -0.2879  0.2440 -0.1487
  144OSM   H17T15848   4.179   3.996   8.212  0.0294  0.2960 -0.1740
  144OSM   C18S15849   4.313   4.067   8.378  0.4628  0.1604  0.3417
  144OSM   H18S15850   4.223   4.044   8.440 -0.4291  2.1084 -0.1719
  144OSM   H18T15851   4.365   4.158   8.413 -2.0561  0.8886  2.5185
  144OSM   H18U15852   4.382   3.981   8.394 -2.5691 -2.6107 -0.2390
  144OSM    C1F15853   3.559   4.112   6.787  0.7003 -0.2390  0.2636
  144OSM     OF15854   3.573   3.994   6.756  0.3937 -0.0642 -0.5104
  144OSM    C2F15855   3.443   4.161   6.867  0.1111  0.6678 -0.3269
  144OSM    H2F15856   3.357   4.148   6.799  2.1825 -1.3886 -2.7475
  144OSM    H2G15857   3.457   4.271   6.877  0.8465  0.3759  4.2008
  144OSM    C3F15858   3.434   4.102   7.009 -0.8645  0.3047 -0.1348
  144OSM    H3F15859   3.530   4.115   7.063 -1.3384 -0.3141  0.8922
  144OSM    H3G15860   3.424   3.992   6.998  0.7499  0.0836  0.3715
  144OSM    C4F15861   3.328   4.171   7.091 -0.2261 -0.2654 -0.0660
  144OSM    H4F15862   3.224   4.139   7.071 -2.1950  4.2107  1.7007
  144OSM    H4G15863   3.317   4.278   7.063  0.0939 -0.6598 -1.8765
  144OSM    C5F15864   3.361   4.171   7.239  0.1140 -0.8476 -0.2271
  144OSM    H5F15865   3.324   4.264   7.287  0.1760 -1.4478  1.0144
  144OSM    H5G15866   3.470   4.176   7.257  0.4758 -2.2342 -1.7871
  144OSM    C6F15867   3.312   4.041   7.314 -0.3074 -0.4754 -0.1282
  144OSM    H6F15868   3.352   3.951   7.263  1.4939 -0.1813  0.6737
  144OSM    H6G15869   3.201   4.042   7.314 -0.3400 -1.0816 -1.8241
  144OSM    C7F15870   3.359   4.047   7.460 -0.4108  0.6219 -0.2982
  144OSM    H7F15871   3.293   4.118   7.514  3.2877  3.7504  0.4903
  144OSM    H7G15872   3.461   4.089   7.460 -0.5698  1.0405  0.6169
  144OSM    C8F15873   3.365   3.913   7.543  0.2455  0.4330 -0.4111
  144OSM    H8F15874   3.413   3.946   7.638  0.3737  3.2540 -1.3664
  144OSM    H8G15875   3.424   3.824   7.512 -0.1603 -0.8087  2.0632
  144OSM    C9F15876   3.221   3.872   7.580 -1.0121  0.7305  0.2940
  144OSM    H9F15877   3.159   3.862   7.490 -0.6395 -1.7982  0.2371
  144OSM   C10F15878   3.180   3.834   7.703  0.4653  0.1634 -0.0656
  144OSM   H10F15879   3.074   3.807   7.719  0.2862  0.7191 -0.3194
  144OSM   C11F15880   3.258   3.833   7.828  0.0194  0.9870 -0.9306
  144OSM   H11F15881   3.359   3.792   7.808 -0.9233 -0.7290 -2.4436
  144OSM   H11G15882   3.213   3.754   7.893  0.9736  0.0852 -1.3393
  144OSM   C12F15883   3.264   3.967   7.901  0.3217 -0.5377  0.7428
  144OSM   H12F15884   3.175   3.967   7.968 -1.1029 -0.5779 -1.0620
  144OSM   H12G15885   3.237   4.050   7.832  1.2333 -1.0506 -0.2573
  144OSM   C13F15886   3.396   4.008   7.972 -0.5073 -0.2155  0.1154
  144OSM   H13F15887   3.385   4.113   8.007 -0.5128 -0.2827  0.3104
  144OSM   H13G15888   3.474   4.006   7.893 -0.2849 -1.7135  0.3442
  144OSM   C14F15889   3.449   3.908   8.074  0.7862 -0.4475  0.4987
  144OSM   H14F15890   3.499   3.822   8.024 -0.9568  0.1136 -2.4492
  144OSM   H14G15891   3.369   3.866   8.139  0.4586  0.0992  0.4522
  144OSM   C15F15892   3.549   3.966   8.169 -0.7323 -0.0953 -0.4946
  144OSM   H15F15893   3.573   3.892   8.248 -0.3184 -1.3202 -1.7497
  144OSM   H15G15894   3.509   4.058   8.218 -0.9169  0.7061 -2.0745
  144OSM   C16F15895   3.683   4.022   8.105  0.1094  0.1399 -0.2851
  144OSM   H16F15896   3.668   4.123   8.062 -0.1897  0.9633  1.6806
  144OSM   H16G15897   3.693   3.963   8.011 -3.1874 -0.2456 -0.5008
  144OSM   C17F15898   3.808   4.008   8.197 -0.5608  0.2852 -0.0462
  144OSM   H17F15899   3.884   4.043   8.124 -1.5293 -0.7441 -1.6362
  144OSM   H17G15900   3.820   3.900   8.218  0.1256  0.3675 -0.0117
  144OSM   C18F15901   3.811   4.094   8.319  0.6629 -0.1840  0.1800
  144OSM   H18F15902   3.729   4.053   8.383  2.3225 -3.2552  0.5337
  144OSM   H18G15903   3.781   4.195   8.284 -1.2155 -0.6944  0.2261
  144OSM   H18H15904   3.909   4.092   8.372  0.9827 -2.1932 -0.4279
  145SAPE     N15905   1.438   5.007  10.722  0.0615 -0.3684  0.5572
  145SAPE   HN115906   1.414   5.032  10.624  0.7096 -0.0517  0.4770
  145SAPE   HN215907   1.429   4.905  10.742  2.1816 -0.2903  2.2214
  145SAPE   HN315908   1.367   5.060  10.777  1.2024  2.1046 -0.2386
  145SAPE   C1215909   1.572   5.053  10.765  0.4592 -0.0737  0.3291
  145SAPE  H12A15910   1.609   5.006  10.859  0.5807  0.0121  0.3245
  145SAPE  H12B15911   1.556   5.159  10.790 -0.8028 -0.3227  0.6248
  145SAPE   C1115912   1.665   5.050  10.642 -0.0413 -0.3147 -0.1046
  145SAPE  H11A15913   1.676   4.945  10.607 -0.9913 -0.1445 -0.9645
  145SAPE  H11B15914   1.751   5.093  10.698 -1.2042 -0.2169  1.6869
  145SAPE     P15915   1.648   5.286  10.541 -0.1673  0.0945 -0.0981
  145SAPE   O1315916   1.525   5.353  10.498  0.1495 -0.1775 -0.8486
  145SAPE   O1415917   1.695   5.322  10.679  0.0752 -0.0058  0.3429
  145SAPE   O1215918   1.618   5.129  10.532  0.2551  0.2532  0.7333
  145SAPE   O1115919   1.765   5.307  10.441  0.0134  0.1648  0.1203
  145SAPE    C115920   1.883   5.226  10.467 -0.1804 -0.1639  0.6159
  145SAPE    HA15921   1.912   5.246  10.572 -0.1069  1.5568  0.3109
  145SAPE    HB15922   1.856   5.119  10.453 -0.8519 -0.0130  0.7330
  145SAPE    C215923   1.998   5.249  10.364  0.0220  0.1579 -1.3363
  145SAPE    HS15924   2.020   5.353  10.394 -1.6308  0.1511  0.0125
  145SAPE   O2115925   1.953   5.236  10.228  0.1753  0.2118  0.0791
  145SAPE   C2115926   2.038   5.289  10.141 -0.0572  0.3548 -0.5670
  145SAPE   O2215927   2.126   5.370  10.162 -0.0009  0.5162 -0.5899
  145SAPE   C2215928   1.994   5.242  10.003  0.1186 -0.1512  0.5192
  145SAPE   H2R15929   2.018   5.135   9.988  1.8635  0.2648  0.1518
  145SAPE   H2S15930   1.884   5.255   9.993  0.2028 -0.4870 -1.1504
  145SAPE    C315931   2.113   5.156  10.412 -1.0006 -0.2556 -0.1805
  145SAPE    HX15932   2.160   5.169  10.512 -0.7073 -0.3572 -0.3027
  145SAPE    HY15933   2.203   5.173  10.349  1.4794 -2.2336  2.5326
  145SAPE   O3115934   2.063   5.023  10.402  0.3455 -0.1179 -0.1322
  145SAPE   C3115935   2.085   4.960  10.291  0.1903  0.1953  0.3105
  145SAPE   O3215936   2.133   5.009  10.188  0.4302 -0.7363 -0.2485
  145SAPE   C3215937   2.024   4.830  10.299  0.3493  0.6462 -0.1631
  145SAPE   H2X15938   2.086   4.764  10.363  2.1861  1.0182 -1.4846
  145SAPE   H2Y15939   2.033   4.775  10.203  0.4353 -1.9387  1.2514
  145SAPE   C2315940   2.062   5.318   9.890 -0.1425  0.9592 -0.3864
  145SAPE   H3R15941   2.166   5.278   9.881 -1.2698 -3.2492  2.1876
  145SAPE   H3S15942   2.071   5.426   9.913 -0.9002  0.6554  1.5200
  145SAPE   C2415943   1.979   5.302   9.761 -0.8048 -0.7959 -0.5719
  145SAPE   H4R15944   1.881   5.351   9.776  0.0831  0.8234  0.1748
  145SAPE   H4S15945   1.963   5.196   9.732  1.0277 -1.4303  0.5049
  145SAPE   C2515946   2.050   5.378   9.651 -0.2471 -0.0387  0.1666
  145SAPE   H5R15947   2.011   5.481   9.651 -1.2316 -0.3612 -2.0155
  145SAPE   C2615948   2.149   5.339   9.565  0.8241  0.4886 -0.4544
  145SAPE   H6R15949   2.181   5.409   9.487 -1.0411  2.0742  0.1230
  145SAPE   C2715950   2.211   5.200   9.561  0.1902 -0.0636 -0.1099
  145SAPE   H7R15951   2.164   5.138   9.481  0.3564 -0.9156  0.4407
  145SAPE   H7S15952   2.183   5.139   9.650  3.3217 -1.6566 -0.0948
  145SAPE   C2815953   2.362   5.209   9.540  0.1683 -0.2763 -0.0990
  145SAPE   H8R15954   2.412   5.253   9.628 -0.0965  1.0286 -0.5813
  145SAPE   C2915955   2.434   5.171   9.429  0.1373 -0.4014  0.1518
  145SAPE   H9R15956   2.541   5.196   9.433  0.0866 -0.2744  0.8083
  145SAPE  C21015957   2.371   5.108   9.311  0.4401  0.5236  0.0861
  145SAPE  H10R15958   2.265   5.138   9.301 -0.3564 -2.2774 -0.8463
  145SAPE  H10S15959   2.371   4.999   9.329  0.1003  0.7167  1.3215
  145SAPE  C21115960   2.460   5.125   9.190  0.1905 -0.1435  0.1506
  145SAPE  H11R15961   2.549   5.061   9.196  0.1042 -0.8465 -3.8422
  145SAPE  C21215962   2.445   5.219   9.101  0.7441 -0.2448  0.0942
  145SAPE  H12R15963   2.507   5.221   9.010 -0.2004 -2.5515 -0.6788
  145SAPE  C21315964   2.332   5.321   9.105 -0.0595 -0.1823  0.4261
  145SAPE  H13R15965   2.281   5.325   9.204 -0.3916 -0.7605  0.2827
  145SAPE  H13S15966   2.262   5.293   9.023  2.2880 -1.4623 -1.2351
  145SAPE  C21415967   2.386   5.456   9.083 -0.2207 -0.2848 -0.0528
  145SAPE  H14R15968   2.494   5.465   9.103 -0.0108 -1.4566 -0.6158
  145SAPE  C21515969   2.322   5.569   9.049  0.5057  0.4974  0.0399
  145SAPE  H15R15970   2.377   5.663   9.035  0.9359  0.2481  0.0412
  145SAPE  C21615971   2.171   5.574   9.033 -0.4079 -0.8676 -0.2813
  145SAPE  H16R15972   2.132   5.471   9.015 -0.7376 -0.8343  0.2184
  145SAPE  H16S15973   2.145   5.642   8.949  0.0365  1.5599  1.4338
  145SAPE  C21715974   2.109   5.626   9.164  0.2864  0.6142 -0.4128
  145SAPE  H17R15975   2.129   5.732   9.188  3.1356  0.1877 -0.6305
  145SAPE  H17S15976   2.128   5.555   9.247 -3.6441 -0.2782 -0.0465
  145SAPE  C21815977   1.956   5.613   9.163  0.7358  0.3731 -0.3269
  145SAPE  H18R15978   1.911   5.660   9.253 -1.9048 -0.2582 -1.2259
  145SAPE  H18S15979   1.918   5.509   9.175 -0.7323  1.0936  2.0100
  145SAPE  C21915980   1.897   5.671   9.034  0.0447  0.2842 -0.2318
  145SAPE  H19R15981   1.914   5.601   8.949 -0.0003  2.6058 -2.2568
  145SAPE  H19S15982   1.955   5.760   9.003  0.3249 -0.6181 -2.5127
  145SAPE  C22015983   1.747   5.698   9.041 -0.6245 -0.1685 -0.1660
  145SAPE  H20R15984   1.718   5.722   9.146 -0.4051 -0.0190 -0.1364
  145SAPE  H20S15985   1.682   5.609   9.024 -0.5736 -0.6979  2.0355
  145SAPE  H20T15986   1.716   5.785   8.979 -0.0953 -0.2361 -0.5312
  145SAPE   C3315987   1.870   4.835  10.355 -0.6549  0.4531  0.2470
  145SAPE   H3X15988   1.871   4.868  10.461  0.9288 -1.4354  0.8724
  145SAPE   H3Y15989   1.832   4.732  10.365 -0.3386  0.2361 -0.6807
  145SAPE   C3415990   1.776   4.917  10.264 -0.0211 -0.2424  0.1552
  145SAPE   H4X15991   1.804   5.023  10.279  1.3877 -0.8293  2.1205
  145SAPE   H4Y15992   1.674   4.903  10.307  0.2697  0.6035  1.1642
  145SAPE   C3515993   1.781   4.881  10.117  0.0862 -0.5684  0.5080
  145SAPE   H5X15994   1.869   4.929  10.069  1.1823 -0.6731  2.3238
  145SAPE   H5Y15995   1.695   4.941  10.081  2.0044  0.9136 -1.9300
  145SAPE   C3615996   1.746   4.732  10.080 -0.4320 -0.0634 -0.7447
  145SAPE   H6X15997   1.638   4.725  10.105 -0.3308  1.0908  0.0850
  145SAPE   H6Y15998   1.810   4.660  10.135  1.1498  1.4885 -0.4745
  145SAPE   C3715999   1.791   4.721   9.929 -0.4081 -0.4385  0.1152
  145SAPE   H7X16000   1.900   4.714   9.912 -0.6893 -1.9298 -1.3005
  145SAPE   H7Y16001   1.759   4.809   9.868  0.9778 -0.7951 -1.1819
  145SAPE   C3816002   1.733   4.598   9.863  0.2515 -0.1026  0.0060
  145SAPE   H8X16003   1.630   4.575   9.895  0.4682 -0.1717  0.6601
  145SAPE   H8Y16004   1.798   4.511   9.889 -0.6038 -0.7185  0.0982
  145SAPE   C3916005   1.763   4.608   9.718  0.5746  0.9860 -0.1972
  145SAPE   H9X16006   1.863   4.643   9.684  0.1420  2.9728  0.4196
  145SAPE   H9Y16007   1.701   4.695   9.685 -0.3606  0.4732  0.1836
  145SAPE  C31016008   1.702   4.485   9.640 -0.8186 -0.4073  0.3801
  145SAPE  H10X16009   1.611   4.443   9.688 -1.1114  0.4037  0.5400
  145SAPE  H10Y16010   1.779   4.405   9.648  1.2157  1.3706 -0.6026
  145SAPE  C31116011   1.663   4.517   9.496 -0.6761 -0.9938  0.1391
  145SAPE  H11X16012   1.573   4.581   9.488 -0.9559 -1.2692  1.0147
  145SAPE  H11Y16013   1.650   4.422   9.440  0.7405 -0.9897 -0.2344
  145SAPE  C31216014   1.784   4.567   9.406 -0.7496 -0.2867 -0.0112
  145SAPE  H12X16015   1.869   4.498   9.425  0.9499  1.1455 -1.9201
  145SAPE  H12Y16016   1.822   4.665   9.442 -1.0442  0.3461 -1.3524
  145SAPE  C31316017   1.750   4.576   9.258  0.3439 -0.5532  0.8163
  145SAPE  H13X16018   1.744   4.471   9.222  0.7282  0.0331 -1.0651
  145SAPE  H13Y16019   1.835   4.615   9.198  1.1065 -3.2508 -0.0189
  145SAPE  C31416020   1.615   4.650   9.218  0.2467 -0.0414 -0.6459
  145SAPE  H14X16021   1.615   4.751   9.265 -3.6608 -0.4173  0.4718
  145SAPE  H14Y16022   1.540   4.594   9.277 -0.1991  2.2192  1.0431
  145SAPE  C31516023   1.575   4.660   9.070 -0.2622  0.0524  0.3997
  145SAPE  H15X16024   1.466   4.677   9.073 -0.3798 -0.7072  0.5390
  145SAPE  H15Y16025   1.609   4.564   9.027  1.0730 -0.4470  2.4019
  145SAPE  C31616026   1.643   4.769   8.988  0.6288 -0.8205 -0.5763
  145SAPE  H16X16027   1.752   4.776   9.004  0.3533  1.5160  0.7146
  145SAPE  H16Y16028   1.601   4.858   9.039  0.3231 -0.4227 -1.5022
  145SAPE  C31716029   1.587   4.761   8.847 -0.3389 -0.3595 -0.0529
  145SAPE  H17X16030   1.477   4.762   8.857 -0.4425 -0.9846 -1.0272
  145SAPE  H17Y16031   1.625   4.670   8.795 -0.0699  0.4373 -1.2893
  145SAPE  C31816032   1.620   4.882   8.758  0.2845 -0.0234 -0.2068
  145SAPE  H18X16033   1.723   4.881   8.716  0.7293  2.2455  0.6791
  145SAPE  H18Y16034   1.617   4.982   8.806  2.2106 -0.4190  0.8516
  145SAPE  H18Z16035   1.550   4.878   8.672 -1.6252 -0.8797  1.3314
  146SAPE     N16036   6.296   6.316  11.151 -0.0328 -0.6586 -0.3703
  146SAPE   HN116037   6.313   6.214  11.139 -2.0498 -1.2004  1.0089
  146SAPE   HN216038   6.378   6.374  11.123  1.8425 -3.3703 -0.9576
  146SAPE   HN316039   6.301   6.334  11.253 -0.3280  1.6266 -0.7070
  146SAPE   C1216040   6.154   6.359  11.091  0.3557  0.2530 -0.3917
  146SAPE  H12A16041   6.123   6.453  11.141 -0.0012 -0.1027  0.0687
  146SAPE  H12B16042   6.081   6.286  11.131  2.3428 -2.0486 -0.7606
  146SAPE   C1116043   6.143   6.376  10.939  0.6346  0.1598  0.0986
  146SAPE  H11A16044   6.212   6.446  10.888  0.2024 -0.9090 -2.0768
  146SAPE  H11B16045   6.038   6.405  10.918  0.0980 -1.0256  0.9734
  146SAPE     P16046   6.050   6.152  10.821 -0.0568 -0.5292 -0.1407
  146SAPE   O1316047   6.113   6.041  10.748  0.4027 -0.2249 -0.1461
  146SAPE   O1416048   5.943   6.134  10.919  0.2305  0.4025 -0.2296
  146SAPE   O1216049   6.155   6.245  10.880  0.2531 -0.4239 -0.1564
  146SAPE   O1116050   5.991   6.243  10.706 -0.6059  0.2695 -0.6216
  146SAPE    C116051   6.071   6.338  10.636 -0.0113  0.1419 -0.3551
  146SAPE    HA16052   6.058   6.437  10.685  2.0164  1.0543 -1.5229
  146SAPE    HB16053   6.177   6.308  10.625 -0.2593 -0.6418 -0.6568
  146SAPE    C216054   6.023   6.344  10.482  0.9995  0.0273  0.0228
  146SAPE    HS16055   6.081   6.428  10.437 -1.3200  1.4103 -0.5989
  146SAPE   O2116056   5.877   6.372  10.477 -0.0738 -0.2755  0.3734
  146SAPE   C2116057   5.832   6.490  10.512 -0.4872  0.2017 -0.8082
  146SAPE   O2216058   5.904   6.578  10.560  0.2571  0.1574 -0.4331
  146SAPE   C2216059   5.679   6.506  10.478 -0.3334  0.8288  0.0969
  146SAPE   H2R16060   5.693   6.535  10.372  3.6816  0.8500  0.4899
  146SAPE   H2S16061   5.621   6.412  10.477  0.5870  0.1851 -2.8397
  146SAPE    C316062   6.038   6.202  10.413  0.0244  0.3839  0.9536
  146SAPE    HX16063   5.947   6.156  10.458  0.2546 -0.1426  0.8838
  146SAPE    HY16064   6.133   6.147  10.431 -0.4803 -0.5773  0.7028
  146SAPE   O3116065   6.029   6.229  10.266 -0.0389  0.2961 -0.4999
  146SAPE   C3116066   5.990   6.126  10.196 -0.0586  0.8592 -0.2435
  146SAPE   O3216067   5.970   6.011  10.234 -0.4447  0.5835  0.1243
  146SAPE   C3216068   5.950   6.174  10.056 -0.4199 -0.4090  0.0234
  146SAPE   H2X16069   6.013   6.259  10.022 -0.6640  0.7608  2.3339
  146SAPE   H2Y16070   5.845   6.209  10.059  0.3759  2.2395 -0.4240
  146SAPE   C2316071   5.619   6.625  10.554  0.0503 -0.1878  0.0503
  146SAPE   H3R16072   5.683   6.711  10.524 -0.6014 -0.6058 -2.8197
  146SAPE   H3S16073   5.623   6.620  10.665  1.6884  1.7554  0.1372
  146SAPE   C2416074   5.477   6.661  10.503  0.2919  0.3034 -0.1817
  146SAPE   H4R16075   5.410   6.588  10.553  0.9603  0.3332  0.7851
  146SAPE   H4S16076   5.474   6.638  10.395 -2.2798 -2.3501  0.3418
  146SAPE   C2516077   5.422   6.788  10.553 -0.3490 -0.3083  0.2122
  146SAPE   H5R16078   5.397   6.799  10.660 -1.4307  1.1296 -0.1596
  146SAPE   C2616079   5.390   6.897  10.474 -0.5333  0.2940 -0.8736
  146SAPE   H6R16080   5.359   6.989  10.525  0.5337  0.6195 -0.7818
  146SAPE   C2716081   5.407   6.913  10.327  0.2903 -0.0372 -0.5896
  146SAPE   H7R16082   5.445   6.816  10.290 -1.1467 -1.8139  2.2817
  146SAPE   H7S16083   5.485   6.987  10.297 -1.5111  2.7224  1.0236
  146SAPE   C2816084   5.276   6.961  10.257 -0.2346  0.0369 -0.6052
  146SAPE   H8R16085   5.183   6.972  10.314  0.7662  1.4211  0.8484
  146SAPE   C2916086   5.261   6.993  10.127  0.1334  0.1258 -0.0078
  146SAPE   H9R16087   5.164   7.010  10.079  1.0389  1.3205 -1.5059
  146SAPE  C21016088   5.378   6.998  10.033  0.4811  0.0196  0.2597
  146SAPE  H10R16089   5.401   6.902   9.982 -0.9974 -0.3701  0.2755
  146SAPE  H10S16090   5.474   7.026  10.081  1.3695  2.5553 -2.7126
  146SAPE  C21116091   5.358   7.095   9.930 -0.0212  0.5586  0.9038
  146SAPE  H11R16092   5.429   7.178   9.936 -0.8657  1.4256 -0.4647
  146SAPE  C21216093   5.272   7.100   9.823 -0.2998 -0.3193 -0.4908
  146SAPE  H12R16094   5.307   7.168   9.744  1.0763  0.8906  1.0605
  146SAPE  C21316095   5.169   7.001   9.795  0.1159 -0.1371 -0.1723
  146SAPE  H13R16096   5.076   7.046   9.837  0.0717 -0.0444 -0.3692
  146SAPE  H13S16097   5.193   6.904   9.844  2.0086 -0.3492 -1.3845
  146SAPE  C21416098   5.147   6.988   9.646 -0.0704 -0.7569 -0.8031
  146SAPE  H14R16099   5.107   7.082   9.606 -0.7068 -1.1675 -1.1364
  146SAPE  C21516100   5.193   6.886   9.571  0.1210  0.3199  1.2561
  146SAPE  H15R16101   5.187   6.882   9.462 -1.3966 -2.5353  1.3643
  146SAPE  C21616102   5.261   6.758   9.631  0.0020 -0.4088 -1.2867
  146SAPE  H16R16103   5.181   6.684   9.654  1.2200 -1.9945 -1.9782
  146SAPE  H16S16104   5.301   6.779   9.733 -1.1469 -0.1470 -0.8703
  146SAPE  C21716105   5.389   6.699   9.564 -0.3052 -0.5077 -0.4237
  146SAPE  H17R16106   5.367   6.646   9.470 -1.0267  2.4304 -2.0297
  146SAPE  H17S16107   5.423   6.621   9.635  1.2296  0.9368  0.5069
  146SAPE  C21816108   5.506   6.794   9.533  0.2517  0.2698 -0.0299
  146SAPE  H18R16109   5.539   6.860   9.616 -1.0046  2.9110 -1.5007
  146SAPE  H18S16110   5.473   6.866   9.454 -1.5848 -1.7689 -1.2424
  146SAPE  C21916111   5.618   6.711   9.471  0.0771  0.1195 -0.1351
  146SAPE  H19R16112   5.586   6.689   9.367  0.8794 -0.5678 -0.2432
  146SAPE  H19S16113   5.623   6.613   9.522  0.9710  0.3479  0.2173
  146SAPE  C22016114   5.763   6.768   9.483 -0.7793 -0.1547  0.0344
  146SAPE  H20R16115   5.773   6.868   9.436 -2.4530  0.3205  0.6114
  146SAPE  H20S16116   5.842   6.697   9.451 -0.5652 -0.7402  1.7510
  146SAPE  H20T16117   5.798   6.771   9.589 -0.3932  2.4300 -0.0862
  146SAPE   C3316118   5.970   6.059   9.957 -0.3506  0.0929  0.5650
  146SAPE   H3X16119   5.910   5.978  10.003  2.1808 -1.7374  0.8795
  146SAPE   H3Y16120   6.073   6.017   9.952 -0.7743 -0.8337 -1.4868
  146SAPE   C3416121   5.922   6.102   9.818  0.2033  0.0830  0.6204
  146SAPE   H4X16122   5.992   6.178   9.776 -0.0463  0.1495  0.3225
  146SAPE   H4Y16123   5.822   6.147   9.839 -0.5433 -0.8969 -0.6911
  146SAPE   C3516124   5.906   5.994   9.707 -0.3740 -0.6089 -0.0599
  146SAPE   H5X16125   5.813   5.935   9.718 -0.1236 -1.1804 -0.8888
  146SAPE   H5Y16126   5.993   5.926   9.699  0.5712  0.6815 -1.3728
  146SAPE   C3616127   5.888   6.065   9.569 -0.0751  0.4109  0.2391
  146SAPE   H6X16128   5.983   6.117   9.544 -0.3994  0.2966 -1.3483
  146SAPE   H6Y16129   5.812   6.145   9.583  1.3107  2.0986 -1.2627
  146SAPE   C3716130   5.853   5.976   9.449 -0.1175 -0.3562  0.3365
  146SAPE   H7X16131   5.817   6.045   9.369  0.4827  1.5705  1.6714
  146SAPE   H7Y16132   5.775   5.901   9.478 -0.2751  1.1184  4.2568
  146SAPE   C3816133   5.972   5.891   9.399  0.2406 -0.1995 -0.0099
  146SAPE   H8X16134   5.989   5.808   9.470  0.3606  1.0762  1.4964
  146SAPE   H8Y16135   6.066   5.949   9.388  2.6875 -4.2068 -2.7894
  146SAPE   C3916136   5.924   5.816   9.275 -1.0970  0.1580  0.3432
  146SAPE   H9X16137   5.884   5.868   9.186  0.7230  0.3661 -0.4048
  146SAPE   H9Y16138   5.845   5.741   9.298 -0.2622 -1.1999 -1.0675
  146SAPE  C31016139   6.041   5.729   9.219 -1.0536 -0.0596  0.3129
  146SAPE  H10X16140   6.001   5.658   9.143  1.7130 -1.4426  0.0283
  146SAPE  H10Y16141   6.073   5.681   9.315  0.6658  0.4052 -0.0023
  146SAPE  C31116142   6.153   5.812   9.161  0.0542 -0.5105  0.6333
  146SAPE  H11X16143   6.226   5.735   9.126 -0.4935 -1.0445  0.6522
  146SAPE  H11Y16144   6.207   5.872   9.237  1.0492  0.9838 -1.1516
  146SAPE  C31216145   6.121   5.909   9.040  0.2855  0.1598  0.0854
  146SAPE  H12X16146   6.206   5.969   9.001 -0.1558  1.9038  1.6285
  146SAPE  H12Y16147   6.057   5.991   9.080 -0.3868 -0.2629 -0.1080
  146SAPE  C31316148   6.053   5.851   8.915  0.1358 -0.3035  0.4818
  146SAPE  H13X16149   6.025   5.927   8.839  0.8380  1.4615  1.9317
  146SAPE  H13Y16150   5.951   5.810   8.932 -0.3409  0.5689 -0.2243
  146SAPE  C31416151   6.137   5.742   8.852 -0.4221 -0.9180 -0.4293
  146SAPE  H14X16152   6.134   5.645   8.908 -0.6654 -1.0863 -0.7307
  146SAPE  H14Y16153   6.244   5.771   8.857 -0.2657 -1.5625  0.2308
  146SAPE  C31516154   6.082   5.698   8.718 -0.0319  0.0482 -0.5167
  146SAPE  H15X16155   5.972   5.691   8.730  0.1234 -1.7452  0.2020
  146SAPE  H15Y16156   6.121   5.596   8.700  0.4887 -0.3916  2.5459
  146SAPE  C31616157   6.119   5.788   8.601  0.7225 -0.7443  0.3695
  146SAPE  H16X16158   6.063   5.877   8.637 -1.1996 -2.4360  1.7724
  146SAPE  H16Y16159   6.070   5.756   8.507  0.8727 -0.1531  0.0812
  146SAPE  C31716160   6.267   5.821   8.578 -0.4352 -0.0756  0.3637
  146SAPE  H17X16161   6.308   5.888   8.656  1.3339 -0.8276  0.1518
  146SAPE  H17Y16162   6.273   5.888   8.489  1.4964 -1.4602 -0.6490
  146SAPE  C31816163   6.351   5.695   8.561 -0.3350 -0.0920  0.5619
  146SAPE  H18X16164   6.458   5.725   8.555 -1.1987  3.6980  1.6457
  146SAPE  H18Y16165   6.323   5.638   8.470 -1.7143  1.4825 -0.0573
  146SAPE  H18Z16166   6.337   5.627   8.647 -1.7929  0.1098  0.5031
  147SAPE     N16167   4.561   3.125  10.866 -0.0112  0.0894 -0.3118
  147SAPE   HN116168   4.624   3.042  10.875 -0.8611 -0.3478  2.1945
  147SAPE   HN216169   4.505   3.117  10.779  1.2171  2.8833 -1.4891
  147SAPE   HN316170   4.614   3.214  10.871 -0.6159  0.4635 -0.4733
  147SAPE   C1216171   4.467   3.125  10.980 -0.7056 -0.0322  0.0199
  147SAPE  H12A16172   4.370   3.095  10.934 -0.4093  2.2720 -2.2689
  147SAPE  H12B16173   4.455   3.225  11.027 -0.4319 -0.2524  0.5646
  147SAPE   C1116174   4.513   3.013  11.077  0.8435  0.5371 -0.2702
  147SAPE  H11A16175   4.433   2.983  11.148  1.4665 -0.9558 -0.1511
  147SAPE  H11B16176   4.597   3.051  11.139 -0.0833  2.0224  0.1249
  147SAPE     P16177   4.467   2.771  10.988 -0.1815  0.0281 -0.2770
  147SAPE   O1316178   4.547   2.654  11.035 -0.7651  0.0178 -0.2335
  147SAPE   O1416179   4.335   2.793  11.043 -0.2426 -0.3024  0.7063
  147SAPE   O1216180   4.552   2.897  10.998 -0.1739  0.0809  0.0668
  147SAPE   O1116181   4.448   2.751  10.833  0.3269  0.1771  0.0384
  147SAPE    C116182   4.322   2.755  10.765 -0.1076 -0.1321 -0.2939
  147SAPE    HA16183   4.258   2.673  10.805 -1.0921  1.1695  0.9056
  147SAPE    HB16184   4.263   2.847  10.785 -0.6999  0.0347 -2.5725
  147SAPE    C216185   4.334   2.742  10.610  0.0514 -0.6912 -0.3220
  147SAPE    HS16186   4.241   2.687  10.584  0.3878 -1.5933  0.3204
  147SAPE   O2116187   4.448   2.664  10.574 -0.1623  0.1624 -0.3253
  147SAPE   C2116188   4.432   2.538  10.615  0.0696  0.3517  0.0595
  147SAPE   O2216189   4.329   2.489  10.659  0.2742 -0.3146  0.0325
  147SAPE   C2216190   4.573   2.473  10.607 -0.0237 -0.7862  0.2977
  147SAPE   H2R16191   4.633   2.517  10.525 -0.6870  0.6214  0.5367
  147SAPE   H2S16192   4.626   2.490  10.703 -1.7284  1.6522  0.9157
  147SAPE    C316193   4.343   2.881  10.530 -0.7930  0.4629  0.0058
  147SAPE    HX16194   4.360   2.867  10.421 -1.0315  2.4600 -0.3344
  147SAPE    HY16195   4.444   2.914  10.565  0.0532 -1.9109 -0.0393
  147SAPE   O3116196   4.230   2.969  10.541  0.3155 -0.4736  0.6489
  147SAPE   C3116197   4.251   3.085  10.599  0.1400  0.2493 -0.1719
  147SAPE   O3216198   4.342   3.116  10.671  0.5957  0.1586 -0.3615
  147SAPE   C3216199   4.133   3.182  10.557 -0.3869 -0.7520 -0.0161
  147SAPE   H2X16200   4.187   3.265  10.506  2.7713 -1.6077  1.6516
  147SAPE   H2Y16201   4.095   3.233  10.647 -0.8770 -1.3012  0.0959
  147SAPE   C2316202   4.565   2.328  10.566  0.1746 -0.1887  0.2652
  147SAPE   H3R16203   4.518   2.271  10.649 -1.3646 -1.2757 -1.2731
  147SAPE   H3S16204   4.671   2.300  10.548  0.7248  1.0499  1.3991
  147SAPE   C2416205   4.492   2.283  10.441 -0.6122  0.1996  0.3309
  147SAPE   H4R16206   4.385   2.312  10.442 -0.4271  0.8946  0.3737
  147SAPE   H4S16207   4.487   2.173  10.430 -2.9620  0.1775  1.0201
  147SAPE   C2516208   4.573   2.326  10.313  0.2069 -0.0335 -0.1176
  147SAPE   H5R16209   4.678   2.293  10.303  0.5717  0.6664  1.1742
  147SAPE   C2616210   4.530   2.418  10.231  0.1560 -0.1598 -0.5007
  147SAPE   H6R16211   4.588   2.452  10.144 -2.2417 -1.5514 -2.7806
  147SAPE   C2716212   4.398   2.496  10.245 -0.4489  0.0446  0.0942
  147SAPE   H7R16213   4.367   2.499  10.352  0.5426  0.6120  0.3757
  147SAPE   H7S16214   4.316   2.441  10.194 -2.2828  0.2504  2.6385
  147SAPE   C2816215   4.393   2.640  10.189 -0.4314 -0.1165  0.0430
  147SAPE   H8R16216   4.372   2.712  10.269  0.3163  0.6772 -0.4535
  147SAPE   C2916217   4.384   2.682  10.063  0.5835  0.1905 -0.6562
  147SAPE   H9R16218   4.378   2.791  10.046 -0.8963  0.4262  1.0788
  147SAPE  C21016219   4.396   2.598   9.931 -0.9567 -0.1472  0.3495
  147SAPE  H10R16220   4.310   2.632   9.870  0.7297  1.7818 -1.1060
  147SAPE  H10S16221   4.385   2.490   9.952  2.4982 -0.9645 -1.3044
  147SAPE  C21116222   4.529   2.619   9.856  0.0174 -0.0730 -0.3926
  147SAPE  H11R16223   4.625   2.630   9.910  0.7734  2.6853 -2.0807
  147SAPE  C21216224   4.541   2.633   9.722 -0.6014  0.7853  0.0904
  147SAPE  H12R16225   4.641   2.629   9.676 -0.5870 -4.2062  0.0834
  147SAPE  C21316226   4.426   2.631   9.627  0.0039  0.0451  0.1329
  147SAPE  H13R16227   4.334   2.587   9.671  0.3195  1.0295  1.8547
  147SAPE  H13S16228   4.447   2.573   9.534 -1.5888  1.5873 -1.2614
  147SAPE  C21416229   4.387   2.769   9.582  0.6638 -0.4175  0.0777
  147SAPE  H14R16230   4.420   2.851   9.648  1.4705 -1.5625  1.1476
  147SAPE  C21516231   4.326   2.804   9.465 -0.2551 -0.2906  0.3418
  147SAPE  H15R16232   4.298   2.909   9.446 -0.9379 -0.3334  1.0640
  147SAPE  C21616233   4.268   2.715   9.359 -0.2453  0.4712  0.7810
  147SAPE  H16R16234   4.178   2.660   9.393 -0.5666  0.6374  0.2082
  147SAPE  H16S16235   4.343   2.636   9.338  1.3251  2.1345 -0.2691
  147SAPE  C21716236   4.226   2.788   9.231 -0.2023 -0.5704 -0.0221
  147SAPE  H17R16237   4.302   2.866   9.210 -0.7000 -0.2463 -0.6573
  147SAPE  H17S16238   4.127   2.838   9.239 -0.1376 -0.3242 -0.6774
  147SAPE  C21816239   4.208   2.694   9.106 -0.2608 -0.1472 -0.3118
  147SAPE  H18R16240   4.143   2.610   9.137 -1.0279  0.8530  0.9104
  147SAPE  H18S16241   4.308   2.657   9.074 -0.1342 -0.5670  0.5401
  147SAPE  C21916242   4.140   2.772   8.994  0.7265  0.7988 -0.0516
  147SAPE  H19R16243   4.200   2.863   8.978 -0.9033  1.6103 -1.9173
  147SAPE  H19S16244   4.042   2.804   9.035  0.4200 -2.5975  2.3024
  147SAPE  C22016245   4.133   2.695   8.859 -0.5058  0.2236  0.2889
  147SAPE  H20R16246   4.237   2.679   8.822 -0.2610 -0.1538  1.1230
  147SAPE  H20S16247   4.073   2.753   8.786 -1.7188  0.1135  1.1701
  147SAPE  H20T16248   4.089   2.595   8.878 -2.1283  1.5117  4.2452
  147SAPE   C3316249   4.018   3.132  10.477 -0.0616  0.5415 -0.4790
  147SAPE   H3X16250   3.937   3.201  10.505  1.1089  1.1860  1.5648
  147SAPE   H3Y16251   3.986   3.030  10.509 -1.0681  0.7795 -0.7234
  147SAPE   C3416252   4.044   3.127  10.327 -0.2813 -0.3841 -0.6171
  147SAPE   H4X16253   4.098   3.222  10.307  0.9815 -1.1745 -1.0684
  147SAPE   H4Y16254   3.940   3.125  10.287 -1.3480  2.9032  1.6274
  147SAPE   C3516255   4.119   3.011  10.273  0.5185  0.1471 -0.4405
  147SAPE   H5X16256   4.089   2.922  10.331 -0.2842 -0.9957 -2.4848
  147SAPE   H5Y16257   4.228   3.028  10.280  0.7306 -1.4107  0.3943
  147SAPE   C3616258   4.085   2.974  10.123  0.1569  0.3026  0.2148
  147SAPE   H6X16259   3.981   2.935  10.116 -0.3041  1.5538 -0.0400
  147SAPE   H6Y16260   4.146   2.882  10.106 -0.1495  0.5420 -2.5136
  147SAPE   C3716261   4.113   3.095  10.034 -0.0100 -0.7951  0.6250
  147SAPE   H7X16262   4.215   3.125  10.066  0.9159 -1.5249 -1.4292
  147SAPE   H7Y16263   4.052   3.187  10.047  0.0043 -0.7261  0.2273
  147SAPE   C3816264   4.104   3.052   9.887  0.3200  0.0505  0.3937
  147SAPE   H8X16265   4.006   3.002   9.870  0.1149 -0.7574  3.3222
  147SAPE   H8Y16266   4.181   2.972   9.880 -0.4579 -0.8931  2.0776
  147SAPE   C3916267   4.119   3.166   9.782  0.5291  0.3802 -0.0563
  147SAPE   H9X16268   4.211   3.218   9.817  0.8372 -0.4943  0.4570
  147SAPE   H9Y16269   4.031   3.235   9.786  1.7449  2.0382 -0.8585
  147SAPE  C31016270   4.123   3.122   9.639  0.2608  0.6762 -0.0095
  147SAPE  H10X16271   4.039   3.057   9.609  0.1242  1.4224 -1.3000
  147SAPE  H10Y16272   4.216   3.062   9.635 -1.2511 -1.7631 -0.2594
  147SAPE  C31116273   4.123   3.233   9.538 -0.6154 -0.5577 -0.0643
  147SAPE  H11X16274   4.219   3.288   9.546 -1.3069  0.6368  0.2482
  147SAPE  H11Y16275   4.042   3.307   9.558 -1.6092 -1.9078  1.1411
  147SAPE  C31216276   4.116   3.187   9.385  0.2987 -1.0083 -0.3525
  147SAPE  H12X16277   4.182   3.100   9.361  0.3378 -1.6160  1.7528
  147SAPE  H12Y16278   4.156   3.272   9.326  0.8530 -1.3754 -0.5150
  147SAPE  C31316279   3.974   3.149   9.339 -0.0421 -0.0555 -0.7331
  147SAPE  H13X16280   3.898   3.209   9.393  1.9853  0.7326  1.4395
  147SAPE  H13Y16281   3.956   3.049   9.386  0.3830 -0.4193 -1.3259
  147SAPE  C31416282   3.966   3.133   9.186 -0.0218  0.3712 -0.4715
  147SAPE  H14X16283   4.060   3.087   9.149  0.1313 -0.0224  0.3712
  147SAPE  H14Y16284   3.957   3.232   9.137  0.2254  0.9946  0.6893
  147SAPE  C31516285   3.845   3.049   9.146 -0.3233  0.5558  1.1926
  147SAPE  H15X16286   3.752   3.102   9.178  0.0104  1.1514  1.1979
  147SAPE  H15Y16287   3.861   2.946   9.183  1.3715  0.1380 -0.5156
  147SAPE  C31616288   3.839   3.043   8.994 -0.2270 -0.7871  0.1487
  147SAPE  H16X16289   3.925   2.983   8.958 -0.1633 -0.4497 -0.2791
  147SAPE  H16Y16290   3.850   3.150   8.963  0.0885  0.1077  3.0372
  147SAPE  C31716291   3.707   2.980   8.948 -0.3768  0.8780 -0.3404
  147SAPE  H17X16292   3.616   3.026   8.992 -1.2944  0.7264 -1.9940
  147SAPE  H17Y16293   3.701   2.876   8.987  1.1665  0.2023 -1.7759
  147SAPE  C31816294   3.704   2.974   8.793  0.3321  0.6338  0.5854
  147SAPE  H18X16295   3.615   2.922   8.750  0.3695 -0.7571  2.0932
  147SAPE  H18Y16296   3.796   2.926   8.753 -0.8818 -2.3654  1.0963
  147SAPE  H18Z16297   3.701   3.078   8.754  0.0191  1.0087  1.5664
  148SAPE     N16298   4.436   5.650  10.860 -0.0337 -0.5371 -0.3914
  148SAPE   HN116299   4.404   5.742  10.898 -1.2723 -1.9484  2.2399
  148SAPE   HN216300   4.451   5.594  10.946 -2.3518 -2.8362 -1.3363
  148SAPE   HN316301   4.523   5.668  10.807  1.0391 -0.6447  1.2637
  148SAPE   C1216302   4.333   5.578  10.776 -0.1093  0.1722  0.3225
  148SAPE  H12A16303   4.397   5.510  10.715 -0.9085  0.1171 -0.4639
  148SAPE  H12B16304   4.285   5.661  10.721 -0.1023  1.1941  1.8088
  148SAPE   C1116305   4.250   5.476  10.852  0.8149 -0.7460 -0.9332
  148SAPE  H11A16306   4.313   5.392  10.889 -0.7282 -0.5858  2.4041
  148SAPE  H11B16307   4.177   5.432  10.781 -0.6041 -0.8411  0.5338
  148SAPE     P16308   4.051   5.610  10.960  0.0333 -0.1338  0.0811
  148SAPE   O1316309   3.951   5.538  11.042  0.0327  0.7602  0.1310
  148SAPE   O1416310   4.085   5.752  11.003 -0.0853 -0.0067 -0.1835
  148SAPE   O1216311   4.182   5.524  10.969  0.7379  0.0501  0.0933
  148SAPE   O1116312   4.024   5.605  10.807 -0.4605 -0.5268  0.1522
  148SAPE    C116313   4.016   5.711  10.717 -0.4760  0.0989 -0.0889
  148SAPE    HA16314   3.944   5.788  10.753 -0.6700 -0.3331  0.4643
  148SAPE    HB16315   4.105   5.776  10.698 -0.4883  0.4029  0.8278
  148SAPE    C216316   3.957   5.661  10.582  0.0327  0.0510 -0.8980
  148SAPE    HS16317   3.886   5.580  10.609 -0.7333  1.1175  0.4302
  148SAPE   O2116318   4.066   5.616  10.505 -0.4644  0.4008 -0.2748
  148SAPE   C2116319   4.078   5.482  10.478  0.0335 -0.9909 -0.1507
  148SAPE   O2216320   4.026   5.393  10.541 -0.2804 -0.0610  0.2469
  148SAPE   C2216321   4.150   5.472  10.341 -0.3338 -0.0856  0.0861
  148SAPE   H2R16322   4.109   5.551  10.274  2.8260  1.5050 -0.1749
  148SAPE   H2S16323   4.252   5.510  10.361 -1.1719  1.6864  1.3317
  148SAPE    C316324   3.879   5.773  10.513 -0.1695  0.2123 -0.2217
  148SAPE    HX16325   3.948   5.860  10.506 -1.0819  0.9703 -0.0265
  148SAPE    HY16326   3.791   5.809  10.570 -1.7445  0.0965 -2.4177
  148SAPE   O3116327   3.837   5.732  10.377  0.2378  0.3252  0.1437
  148SAPE   C3116328   3.753   5.823  10.329 -0.0934 -0.5698  0.0011
  148SAPE   O3216329   3.717   5.926  10.385 -0.1228  0.2201  0.0267
  148SAPE   C3216330   3.730   5.790  10.185  1.2129 -0.4261  0.7716
  148SAPE   H2X16331   3.691   5.686  10.187 -0.3232  0.1233  0.6570
  148SAPE   H2Y16332   3.824   5.803  10.128 -1.0461  1.7016 -2.8847
  148SAPE   C2316333   4.150   5.335  10.276  0.4997  0.5094 -0.9634
  148SAPE   H3R16334   4.180   5.254  10.347  2.2623  2.7067  0.9369
  148SAPE   H3S16335   4.231   5.331  10.201  0.6396 -1.6844 -0.7759
  148SAPE   C2416336   4.013   5.306  10.213 -0.4260  0.1906 -0.3164
  148SAPE   H4R16337   3.997   5.384  10.135 -1.8624  2.3117  1.9579
  148SAPE   H4S16338   3.937   5.322  10.292  1.2004  3.9031  0.6883
  148SAPE   C2516339   3.994   5.167  10.168  0.1190 -0.1865  0.6330
  148SAPE   H5R16340   3.949   5.096  10.240 -1.0651 -0.9075 -0.7712
  148SAPE   C2616341   4.020   5.107  10.042 -0.1272 -0.1932 -0.1114
  148SAPE   H6R16342   4.005   4.998  10.041  2.4587 -0.6035  0.3412
  148SAPE   C2716343   4.083   5.171   9.922  0.2567 -0.9883  0.6394
  148SAPE   H7R16344   4.172   5.113   9.889  0.2765  0.3352 -1.8626
  148SAPE   H7S16345   4.132   5.268   9.948 -1.2963  0.3074 -0.9900
  148SAPE   C2816346   3.983   5.195   9.814  0.6840  0.2916  0.0720
  148SAPE   H8R16347   3.904   5.267   9.839 -0.3439 -0.6649 -0.3573
  148SAPE   C2916348   3.958   5.119   9.710 -0.4874  0.9423  0.5842
  148SAPE   H9R16349   3.882   5.156   9.640 -0.4302  0.7136  0.3991
  148SAPE  C21016350   4.040   4.999   9.664 -0.1256  0.3173  0.5661
  148SAPE  H10R16351   3.978   4.951   9.585  0.6360 -0.3420  0.3461
  148SAPE  H10S16352   4.048   4.912   9.733  1.8672 -0.0970 -0.1123
  148SAPE  C21116353   4.178   5.022   9.606  0.4284  0.3099 -0.1698
  148SAPE  H11R16354   4.257   5.056   9.675  2.8957 -0.0034 -2.6583
  148SAPE  C21216355   4.212   5.010   9.475 -0.5020 -0.8908 -0.4531
  148SAPE  H12R16356   4.318   5.026   9.451 -0.2341 -2.9740 -0.8619
  148SAPE  C21316357   4.127   4.964   9.360 -0.2301 -0.7989 -0.3411
  148SAPE  H13R16358   4.020   4.993   9.370  0.0713  0.5636 -0.8697
  148SAPE  H13S16359   4.149   4.855   9.358  0.4427 -0.6805  0.1957
  148SAPE  C21416360   4.178   5.019   9.234  0.3341  0.4713 -0.2482
  148SAPE  H14R16361   4.121   5.103   9.195  2.0450  2.5513  1.4543
  148SAPE  C21516362   4.278   4.982   9.154  0.1032 -0.4335 -0.0209
  148SAPE  H15R16363   4.310   5.047   9.072 -1.8852 -1.9090 -2.1090
  148SAPE  C21616364   4.355   4.864   9.187 -0.0791  0.8778  0.2378
  148SAPE  H16R16365   4.368   4.847   9.296  0.0565 -1.0174 -0.0315
  148SAPE  H16S16366   4.460   4.876   9.152  0.0102  0.5550  0.3864
  148SAPE  C21716367   4.290   4.745   9.119  1.1912  0.1166 -0.0309
  148SAPE  H17R16368   4.181   4.741   9.141  0.7531 -0.0552 -2.0371
  148SAPE  H17S16369   4.336   4.652   9.157 -0.8301  0.9670  5.3825
  148SAPE  C21816370   4.292   4.739   8.965 -0.2841  0.4214  0.5696
  148SAPE  H18R16371   4.397   4.745   8.927 -0.8406 -0.2753 -1.1691
  148SAPE  H18S16372   4.245   4.829   8.918 -0.2699  0.7921  1.2495
  148SAPE  C21916373   4.231   4.614   8.907 -0.1468 -0.1289  0.2274
  148SAPE  H19R16374   4.121   4.612   8.923 -0.0761 -1.9026  0.6582
  148SAPE  H19S16375   4.270   4.527   8.963 -3.2160 -1.5093  0.4289
  148SAPE  C22016376   4.246   4.607   8.754  0.2361  0.2839 -0.0616
  148SAPE  H20R16377   4.352   4.615   8.722 -0.7051  1.0118 -3.3500
  148SAPE  H20S16378   4.192   4.695   8.713 -2.1066 -0.6969  0.7153
  148SAPE  H20T16379   4.198   4.519   8.706  1.7713 -2.1185  2.5122
  148SAPE   C3316380   3.623   5.888  10.128  0.1427  0.0148 -0.3823
  148SAPE   H3X16381   3.660   5.993  10.119  0.7746 -0.3468 -2.5099
  148SAPE   H3Y16382   3.540   5.885  10.201  0.2657 -1.1361 -0.2704
  148SAPE   C3416383   3.569   5.845   9.997 -0.0309  0.3087 -0.1288
  148SAPE   H4X16384   3.494   5.921   9.964 -1.9157 -0.5021  2.0060
  148SAPE   H4Y16385   3.517   5.749  10.018  1.5725 -0.4291  0.5779
  148SAPE   C3516386   3.683   5.817   9.896  0.8891 -0.4866  0.1782
  148SAPE   H5X16387   3.745   5.730   9.928  0.1174 -1.3267 -0.5511
  148SAPE   H5Y16388   3.740   5.912   9.903 -1.9234  1.1738  3.1811
  148SAPE   C3616389   3.647   5.783   9.753  0.2166  0.2280 -0.2715
  148SAPE   H6X16390   3.629   5.883   9.708  1.3442  0.3138 -0.5645
  148SAPE   H6Y16391   3.553   5.724   9.749 -1.2469  2.5144 -1.5326
  148SAPE   C3716392   3.760   5.710   9.685  0.1445  0.2460  0.6600
  148SAPE   H7X16393   3.803   5.631   9.751 -3.0864  0.5423  3.3821
  148SAPE   H7Y16394   3.852   5.773   9.683  1.4492 -1.5570  0.8994
  148SAPE   C3816395   3.718   5.658   9.547 -0.4104 -0.2152  0.3848
  148SAPE   H8X16396   3.626   5.596   9.551 -1.8419  1.8137  1.1252
  148SAPE   H8Y16397   3.808   5.620   9.495  0.0131  0.2977  0.7291
  148SAPE   C3916398   3.677   5.778   9.451  0.0563 -0.3746 -0.5335
  148SAPE   H9X16399   3.768   5.818   9.402  1.4560 -0.9842  1.4153
  148SAPE   H9Y16400   3.630   5.864   9.502 -0.2591  0.1907 -1.7542
  148SAPE  C31016401   3.583   5.749   9.338  0.2259 -0.0202  0.1020
  148SAPE  H10X16402   3.484   5.736   9.385  0.5413  1.0017  1.0953
  148SAPE  H10Y16403   3.606   5.652   9.289 -3.5723 -1.7943  1.5019
  148SAPE  C31116404   3.587   5.862   9.240 -0.4984  0.1379  0.4329
  148SAPE  H11X16405   3.691   5.875   9.205 -0.4247 -0.6278  0.3572
  148SAPE  H11Y16406   3.545   5.953   9.289  1.1801  1.6549 -0.7942
  148SAPE  C31216407   3.501   5.836   9.114  0.1053  0.3195 -0.0477
  148SAPE  H12X16408   3.393   5.828   9.138 -0.0957 -1.6870 -1.3028
  148SAPE  H12Y16409   3.538   5.738   9.075  1.2057 -0.0501  1.8112
  148SAPE  C31316410   3.523   5.939   8.997 -0.0896  0.3999  0.8334
  148SAPE  H13X16411   3.631   5.924   8.976  0.1455  0.1587  2.1013
  148SAPE  H13Y16412   3.504   6.030   9.058  1.1835 -0.9371  3.4120
  148SAPE  C31416413   3.436   5.913   8.873 -1.1425  0.0805  0.2815
  148SAPE  H14X16414   3.452   6.006   8.815  1.6140 -1.6554 -1.9556
  148SAPE  H14Y16415   3.328   5.911   8.903 -1.2476  1.0751  0.0178
  148SAPE  C31516416   3.476   5.798   8.781  0.3986 -0.9939  0.1653
  148SAPE  H15X16417   3.587   5.803   8.772  0.2421  2.6179 -1.3264
  148SAPE  H15Y16418   3.426   5.819   8.684 -0.9095 -1.3835  0.7440
  148SAPE  C31616419   3.420   5.669   8.832  0.4054  0.0966 -0.5602
  148SAPE  H16X16420   3.314   5.686   8.861 -0.1145 -2.4803 -0.7006
  148SAPE  H16Y16421   3.471   5.623   8.920  3.2958 -0.2130 -2.2765
  148SAPE  C31716422   3.424   5.556   8.726 -0.2527 -0.8237 -0.1624
  148SAPE  H17X16423   3.533   5.557   8.703 -0.2439  1.2048 -0.2794
  148SAPE  H17Y16424   3.370   5.597   8.638 -0.2676 -0.5518 -0.0303
  148SAPE  C31816425   3.382   5.411   8.759 -0.3128 -0.0702 -0.3682
  148SAPE  H18X16426   3.421   5.355   8.671 -0.5129 -0.8187  0.0157
  148SAPE  H18Y16427   3.272   5.405   8.765 -0.2481 -2.7890 -0.6018
  148SAPE  H18Z16428   3.417   5.359   8.851 -2.5971 -0.8452  0.1169
  149SAPE     N16429   4.601   0.400  11.723 -0.2268 -0.2089  0.2358
  149SAPE   HN116430   4.537   0.479  11.702  0.8092  0.3323 -0.9739
  149SAPE   HN216431   4.589   0.386  11.826  0.3179 -0.5813  0.2501
  149SAPE   HN316432   4.700   0.420  11.700 -0.3470  0.5802  0.3932
  149SAPE   C1216433   4.561   0.279  11.645  0.5853  0.0063  0.1895
  149SAPE  H12A16434   4.465   0.241  11.686  0.5085  0.4668  0.4357
  149SAPE  H12B16435   4.640   0.203  11.664  1.4761  1.0742  0.8645
  149SAPE   C1116436   4.542   0.318  11.495  0.3523 -0.0098  0.4278
  149SAPE  H11A16437   4.499   0.226  11.450  1.2801 -0.8781  1.2487
  149SAPE  H11B16438   4.645   0.329  11.453  0.4844  1.0172  0.9918
  149SAPE     P16439   4.361   0.450  11.353  0.2043  0.0221  0.0745
  149SAPE   O1316440   4.257   0.343  11.366  0.2726  0.1892 -0.1185
  149SAPE   O1416441   4.311   0.584  11.344  0.1696 -0.5129 -0.1970
  149SAPE   O1216442   4.472   0.437  11.469 -0.1145 -0.3456  0.5567
  149SAPE   O1116443   4.448   0.426  11.227 -0.7554  0.1260  0.1067
  149SAPE    C116444   4.554   0.514  11.189  0.0246  0.2747 -0.4031
  149SAPE    HA16445   4.591   0.572  11.276  1.1561  0.8507 -1.2398
  149SAPE    HB16446   4.645   0.463  11.150  0.5789  1.6903 -1.0361
  149SAPE    C216447   4.505   0.610  11.074  0.0501 -0.3330  0.3477
  149SAPE    HS16448   4.419   0.668  11.113  0.2465  0.2736 -0.1041
  149SAPE   O2116449   4.486   0.539  10.951  0.1007 -0.2843  0.4154
  149SAPE   C2116450   4.371   0.567  10.880 -0.0785  0.3194 -0.1573
  149SAPE   O2216451   4.286   0.644  10.912  0.0454  0.7138  0.5259
  149SAPE   C2216452   4.376   0.513  10.731  0.2750  0.0798 -0.2170
  149SAPE   H2R16453   4.460   0.441  10.731  1.3737  1.2662  1.7177
  149SAPE   H2S16454   4.275   0.470  10.711  0.2504 -0.3085  0.6995
  149SAPE    C316455   4.616   0.721  11.048 -0.3693 -0.5003 -0.4263
  149SAPE    HX16456   4.694   0.678  10.982 -0.4703  0.5051 -1.2115
  149SAPE    HY16457   4.651   0.750  11.149  1.7140 -0.7077 -1.0502
  149SAPE   O3116458   4.559   0.826  10.967  0.1457 -0.6141 -0.0990
  149SAPE   C3116459   4.581   0.953  11.010  0.3903 -0.2357  0.0631
  149SAPE   O3216460   4.644   0.980  11.113 -0.4920 -0.4368  0.3621
  149SAPE   C3216461   4.517   1.062  10.916  0.4650  0.4077  0.2914
  149SAPE   H2X16462   4.471   1.128  10.992 -0.4119 -0.0516  0.1736
  149SAPE   H2Y16463   4.424   1.022  10.871  0.3463  0.9970  0.0124
  149SAPE   C2316464   4.389   0.624  10.630  0.8491 -0.4550 -0.5368
  149SAPE   H3R16465   4.343   0.719  10.667 -1.2180 -1.3357 -0.7557
  149SAPE   H3S16466   4.350   0.604  10.528 -1.5316  0.5214  0.0998
  149SAPE   C2416467   4.542   0.663  10.619  0.0463 -0.5475  0.0158
  149SAPE   H4R16468   4.587   0.673  10.720  1.2468 -3.2510 -0.1469
  149SAPE   H4S16469   4.540   0.768  10.583  3.2612 -0.3560  0.1403
  149SAPE   C2516470   4.621   0.568  10.538 -0.4580 -0.3321  0.8796
  149SAPE   H5R16471   4.689   0.493  10.582  0.3452  0.6286  1.3106
  149SAPE   C2616472   4.629   0.584  10.403 -0.9395 -0.5763  0.5190
  149SAPE   H6R16473   4.697   0.520  10.344 -0.2997  0.4152  0.1424
  149SAPE   C2716474   4.560   0.670  10.311 -0.1537  0.0221 -0.5088
  149SAPE   H7R16475   4.632   0.698  10.232  0.9897  0.9589  0.8212
  149SAPE   H7S16476   4.540   0.770  10.357 -0.9565 -0.3533 -0.0038
  149SAPE   C2816477   4.431   0.607  10.254  0.1590 -0.4073 -0.2318
  149SAPE   H8R16478   4.377   0.544  10.326  1.9695 -1.5706  0.1870
  149SAPE   C2916479   4.378   0.598  10.131 -0.9628  0.2498 -0.8868
  149SAPE   H9R16480   4.291   0.532  10.123 -0.4481 -0.6609  0.5449
  149SAPE  C21016481   4.453   0.651  10.007  1.1713  0.5374  0.1404
  149SAPE  H10R16482   4.506   0.569   9.955  2.4048  0.8649  0.8519
  149SAPE  H10S16483   4.515   0.740  10.032  0.1519  2.1468 -2.6637
  149SAPE  C21116484   4.346   0.698   9.904 -0.8502 -0.7713  0.0172
  149SAPE  H11R16485   4.265   0.760   9.946  1.1597  0.5863  2.1685
  149SAPE  C21216486   4.332   0.664   9.772 -0.4180 -1.0128 -0.3683
  149SAPE  H12R16487   4.240   0.704   9.726 -2.5082  0.1578  4.2634
  149SAPE  C21316488   4.436   0.591   9.684 -0.1715 -1.0033  0.4474
  149SAPE  H13R16489   4.408   0.484   9.695 -3.0289 -0.1746  2.4026
  149SAPE  H13S16490   4.543   0.587   9.714 -0.7656 -1.2092  2.7037
  149SAPE  C21416491   4.418   0.624   9.535 -0.6096  0.0783  0.1269
  149SAPE  H14R16492   4.448   0.726   9.506 -0.4709 -0.5499 -2.1038
  149SAPE  C21516493   4.361   0.547   9.445 -0.4129 -0.0749  1.0147
  149SAPE  H15R16494   4.363   0.590   9.343  0.6226 -0.8677  0.6842
  149SAPE  C21616495   4.294   0.420   9.453 -0.2690  0.3695  0.3560
  149SAPE  H16R16496   4.186   0.429   9.476 -1.4439 -5.1260 -1.4412
  149SAPE  H16S16497   4.319   0.358   9.542 -3.4736 -1.5015  0.1104
  149SAPE  C21716498   4.303   0.336   9.322  0.3216 -0.1391  0.7099
  149SAPE  H17R16499   4.219   0.266   9.341  0.2291 -0.4417 -0.6952
  149SAPE  H17S16500   4.400   0.285   9.308 -0.4786 -1.5316 -0.0156
  149SAPE  C21816501   4.255   0.403   9.192  0.1676  0.3366 -0.2653
  149SAPE  H18R16502   4.328   0.486   9.180  2.6260 -1.6380  0.4562
  149SAPE  H18S16503   4.153   0.447   9.204 -0.0261  0.2938 -1.5735
  149SAPE  C21916504   4.244   0.312   9.080  0.4828  0.3120 -0.0261
  149SAPE  H19R16505   4.178   0.361   9.005 -0.1665  0.2666  0.5039
  149SAPE  H19S16506   4.191   0.223   9.119  1.3463  0.6362  2.0467
  149SAPE  C22016507   4.379   0.278   9.013 -1.1166 -0.5628  0.1118
  149SAPE  H20R16508   4.417   0.362   8.953  1.7203 -1.5084  0.4498
  149SAPE  H20S16509   4.353   0.197   8.942  1.1430 -0.6378 -0.7070
  149SAPE  H20T16510   4.455   0.239   9.084 -0.4603 -2.6184 -1.6002
  149SAPE   C3316511   4.606   1.140  10.814 -0.1548  0.2183 -0.0959
  149SAPE   H3X16512   4.709   1.168  10.847  0.5416 -2.7099  0.5678
  149SAPE   H3Y16513   4.557   1.237  10.794  3.3524  2.7421  2.2667
  149SAPE   C3416514   4.633   1.052  10.686  0.5239  0.1138  0.3513
  149SAPE   H4X16515   4.544   0.997  10.649 -1.7579  2.3808  2.0320
  149SAPE   H4Y16516   4.691   0.963  10.717 -0.6260 -0.1891  1.7793
  149SAPE   C3516517   4.709   1.106  10.562 -1.4910  0.1116 -0.5921
  149SAPE   H5X16518   4.811   1.145  10.582 -1.3275 -1.3307  1.7392
  149SAPE   H5Y16519   4.647   1.190  10.525 -1.7926  0.3774  0.4754
  149SAPE   C3616520   4.714   1.002  10.448  0.0983 -0.4670  0.0006
  149SAPE   H6X16521   4.622   0.940  10.447  0.5991 -1.2351  0.7394
  149SAPE   H6Y16522   4.794   0.930  10.476  1.1797  0.4333 -0.6640
  149SAPE   C3716523   4.747   1.056  10.306 -0.3087  0.1641 -0.5052
  149SAPE   H7X16524   4.851   1.097  10.307 -0.5125  0.6926 -0.0063
  149SAPE   H7Y16525   4.674   1.140  10.296  0.9421  1.2320 -1.0804
  149SAPE   C3816526   4.722   0.959  10.194 -0.1384 -0.1286 -0.2225
  149SAPE   H8X16527   4.617   0.923  10.197 -0.5371  0.7998 -1.7199
  149SAPE   H8Y16528   4.793   0.874  10.199 -0.3389 -0.3572 -1.0575
  149SAPE   C3916529   4.738   1.027  10.056  0.0631 -0.1250  0.4661
  149SAPE   H9X16530   4.818   1.103  10.066 -1.8210  1.7123  2.7982
  149SAPE   H9Y16531   4.650   1.092  10.036  1.7230  2.8242  2.0988
  149SAPE  C31016532   4.765   0.922   9.942  0.1048  0.4029  0.4842
  149SAPE  H10X16533   4.707   0.832   9.973  1.0690  0.0666  1.3680
  149SAPE  H10Y16534   4.871   0.892   9.940  0.0162  0.1194 -0.0491
  149SAPE  C31116535   4.711   0.973   9.806 -0.2500 -0.4109  0.4857
  149SAPE  H11X16536   4.775   1.057   9.774  0.4274 -1.1160 -0.0384
  149SAPE  H11Y16537   4.610   1.008   9.837  0.4987  0.7051  1.7656
  149SAPE  C31216538   4.712   0.864   9.696 -0.8127  0.2549  0.3675
  149SAPE  H12X16539   4.648   0.779   9.729  0.8851 -0.5523  1.7260
  149SAPE  H12Y16540   4.820   0.839   9.685 -0.9433  0.5819 -2.1855
  149SAPE  C31316541   4.650   0.908   9.562 -0.2503  0.0931  0.7053
  149SAPE  H13X16542   4.549   0.950   9.581 -0.2162  0.3215  0.3956
  149SAPE  H13Y16543   4.638   0.813   9.505 -0.2522  0.6747 -0.2937
  149SAPE  C31416544   4.732   1.002   9.473  0.1952 -0.5082 -0.7562
  149SAPE  H14X16545   4.836   0.965   9.470  0.2142 -0.4299 -1.0815
  149SAPE  H14Y16546   4.729   1.102   9.522 -0.3379 -1.1637  0.5992
  149SAPE  C31516547   4.680   1.000   9.332 -0.1658 -0.1126  0.1034
  149SAPE  H15X16548   4.571   1.005   9.315 -0.2797 -0.0376  0.8358
  149SAPE  H15Y16549   4.711   0.911   9.273  1.1142  1.8528 -2.3841
  149SAPE  C31616550   4.732   1.129   9.262 -0.1992 -0.0118  0.7700
  149SAPE  H16X16551   4.840   1.145   9.283  0.5649 -1.5860 -1.5917
  149SAPE  H16Y16552   4.668   1.214   9.294 -1.5439  0.6618 -3.1400
  149SAPE  C31716553   4.731   1.140   9.110  0.1136  0.2962 -0.0642
  149SAPE  H17X16554   4.805   1.075   9.059  1.8440  1.4010  0.9539
  149SAPE  H17Y16555   4.757   1.244   9.081 -2.8233  0.8491 -1.1367
  149SAPE  C31816556   4.586   1.114   9.052 -0.3307 -0.5433  0.3848
  149SAPE  H18X16557   4.514   1.180   9.104 -0.1076  1.2885 -1.4926
  149SAPE  H18Y16558   4.552   1.008   9.059 -2.5715 -0.1251 -2.3982
  149SAPE  H18Z16559   4.591   1.137   8.943 -0.0554 -0.7667  0.3488
  150SAPE     N16560   1.627   5.540  10.815 -0.1370 -0.2150 -0.3114
  150SAPE   HN116561   1.653   5.445  10.783  1.7174  0.0375  0.3372
  150SAPE   HN216562   1.708   5.601  10.841  1.3857 -1.7472 -1.2901
  150SAPE   HN316563   1.576   5.535  10.906 -1.7201 -1.3087 -1.2182
  150SAPE   C1216564   1.538   5.627  10.719 -0.2953 -0.2731  0.5653
  150SAPE  H12A16565   1.441   5.575  10.708  0.5389 -1.5730 -1.0754
  150SAPE  H12B16566   1.593   5.627  10.622 -1.1423  0.0735  0.0791
  150SAPE   C1116567   1.525   5.772  10.770  0.5157  0.3703 -0.3345
  150SAPE  H11A16568   1.450   5.822  10.704 -0.8537  1.8640  2.2093
  150SAPE  H11B16569   1.621   5.827  10.765  0.5358  0.3635  0.0070
  150SAPE     P16570   1.332   5.785  10.934  0.0069  0.2413  0.0543
  150SAPE   O1316571   1.303   5.782  11.081  0.4531  0.4405 -0.2787
  150SAPE   O1416572   1.273   5.892  10.857  0.6209  0.0150  0.0822
  150SAPE   O1216573   1.478   5.759  10.903 -0.3726 -0.6517  0.3422
  150SAPE   O1116574   1.268   5.653  10.871 -0.3946  0.4534 -0.0736
  150SAPE    C116575   1.132   5.629  10.855 -0.0834 -0.1659 -0.0217
  150SAPE    HA16576   1.110   5.541  10.919  2.6620 -0.8390  0.1068
  150SAPE    HB16577   1.073   5.713  10.898  0.9308 -0.4993  2.1426
  150SAPE    C216578   1.102   5.608  10.703 -0.1246  0.4189  0.2006
  150SAPE    HS16579   1.185   5.556  10.651 -1.0736 -0.6568 -0.2708
  150SAPE   O2116580   1.084   5.739  10.650  0.5220  0.0140  0.3664
  150SAPE   C2116581   1.190   5.793  10.582  0.4078  0.4854  0.1555
  150SAPE   O2216582   1.290   5.733  10.547 -0.1372 -1.0737  0.1427
  150SAPE   C2216583   1.160   5.936  10.544  0.2388 -0.0819 -0.0981
  150SAPE   H2R16584   1.060   5.928  10.496 -0.1027 -3.1966  0.8595
  150SAPE   H2S16585   1.163   5.999  10.635 -2.3047 -0.1660  0.1142
  150SAPE    C316586   0.978   5.513  10.693 -0.7962  0.6093 -0.0385
  150SAPE    HX16587   0.890   5.563  10.739  0.1870  0.4986  2.0728
  150SAPE    HY16588   1.009   5.417  10.740  1.0513  0.1507 -1.9934
  150SAPE   O3116589   0.945   5.474  10.557 -0.5673  0.8522 -1.0340
  150SAPE   C3116590   1.007   5.368  10.507  0.2101 -0.1990  0.5532
  150SAPE   O3216591   1.106   5.312  10.544  0.4479  0.4353  0.2504
  150SAPE   C3216592   0.939   5.327  10.369  0.1698 -0.0623 -0.2520
  150SAPE   H2X16593   0.928   5.419  10.307 -0.4247  0.2154  0.2668
  150SAPE   H2Y16594   0.841   5.278  10.384 -0.4269  0.9864 -0.5821
  150SAPE   C2316595   1.269   5.992  10.452 -0.1976 -0.9089  0.2516
  150SAPE   H3R16596   1.284   5.923  10.367 -0.3405  0.6370 -1.0835
  150SAPE   H3S16597   1.370   6.002  10.496  0.8300  0.1707 -2.1617
  150SAPE   C2416598   1.227   6.136  10.403  0.2377  0.3510 -0.2987
  150SAPE   H4R16599   1.309   6.200  10.365 -1.1772  2.6701  0.3199
  150SAPE   H4S16600   1.187   6.180  10.496  3.5582 -1.5410  2.2267
  150SAPE   C2516601   1.119   6.134  10.301 -0.5823 -0.4613 -0.2307
  150SAPE   H5R16602   1.016   6.154  10.336  0.0788 -1.5487  2.6384
  150SAPE   C2616603   1.137   6.101  10.168 -0.5782 -0.0628 -0.0868
  150SAPE   H6R16604   1.052   6.125  10.104 -1.9591  1.6606  2.2378
  150SAPE   C2716605   1.260   6.059  10.094 -0.7333  0.4376  0.0422
  150SAPE   H7R16606   1.244   5.957  10.053 -0.2814 -0.5672  2.2098
  150SAPE   H7S16607   1.346   6.062  10.164  0.6652  2.1758 -1.6340
  150SAPE   C2816608   1.290   6.157   9.991  0.5351  0.9008  0.3404
  150SAPE   H8R16609   1.333   6.252  10.026 -0.1886  1.2994  0.1769
  150SAPE   C2916610   1.267   6.140   9.861 -0.0198  0.0172 -0.5326
  150SAPE   H9R16611   1.312   6.214   9.794  1.0744 -0.9540 -0.9024
  150SAPE  C21016612   1.218   6.007   9.802 -0.3924  0.4606  0.2805
  150SAPE  H10R16613   1.149   6.038   9.720  0.5635 -1.6070 -1.3871
  150SAPE  H10S16614   1.155   5.950   9.874 -1.2908  2.6581  1.3199
  150SAPE  C21116615   1.331   5.937   9.735 -0.1996 -0.1327  0.2500
  150SAPE  H11R16616   1.380   5.858   9.792 -1.9496 -1.3718  0.1221
  150SAPE  C21216617   1.375   5.965   9.608  0.3224 -0.6562 -0.1472
  150SAPE  H12R16618   1.469   5.927   9.566  1.1747  1.4104 -0.1904
  150SAPE  C21316619   1.298   6.063   9.525 -0.2123 -0.4931 -0.3096
  150SAPE  H13R16620   1.373   6.128   9.475  1.6627 -0.9553  1.7657
  150SAPE  H13S16621   1.250   6.142   9.585  0.2768  1.8293 -2.7797
  150SAPE  C21416622   1.198   6.002   9.431 -0.1503 -0.2665  0.4536
  150SAPE  H14R16623   1.124   5.939   9.482 -1.8410  2.8171  2.1679
  150SAPE  C21516624   1.197   6.010   9.296 -0.0932 -0.1416  0.2192
  150SAPE  H15R16625   1.115   5.953   9.249  0.5400 -1.3521  0.5420
  150SAPE  C21616626   1.292   6.082   9.206  0.6944 -0.0548 -0.0464
  150SAPE  H16R16627   1.391   6.032   9.195 -0.0879 -1.5785 -0.5706
  150SAPE  H16S16628   1.310   6.189   9.230  4.4156  0.2010 -2.9225
  150SAPE  C21716629   1.257   6.092   9.057 -0.2192 -0.2788 -0.1650
  150SAPE  H17R16630   1.340   6.152   9.015 -1.7728  1.3216 -1.1144
  150SAPE  H17S16631   1.164   6.147   9.030  1.2376  0.7859 -3.4898
  150SAPE  C21816632   1.253   5.952   8.996  0.4607  0.5787  1.0662
  150SAPE  H18R16633   1.148   5.914   8.999  1.4077 -2.1884  1.6930
  150SAPE  H18S16634   1.315   5.882   9.056  1.7175  0.2430 -0.5540
  150SAPE  C21916635   1.303   5.961   8.858  0.7234 -0.4834  0.0705
  150SAPE  H19R16636   1.254   6.036   8.793  0.0240  0.2699  1.4247
  150SAPE  H19S16637   1.273   5.864   8.813  2.6014 -1.0695 -0.0077
  150SAPE  C22016638   1.452   5.977   8.851 -0.5929 -0.0827  1.0127
  150SAPE  H20R16639   1.503   5.894   8.906  2.8138  0.8626 -0.4454
  150SAPE  H20S16640   1.484   6.078   8.886 -1.5356  0.7051 -0.3291
  150SAPE  H20T16641   1.474   5.971   8.743 -0.9668 -1.9845  1.0045
  150SAPE   C3316642   1.039   5.241  10.284  0.9143  0.1990  0.3345
  150SAPE   H3X16643   1.048   5.144  10.336 -1.9551  0.0807  0.7857
  150SAPE   H3Y16644   1.131   5.303  10.274  0.1711  0.9433 -2.9049
  150SAPE   C3416645   0.994   5.230  10.136 -1.1554 -0.5758 -0.0447
  150SAPE   H4X16646   1.017   5.328  10.090 -2.0828 -1.0488 -1.5804
  150SAPE   H4Y16647   0.890   5.191  10.137 -0.2411 -3.1745 -0.1518
  150SAPE   C3516648   1.071   5.126  10.054 -0.1087  0.2143 -0.2073
  150SAPE   H5X16649   1.059   5.026  10.100  0.3289 -0.9043 -2.4319
  150SAPE   H5Y16650   1.178   5.156  10.061 -0.7405  2.9457 -1.0422
  150SAPE   C3616651   1.012   5.104   9.908 -0.4401  0.2401  0.1033
  150SAPE   H6X16652   0.901   5.104   9.916 -0.3189  0.2070  2.8104
  150SAPE   H6Y16653   1.041   5.002   9.874  1.8784  0.5193  1.0488
  150SAPE   C3716654   1.053   5.211   9.818  0.1774  0.2369 -0.3840
  150SAPE   H7X16655   1.163   5.220   9.810  0.3071  2.1937  2.1159
  150SAPE   H7Y16656   1.043   5.308   9.871  1.9694 -0.9565  2.4272
  150SAPE   C3816657   0.978   5.226   9.680  0.6592  0.8304 -0.5146
  150SAPE   H8X16658   0.871   5.251   9.698 -0.3126 -3.0023 -0.1194
  150SAPE   H8Y16659   0.971   5.129   9.627  2.5697  0.2426  0.2530
  150SAPE   C3916660   1.048   5.306   9.571  0.0893 -0.0643 -0.0122
  150SAPE   H9X16661   1.148   5.261   9.559  0.2039  0.0632  0.4509
  150SAPE   H9Y16662   1.050   5.409   9.613 -2.5543 -1.5913  4.7526
  150SAPE  C31016663   0.973   5.295   9.434  0.2179  0.0691  0.3283
  150SAPE  H10X16664   0.874   5.346   9.433  0.1394 -0.0858 -0.0800
  150SAPE  H10Y16665   0.949   5.189   9.410 -0.9208  0.4255 -0.1480
  150SAPE  C31116666   1.056   5.360   9.334 -0.6785 -0.4379  0.5601
  150SAPE  H11X16667   1.145   5.302   9.302 -0.2410  1.8977 -3.0968
  150SAPE  H11Y16668   1.104   5.449   9.381  1.2598  0.0525 -2.0832
  150SAPE  C31216669   0.993   5.408   9.199  0.2762 -0.3581 -0.8501
  150SAPE  H12X16670   0.926   5.490   9.232  0.9942 -0.7087  1.6819
  150SAPE  H12Y16671   0.937   5.324   9.152 -0.2104 -2.1425  2.5812
  150SAPE  C31316672   1.089   5.463   9.091 -0.1626 -0.6512  0.8553
  150SAPE  H13X16673   1.178   5.400   9.071 -0.0224  0.1948 -1.5306
  150SAPE  H13Y16674   1.148   5.547   9.135 -0.0438 -1.2570  1.8762
  150SAPE  C31416675   1.017   5.500   8.956  0.6210 -0.4270  0.0945
  150SAPE  H14X16676   0.928   5.435   8.946  1.4620 -1.8152  1.2962
  150SAPE  H14Y16677   1.074   5.475   8.864  1.1580 -0.1516  0.3457
  150SAPE  C31516678   0.967   5.648   8.944  0.6272  0.0840 -0.4402
  150SAPE  H15X16679   1.016   5.730   9.001  1.9817 -0.4614 -0.7843
  150SAPE  H15Y16680   0.860   5.642   8.973  0.5129 -2.0201 -1.1451
  150SAPE  C31616681   0.964   5.692   8.797  0.2915 -0.3482  0.1537
  150SAPE  H16X16682   0.912   5.624   8.726  1.1417  2.3908 -3.3941
  150SAPE  H16Y16683   1.066   5.701   8.755 -0.2540  0.1126 -1.1324
  150SAPE  C31716684   0.888   5.829   8.775 -0.0367 -0.0831 -0.2315
  150SAPE  H17X16685   0.916   5.848   8.669 -2.3181 -1.8395 -1.2167
  150SAPE  H17Y16686   0.936   5.898   8.848 -0.3992 -1.0979  1.0198
  150SAPE  C31816687   0.735   5.830   8.799  0.0159  0.5667  0.1705
  150SAPE  H18X16688   0.695   5.933   8.798  0.4132  0.7257  0.3494
  150SAPE  H18Y16689   0.700   5.799   8.900 -0.7153  0.3714 -0.1351
  150SAPE  H18Z16690   0.688   5.763   8.724  0.7379 -1.0593  1.1099
  151SAPE     N16691   5.809   2.581  10.438 -0.6050  0.6722 -0.1080
  151SAPE   HN116692   5.794   2.684  10.439 -1.2589  0.6828 -2.9378
  151SAPE   HN216693   5.906   2.553  10.461 -1.1493 -0.1214  1.3786
  151SAPE   HN316694   5.783   2.542  10.345 -5.5688  1.7823  0.5230
  151SAPE   C1216695   5.719   2.509  10.541  0.1705  0.2569  0.9230
  151SAPE  H12A16696   5.772   2.523  10.638 -0.4870  0.5993  1.2435
  151SAPE  H12B16697   5.713   2.400  10.522 -2.0806  0.0413  2.4409
  151SAPE   C1116698   5.575   2.573  10.543 -0.1128 -0.0999  0.4468
  151SAPE  H11A16699   5.515   2.529  10.626 -1.8106  0.9576 -0.1637
  151SAPE  H11B16700   5.525   2.551  10.446 -0.7084  0.0341  0.7222
  151SAPE     P16701   5.453   2.796  10.582 -0.2818 -0.3308  0.1823
  151SAPE   O1316702   5.381   2.760  10.711 -0.2072  0.1528  0.6575
  151SAPE   O1416703   5.482   2.941  10.569 -0.5122  0.3080 -0.5097
  151SAPE   O1216704   5.592   2.711  10.562 -0.0096 -0.4871  0.1955
  151SAPE   O1116705   5.363   2.758  10.460 -0.1166  0.3077  0.2737
  151SAPE    C116706   5.406   2.797  10.328  0.1473  1.0509  0.3527
  151SAPE    HA16707   5.359   2.890  10.290 -0.2789  0.9962  0.7453
  151SAPE    HB16708   5.517   2.802  10.327  0.3270 -1.4347  1.6923
  151SAPE    C216709   5.393   2.681  10.225 -0.8965 -0.1029  0.3184
  151SAPE    HS16710   5.448   2.592  10.263 -1.1195  0.1875  1.3770
  151SAPE   O2116711   5.436   2.729  10.098  0.0186 -0.1786  0.4082
  151SAPE   C2116712   5.505   2.645  10.026 -0.3268 -0.1108  0.5350
  151SAPE   O2216713   5.529   2.530  10.054 -0.3473  0.1900 -0.3173
  151SAPE   C2216714   5.560   2.715   9.903 -0.5812 -0.5625 -0.0487
  151SAPE   H2R16715   5.485   2.788   9.868 -2.2534 -1.0068  2.3731
  151SAPE   H2S16716   5.654   2.765   9.936 -0.2966 -1.1914  0.1085
  151SAPE    C316717   5.248   2.644  10.199  0.4918 -0.6795 -0.1788
  151SAPE    HX16718   5.198   2.729  10.149  1.6695 -0.3230 -0.8004
  151SAPE    HY16719   5.190   2.632  10.293 -1.4217  1.2774 -1.0219
  151SAPE   O3116720   5.240   2.524  10.119  0.8969  0.6480  0.0960
  151SAPE   C3116721   5.240   2.409  10.178 -0.6672  0.3184 -0.4960
  151SAPE   O3216722   5.238   2.391  10.298  0.0976 -0.1820 -0.3005
  151SAPE   C3216723   5.243   2.298  10.073 -0.3230  0.1495 -0.0797
  151SAPE   H2X16724   5.165   2.223  10.098  0.1632 -0.4414 -0.3228
  151SAPE   H2Y16725   5.338   2.241  10.077  0.0036  0.7404  0.7738
  151SAPE   C2316726   5.604   2.626   9.787 -0.7723 -0.0660 -0.6191
  151SAPE   H3R16727   5.668   2.545   9.828 -2.7861 -0.5214  1.8886
  151SAPE   H3S16728   5.668   2.673   9.709 -1.8873  1.4272 -0.6902
  151SAPE   C2416729   5.475   2.577   9.721  0.4317  0.3848 -0.6178
  151SAPE   H4R16730   5.429   2.672   9.686  1.6406  1.4329  0.5513
  151SAPE   H4S16731   5.406   2.552   9.804  1.1298  0.6017  0.0437
  151SAPE   C2516732   5.492   2.473   9.615 -0.5191 -0.1743  0.6080
  151SAPE   H5R16733   5.525   2.371   9.639 -0.2546 -0.0088  0.9610
  151SAPE   C2616734   5.484   2.505   9.486  0.1816  0.6202  0.2502
  151SAPE   H6R16735   5.502   2.431   9.407  0.3957  0.7590  0.1683
  151SAPE   C2716736   5.457   2.640   9.426 -0.7328  0.2797 -0.3011
  151SAPE   H7R16737   5.493   2.655   9.322  0.4089 -2.6014 -0.3997
  151SAPE   H7S16738   5.527   2.705   9.482  0.2220 -0.9533 -0.0352
  151SAPE   C2816739   5.317   2.679   9.414  0.0276  0.3206  0.2289
  151SAPE   H8R16740   5.260   2.645   9.502  0.2451  0.6921  0.5138
  151SAPE   C2916741   5.249   2.734   9.312  0.3970 -0.0573 -0.0052
  151SAPE   H9R16742   5.140   2.743   9.327  0.0293 -1.6463 -1.4675
  151SAPE  C21016743   5.293   2.772   9.171 -0.1203 -0.2438 -0.6066
  151SAPE  H10R16744   5.403   2.779   9.160 -0.0271 -0.1432  0.3219
  151SAPE  H10S16745   5.244   2.868   9.144  1.3772  0.9361  0.6588
  151SAPE  C21116746   5.237   2.663   9.080 -0.0567  0.2177  0.5886
  151SAPE  H11R16747   5.130   2.641   9.091  0.1270 -1.3936 -0.5964
  151SAPE  C21216748   5.302   2.613   8.968  0.2297 -0.2164  0.8196
  151SAPE  H12R16749   5.251   2.536   8.908 -1.2940  0.8550  0.6651
  151SAPE  C21316750   5.437   2.649   8.914 -0.6924  0.2150 -0.2476
  151SAPE  H13R16751   5.480   2.555   8.874 -0.2336 -0.3460  1.4495
  151SAPE  H13S16752   5.497   2.693   8.997 -0.6760 -2.4728  1.2623
  151SAPE  C21416753   5.435   2.756   8.811 -1.1939 -0.0310  0.4498
  151SAPE  H14R16754   5.351   2.747   8.741 -1.6293 -1.5615  1.1310
  151SAPE  C21516755   5.516   2.867   8.806 -0.8127 -0.0288 -0.6398
  151SAPE  H15R16756   5.513   2.927   8.714  0.6725 -0.8358 -1.2513
  151SAPE  C21616757   5.633   2.901   8.901 -0.2752  0.2744  0.1999
  151SAPE  H16R16758   5.600   2.927   9.003  1.9941  0.8113  0.8677
  151SAPE  H16S16759   5.689   2.991   8.868 -0.3594  0.4932  0.6450
  151SAPE  C21716760   5.737   2.792   8.919  1.0703  0.9369  0.3461
  151SAPE  H17R16761   5.811   2.794   8.836 -0.3217 -0.9806 -1.0335
  151SAPE  H17S16762   5.699   2.687   8.920  1.1022  0.9205  0.0170
  151SAPE  C21816763   5.811   2.795   9.056 -0.5351  0.7280 -0.4014
  151SAPE  H18R16764   5.857   2.895   9.069 -0.9608  0.8240  0.4881
  151SAPE  H18S16765   5.884   2.711   9.062 -0.0569  1.0983 -0.9778
  151SAPE  C21916766   5.718   2.795   9.182 -1.1087 -0.3208  0.6420
  151SAPE  H19R16767   5.641   2.716   9.167  0.4455 -1.6761 -0.5843
  151SAPE  H19S16768   5.668   2.894   9.186 -1.5772 -0.5490  0.4761
  151SAPE  C22016769   5.801   2.797   9.315 -0.5581 -0.2495  0.3351
  151SAPE  H20R16770   5.861   2.890   9.317  0.7412 -1.0559  2.2387
  151SAPE  H20S16771   5.870   2.711   9.328  1.0790  1.0774  0.7448
  151SAPE  H20T16772   5.728   2.798   9.399 -2.3509  1.6377 -1.1281
  151SAPE   C3316773   5.209   2.353   9.928  0.7923 -0.0868  0.6559
  151SAPE   H3X16774   5.300   2.411   9.900  1.0965 -1.0368 -0.3937
  151SAPE   H3Y16775   5.117   2.415   9.929 -0.6613 -2.0808 -1.3437
  151SAPE   C3416776   5.210   2.245   9.817  0.2848 -0.2057 -0.3367
  151SAPE   H4X16777   5.157   2.159   9.862 -0.5632  0.8470  0.7526
  151SAPE   H4Y16778   5.310   2.212   9.783 -0.5744 -0.2527 -3.1285
  151SAPE   C3516779   5.148   2.293   9.683  0.2311  0.9595 -0.0498
  151SAPE   H5X16780   5.197   2.389   9.657  2.4461  1.1518  3.9951
  151SAPE   H5Y16781   5.046   2.324   9.711  0.0102  1.4980 -1.3643
  151SAPE   C3616782   5.165   2.185   9.572 -0.0809 -0.1916  0.2310
  151SAPE   H6X16783   5.119   2.095   9.618 -1.3395  1.2536  1.9827
  151SAPE   H6Y16784   5.272   2.164   9.554 -0.1412  1.1016 -1.9364
  151SAPE   C3716785   5.089   2.216   9.448  0.1494 -0.4370  1.2383
  151SAPE   H7X16786   4.980   2.217   9.469 -0.0819  2.2735  0.3120
  151SAPE   H7Y16787   5.101   2.133   9.375 -0.9134  0.1456  0.3738
  151SAPE   C3816788   5.117   2.359   9.388  0.1516 -0.2443 -0.1574
  151SAPE   H8X16789   5.216   2.366   9.339  0.4101  1.2888  0.5258
  151SAPE   H8Y16790   5.112   2.437   9.467  2.7764 -1.1571  1.0189
  151SAPE   C3916791   5.015   2.399   9.281  0.1832 -0.1070  0.3966
  151SAPE   H9X16792   5.044   2.503   9.257  2.2517 -0.5255  0.8826
  151SAPE   H9Y16793   4.916   2.388   9.329 -0.8361 -1.3473 -1.8624
  151SAPE  C31016794   5.018   2.312   9.157 -0.1018 -0.2262  0.9328
  151SAPE  H10X16795   4.983   2.208   9.176  1.3686 -1.4905 -2.4525
  151SAPE  H10Y16796   5.120   2.305   9.115 -0.7796 -1.0100 -0.6811
  151SAPE  C31116797   4.936   2.371   9.042  0.2657 -0.4505  0.0480
  151SAPE  H11X16798   4.935   2.481   9.048  1.6727 -0.3866 -0.4463
  151SAPE  H11Y16799   4.834   2.326   9.038 -1.1674  2.6573 -2.3351
  151SAPE  C31216800   4.996   2.329   8.904 -0.1936  0.1943  0.8531
  151SAPE  H12X16801   4.998   2.218   8.915 -1.3462  0.1445  0.5997
  151SAPE  H12Y16802   5.101   2.365   8.898  0.2614 -1.0070  1.2813
  151SAPE  C31316803   4.911   2.361   8.784  0.2877  0.5712 -0.5430
  151SAPE  H13X16804   4.907   2.469   8.759 -1.7369  0.2577 -1.8483
  151SAPE  H13Y16805   4.811   2.328   8.818  0.8990 -0.1534  0.6207
  151SAPE  C31416806   4.936   2.270   8.654 -0.1490  0.0365 -0.7626
  151SAPE  H14X16807   4.917   2.161   8.666  1.4474 -0.4725 -2.3901
  151SAPE  H14Y16808   5.045   2.279   8.635  0.3575 -2.7187  0.3155
  151SAPE  C31516809   4.851   2.309   8.532 -0.3498  0.0584 -0.0246
  151SAPE  H15X16810   4.749   2.325   8.573 -0.4655 -0.8952  0.0915
  151SAPE  H15Y16811   4.852   2.230   8.453 -0.5243  1.2435 -1.2475
  151SAPE  C31616812   4.890   2.442   8.462 -0.0460  0.5098 -0.3623
  151SAPE  H16X16813   4.900   2.521   8.539 -2.1496 -0.8397  1.4294
  151SAPE  H16Y16814   4.808   2.479   8.396  0.7506 -1.7679 -2.8358
  151SAPE  C31716815   5.017   2.435   8.373  0.3073  0.1074  0.4766
  151SAPE  H17X16816   4.985   2.438   8.267 -0.6207  0.4388  0.7528
  151SAPE  H17Y16817   5.074   2.342   8.390 -0.7940 -0.3866  1.7050
  151SAPE  C31816818   5.118   2.553   8.391 -0.6562 -0.3134 -1.0439
  151SAPE  H18X16819   5.151   2.564   8.496  0.7295 -0.4682 -1.4397
  151SAPE  H18Y16820   5.082   2.651   8.355  2.9580  1.2589 -0.8614
  151SAPE  H18Z16821   5.212   2.538   8.333  0.5150 -0.1288  0.7237
  152SAPE     N16822   0.526   1.503  10.956 -0.0738 -0.3444 -0.6043
  152SAPE   HN116823   0.525   1.560  11.043 -3.3874 -1.1781  0.0182
  152SAPE   HN216824   0.564   1.558  10.876 -1.2985 -1.5548 -2.0613
  152SAPE   HN316825   0.427   1.474  10.944 -0.8928  2.2798 -0.9624
  152SAPE   C1216826   0.632   1.403  10.975  0.0864  0.6713 -0.3289
  152SAPE  H12A16827   0.593   1.303  10.946  1.4396  0.6546 -2.2002
  152SAPE  H12B16828   0.654   1.393  11.084  1.1763 -0.8061 -0.6707
  152SAPE   C1116829   0.753   1.435  10.891 -0.4086 -0.3404 -0.7023
  152SAPE  H11A16830   0.829   1.356  10.910  0.4231  0.8086  0.9922
  152SAPE  H11B16831   0.806   1.525  10.929 -0.6101 -0.2449 -0.6500
  152SAPE     P16832   0.746   1.345  10.651  0.0858 -0.1112  0.0503
  152SAPE   O1316833   0.878   1.289  10.690 -0.4998 -0.4301 -0.6397
  152SAPE   O1416834   0.633   1.252  10.620  0.3320 -0.2659  0.6422
  152SAPE   O1216835   0.711   1.455  10.754 -0.6650 -0.4084  0.2481
  152SAPE   O1116836   0.767   1.421  10.521 -0.2047  0.2108  0.1978
  152SAPE    C116837   0.762   1.563  10.513  0.1746 -0.1285 -0.4026
  152SAPE    HA16838   0.669   1.602  10.560  0.6492 -1.1694  1.5298
  152SAPE    HB16839   0.850   1.612  10.560 -0.3755  1.3175 -0.8283
  152SAPE    C216840   0.761   1.617  10.363  0.0891  0.0930 -0.2569
  152SAPE    HS16841   0.803   1.720  10.368  0.5933 -0.0899 -0.6871
  152SAPE   O2116842   0.625   1.627  10.320  0.0552 -0.1089 -0.6020
  152SAPE   C2116843   0.590   1.725  10.234  0.1604  0.7697 -0.2183
  152SAPE   O2216844   0.654   1.824  10.203 -0.0664  0.9608 -0.0311
  152SAPE   C2216845   0.462   1.683  10.169 -0.4459  0.3646 -0.9399
  152SAPE   H2R16846   0.387   1.676  10.250 -2.2760  0.6889 -2.5237
  152SAPE   H2S16847   0.424   1.758  10.096 -0.4884  0.5568 -0.7231
  152SAPE    C316848   0.844   1.520  10.270 -0.1041  0.0498  0.1032
  152SAPE    HX16849   0.777   1.432  10.256  1.7080 -1.3733  0.0863
  152SAPE    HY16850   0.935   1.498  10.330  0.9253  0.8841 -1.1240
  152SAPE   O3116851   0.876   1.587  10.150 -0.2475  0.3043 -0.0132
  152SAPE   C3116852   0.970   1.683  10.154 -0.7118  0.2371  0.2816
  152SAPE   O3216853   1.021   1.734  10.253  0.3454  0.1284 -0.2095
  152SAPE   C3216854   0.994   1.724  10.014  0.1083  0.6422  0.5176
  152SAPE   H2X16855   1.103   1.745  10.014  0.2637 -0.1020 -0.2557
  152SAPE   H2Y16856   0.929   1.812   9.996  1.2668  1.3097 -0.5807
  152SAPE   C2316857   0.481   1.539  10.113 -0.8863 -0.1978  0.0177
  152SAPE   H3R16858   0.378   1.523  10.074 -0.8396  2.3428 -1.4167
  152SAPE   H3S16859   0.499   1.464  10.193  1.7455 -1.3645 -1.5596
  152SAPE   C2416860   0.578   1.526   9.999 -0.6003 -0.1875 -0.3556
  152SAPE   H4R16861   0.567   1.421   9.964 -0.3697 -0.4013  0.2032
  152SAPE   H4S16862   0.680   1.543  10.040 -0.1461 -1.0909 -1.0749
  152SAPE   C2516863   0.551   1.630   9.898  0.3271 -0.4034 -0.0308
  152SAPE   H5R16864   0.577   1.735   9.919  4.2590 -1.2690  0.2658
  152SAPE   C2616865   0.488   1.597   9.790 -0.0219  0.3203  0.3614
  152SAPE   H6R16866   0.471   1.674   9.713  0.2605  0.1418  0.1150
  152SAPE   C2716867   0.426   1.467   9.743 -0.3469  0.0203 -0.1396
  152SAPE   H7R16868   0.319   1.487   9.724 -0.1746 -2.1047 -4.5212
  152SAPE   H7S16869   0.431   1.393   9.826  0.3346  0.9841  0.7164
  152SAPE   C2816870   0.502   1.388   9.638  1.0263  0.1614 -0.4334
  152SAPE   H8R16871   0.592   1.339   9.678 -0.3872 -0.9001  1.6375
  152SAPE   C2916872   0.462   1.365   9.508  0.2870  0.1134 -0.6327
  152SAPE   H9R16873   0.523   1.308   9.437 -0.7813 -0.3018 -1.2388
  152SAPE  C21016874   0.333   1.425   9.450 -0.1853 -0.3447 -0.1692
  152SAPE  H10R16875   0.288   1.513   9.501 -0.6199  0.0163 -1.1425
  152SAPE  H10S16876   0.255   1.346   9.443  0.1076 -0.7019  0.4972
  152SAPE  C21116877   0.348   1.471   9.311 -0.7370  0.2254 -0.4054
  152SAPE  H11R16878   0.389   1.573   9.312 -2.0337  0.8112 -2.0983
  152SAPE  C21216879   0.309   1.415   9.190  0.0710 -0.1137 -0.3556
  152SAPE  H12R16880   0.345   1.466   9.099  1.8991 -2.4164 -1.0011
  152SAPE  C21316881   0.241   1.281   9.166 -0.5375 -0.7548 -0.1784
  152SAPE  H13R16882   0.159   1.293   9.091  0.0497 -0.7308 -0.8297
  152SAPE  H13S16883   0.181   1.255   9.256 -1.0802  1.3331  0.1185
  152SAPE  C21416884   0.347   1.176   9.138  0.3143 -0.3804 -0.3228
  152SAPE  H14R16885   0.424   1.167   9.216  1.4566 -0.0518 -1.3697
  152SAPE  C21516886   0.363   1.091   9.031 -0.1855  0.1735  0.1295
  152SAPE  H15R16887   0.457   1.035   9.024 -0.0472  0.2722  1.0610
  152SAPE  C21616888   0.264   1.091   8.922  0.3468  0.1969 -0.5171
  152SAPE  H16R16889   0.158   1.111   8.950 -0.3064 -0.8436 -2.0462
  152SAPE  H16S16890   0.277   0.994   8.868 -2.4724 -1.6999  1.8901
  152SAPE  C21716891   0.287   1.203   8.816  0.6476 -0.2328 -0.4334
  152SAPE  H17R16892   0.382   1.189   8.762  1.0371  0.5804  0.0230
  152SAPE  H17S16893   0.295   1.303   8.863  1.2151  0.4637 -1.9894
  152SAPE  C21816894   0.176   1.211   8.706 -0.1146  0.2374 -0.6701
  152SAPE  H18R16895   0.080   1.227   8.759 -0.4369  0.1739 -1.2300
  152SAPE  H18S16896   0.162   1.116   8.650 -0.5060  1.0136 -1.9271
  152SAPE  C21916897   0.205   1.326   8.613 -0.5960  0.2432 -0.5918
  152SAPE  H19R16898   0.308   1.327   8.573 -0.7943 -0.8064 -1.1764
  152SAPE  H19S16899   0.195   1.418   8.675 -1.2439  0.3545 -0.8551
  152SAPE  C22016900   0.120   1.329   8.486  0.1046  0.4905  0.2982
  152SAPE  H20R16901   0.138   1.233   8.434 -0.9240 -0.1883  1.1364
  152SAPE  H20S16902   0.148   1.416   8.423 -0.3555 -0.9759 -2.0755
  152SAPE  H20T16903   0.012   1.334   8.512 -0.2393 -1.0875 -0.6806
  152SAPE   C3316904   0.960   1.626   9.895  0.2161  0.0181 -0.7035
  152SAPE   H3X16905   0.850   1.615   9.889 -0.0310  1.1935  0.8712
  152SAPE   H3Y16906   1.003   1.526   9.918 -1.4950 -0.9067 -1.3994
  152SAPE   C3416907   1.010   1.668   9.758  0.1316 -0.2382 -0.4075
  152SAPE   H4X16908   1.120   1.656   9.759  0.1227 -0.4723 -1.4317
  152SAPE   H4Y16909   0.997   1.776   9.736  1.0318 -0.2239 -0.8982
  152SAPE   C3516910   0.950   1.586   9.635 -0.3195  0.3316 -1.4143
  152SAPE   H5X16911   0.839   1.591   9.634 -0.4467  0.8696  2.0871
  152SAPE   H5Y16912   0.971   1.478   9.645  0.9899  0.6955  0.1311
  152SAPE   C3616913   1.010   1.629   9.500  0.0772 -0.2392 -0.3231
  152SAPE   H6X16914   1.120   1.612   9.493 -0.1708 -2.5013  0.4586
  152SAPE   H6Y16915   0.997   1.738   9.484  2.0574  0.3048  1.2723
  152SAPE   C3716916   0.943   1.560   9.382 -0.4735 -0.4477 -0.2500
  152SAPE   H7X16917   0.967   1.452   9.389  0.5424 -0.1902  0.3936
  152SAPE   H7Y16918   0.991   1.597   9.289 -0.1945 -0.8665 -0.2730
  152SAPE   C3816919   0.782   1.573   9.367  0.3991  0.0816 -0.3400
  152SAPE   H8X16920   0.760   1.682   9.359 -1.4246 -0.3013 -0.9270
  152SAPE   H8Y16921   0.728   1.542   9.459  0.4399  0.0228 -0.3354
  152SAPE   C3916922   0.722   1.494   9.251  0.6937  0.6036 -0.0618
  152SAPE   H9X16923   0.613   1.513   9.266  0.9061 -0.2537  3.3532
  152SAPE   H9Y16924   0.734   1.384   9.243  0.1519  0.6333 -1.8053
  152SAPE  C31016925   0.759   1.550   9.117 -0.0970 -0.0826  0.0899
  152SAPE  H10X16926   0.870   1.555   9.105 -0.1441  0.2886 -0.1948
  152SAPE  H10Y16927   0.729   1.655   9.140  1.3088 -0.0560  2.1123
  152SAPE  C31116928   0.691   1.487   8.994  0.6502  0.2600 -0.1955
  152SAPE  H11X16929   0.713   1.549   8.904 -0.3940  0.7052 -0.1588
  152SAPE  H11Y16930   0.582   1.486   9.019  0.4459 -0.3139 -1.0373
  152SAPE  C31216931   0.734   1.342   8.965 -0.3936  1.0029 -0.4097
  152SAPE  H12X16932   0.674   1.284   9.038  2.2028  0.7999  1.7483
  152SAPE  H12Y16933   0.843   1.328   8.983 -0.7748 -2.4885 -0.0931
  152SAPE  C31316934   0.698   1.317   8.816  0.0488  0.3427  0.6354
  152SAPE  H13X16935   0.770   1.366   8.747  0.0196 -1.5498 -0.8296
  152SAPE  H13Y16936   0.592   1.347   8.809 -0.1581 -0.6552 -1.1607
  152SAPE  C31416937   0.698   1.169   8.782  0.7888  0.5776 -0.0054
  152SAPE  H14X16938   0.634   1.114   8.855  0.4541  0.4533 -0.3860
  152SAPE  H14Y16939   0.803   1.135   8.792  0.3309 -2.5514 -3.4887
  152SAPE  C31516940   0.648   1.139   8.640 -0.2359  0.7915  0.4246
  152SAPE  H15X16941   0.712   1.184   8.561  0.8842 -0.9981  0.2587
  152SAPE  H15Y16942   0.542   1.171   8.629 -1.1856 -1.9251  0.9342
  152SAPE  C31616943   0.658   0.993   8.596  0.5124 -0.1685 -0.5092
  152SAPE  H16X16944   0.761   0.955   8.615 -0.2383 -2.0486  0.0477
  152SAPE  H16Y16945   0.631   0.963   8.493 -1.1419  0.4772 -0.3005
  152SAPE  C31716946   0.565   0.899   8.687  0.2615  0.0846  0.0551
  152SAPE  H17X16947   0.461   0.933   8.666  1.3049  2.8712 -1.2055
  152SAPE  H17Y16948   0.586   0.921   8.794 -0.2907 -1.8086  0.5855
  152SAPE  C31816949   0.602   0.748   8.663  0.3113  0.5482 -0.5946
  152SAPE  H18X16950   0.613   0.731   8.554 -2.7847 -1.2856 -0.7305
  152SAPE  H18Y16951   0.525   0.678   8.702 -1.7729  2.5002 -0.9833
  152SAPE  H18Z16952   0.701   0.721   8.706 -0.3329 -1.8609 -0.5085
  153SAPE     N16953   6.359   0.601  11.083  0.4894 -0.1940  0.1716
  153SAPE   HN116954   6.372   0.616  10.981 -0.4763 -2.0959 -0.2762
  153SAPE   HN216955   6.456   0.587  11.119  0.2003  3.1023  2.7596
  153SAPE   HN316956   6.302   0.515  11.093  1.3175 -0.7141  0.4967
  153SAPE   C1216957   6.283   0.717  11.149 -0.3035 -0.0340 -0.1376
  153SAPE  H12A16958   6.356   0.799  11.167 -0.8172  0.1132  1.3401
  153SAPE  H12B16959   6.243   0.679  11.245  2.3454  1.0089  1.5045
  153SAPE   C1116960   6.169   0.772  11.052 -0.1691  1.1006 -0.1431
  153SAPE  H11A16961   6.119   0.854  11.107 -3.0805 -0.8650  0.3736
  153SAPE  H11B16962   6.092   0.692  11.042  2.0359 -1.1918  0.3689
  153SAPE     P16963   6.143   0.897  10.833 -0.0437  0.4799  0.2761
  153SAPE   O1316964   6.070   0.829  10.723  0.1723  0.0752 -0.0647
  153SAPE   O1416965   6.062   0.994  10.907  0.1241 -0.3816 -0.3330
  153SAPE   O1216966   6.225   0.804  10.929  0.3954 -0.1829  0.4223
  153SAPE   O1116967   6.254   0.985  10.762  0.0822 -0.5092 -0.2920
  153SAPE    C116968   6.393   0.957  10.742 -0.4637  0.9619 -0.4718
  153SAPE    HA16969   6.465   1.017  10.802  0.8627 -0.7063 -0.3317
  153SAPE    HB16970   6.412   0.852  10.772 -0.4163  1.1362  0.1368
  153SAPE    C216971   6.447   0.971  10.593  0.2952 -1.1484 -0.5488
  153SAPE    HS16972   6.523   0.890  10.592  1.3430 -0.2174  0.4386
  153SAPE   O2116973   6.484   1.108  10.565 -0.6239 -0.2145  0.0521
  153SAPE   C2116974   6.599   1.120  10.496  0.0886  0.9172  0.2335
  153SAPE   O2216975   6.656   1.025  10.450  0.0156  0.6000  0.4569
  153SAPE   C2216976   6.629   1.268  10.459 -0.3853  0.4317 -0.9008
  153SAPE   H2R16977   6.555   1.330  10.514  0.9658  0.2653  1.1983
  153SAPE   H2S16978   6.729   1.290  10.501 -0.3382 -1.1254 -0.1421
  153SAPE    C316979   6.329   0.945  10.500 -0.3228  0.6425 -0.4096
  153SAPE    HX16980   6.254   1.023  10.525  0.9518  1.2783  1.6392
  153SAPE    HY16981   6.279   0.854  10.539 -0.2841  0.8793  0.1966
  153SAPE   O3116982   6.356   0.942  10.361 -0.4233  0.5777  0.8588
  153SAPE   C3116983   6.393   0.825  10.314  0.5898 -1.0439  0.0724
  153SAPE   O3216984   6.422   0.728  10.380  0.5815  0.0333 -0.1383
  153SAPE   C3216985   6.403   0.839  10.161  0.1377  0.0046  0.6226
  153SAPE   H2X16986   6.299   0.832  10.122  0.8521  2.5989 -2.1502
  153SAPE   H2Y16987   6.456   0.746  10.130  0.6951 -0.0937  1.8551
  153SAPE   C2316988   6.612   1.300  10.304  0.1725  0.6122 -1.1510
  153SAPE   H3R16989   6.512   1.257  10.283  0.5656 -2.4956  2.3259
  153SAPE   H3S16990   6.689   1.236  10.257  1.7717 -1.1418  3.2644
  153SAPE   C2416991   6.623   1.448  10.286 -1.3301 -0.0346  0.2324
  153SAPE   H4R16992   6.589   1.499  10.379  2.4220  1.3351  1.0695
  153SAPE   H4S16993   6.575   1.472  10.189  2.6528  0.9605 -1.7315
  153SAPE   C2516994   6.778   1.481  10.277  0.1720  0.2870 -0.0757
  153SAPE   H5R16995   6.849   1.407  10.316  1.8035 -0.0136 -3.3004
  153SAPE   C2616996   6.820   1.573  10.189  0.0572 -0.3267  0.2734
  153SAPE   H6R16997   6.928   1.595  10.191  0.6251 -1.8124 -4.0319
  153SAPE   C2716998   6.733   1.667  10.106  0.1692 -0.0155 -0.0168
  153SAPE   H7R16999   6.641   1.694  10.163  1.1848 -0.0783  1.6922
  153SAPE   H7S17000   6.713   1.596  10.023  0.8297 -1.4969  1.0584
  153SAPE   C2817001   6.803   1.791  10.057 -0.6044  0.7295  0.3817
  153SAPE   H8R17002   6.845   1.865  10.126 -3.0621  2.1076  0.5476
  153SAPE   C2917003   6.832   1.803   9.928  0.2644 -0.6596  0.4102
  153SAPE   H9R17004   6.884   1.897   9.906 -1.1716  0.4566  1.6414
  153SAPE  C21017005   6.790   1.715   9.812  0.2939 -0.0439  0.2661
  153SAPE  H10R17006   6.680   1.700   9.812  0.4595 -1.3583  0.1708
  153SAPE  H10S17007   6.836   1.615   9.828  1.3816  0.5292  0.8637
  153SAPE  C21117008   6.858   1.765   9.684  0.2145  1.0769  0.1753
  153SAPE  H11R17009   6.924   1.853   9.692  2.8471 -0.8199  0.6017
  153SAPE  C21217010   6.831   1.708   9.562 -0.8742 -0.3566 -0.1468
  153SAPE  H12R17011   6.877   1.752   9.473 -0.8933 -0.4022 -0.1784
  153SAPE  C21317012   6.744   1.587   9.532 -0.0162 -0.6000  0.0273
  153SAPE  H13R17013   6.638   1.616   9.550  0.2127  1.5316 -1.6902
  153SAPE  H13S17014   6.745   1.512   9.615 -1.3425 -1.0294 -0.3255
  153SAPE  C21417015   6.752   1.544   9.394 -0.3420 -0.1960  0.5167
  153SAPE  H14R17016   6.783   1.623   9.325 -0.0475  0.6052  1.5481
  153SAPE  C21517017   6.742   1.421   9.341 -0.1638  0.4899 -0.2817
  153SAPE  H15R17018   6.763   1.415   9.233  1.6375  0.7751  0.0169
  153SAPE  C21617019   6.707   1.297   9.417  0.4992 -0.1827 -0.2905
  153SAPE  H16R17020   6.684   1.317   9.524  1.6861  0.1849 -0.0941
  153SAPE  H16S17021   6.794   1.230   9.435 -1.0757 -1.6462  2.6530
  153SAPE  C21717022   6.584   1.222   9.368  0.2185 -0.1536  0.8698
  153SAPE  H17R17023   6.494   1.287   9.359 -0.6016 -1.3324  0.3128
  153SAPE  H17S17024   6.580   1.148   9.451 -0.9448  1.9922  2.8616
  153SAPE  C21817025   6.599   1.145   9.226  0.3132 -1.2099 -0.4065
  153SAPE  H18R17026   6.538   1.053   9.234 -1.4724  0.0554  2.6342
  153SAPE  H18S17027   6.706   1.115   9.224  0.4609 -0.7967  0.5579
  153SAPE  C21917028   6.565   1.224   9.099  0.5514  0.1185 -0.4714
  153SAPE  H19R17029   6.629   1.314   9.093 -1.9912  2.1680  0.9970
  153SAPE  H19S17030   6.464   1.270   9.106 -0.2865 -1.7454  0.4224
  153SAPE  C22017031   6.557   1.140   8.966 -0.3851 -0.2461 -0.1650
  153SAPE  H20R17032   6.552   1.213   8.882 -1.7997  0.7743  0.7462
  153SAPE  H20S17033   6.472   1.069   8.964 -1.6991  1.2655 -1.4446
  153SAPE  H20T17034   6.652   1.085   8.948 -1.8029 -2.9288  0.1154
  153SAPE   C3317035   6.489   0.953  10.102 -0.3215 -0.4900 -0.0565
  153SAPE   H3X17036   6.574   0.975  10.170 -0.4915  0.9957 -0.3033
  153SAPE   H3Y17037   6.411   1.031  10.113 -0.9032 -1.1385  0.5372
  153SAPE   C3417038   6.532   0.943   9.962 -0.0264 -0.6367  1.0063
  153SAPE   H4X17039   6.621   0.877   9.952 -0.4135 -0.9072 -1.0692
  153SAPE   H4Y17040   6.571   1.041   9.927  0.4165 -0.6263  1.5235
  153SAPE   C3517041   6.425   0.894   9.863  0.4953 -0.1101 -0.5891
  153SAPE   H5X17042   6.345   0.972   9.866 -0.4175 -1.0387 -0.2362
  153SAPE   H5Y17043   6.373   0.804   9.902 -0.5628  1.1485  1.0559
  153SAPE   C3617044   6.474   0.880   9.715 -0.0356  0.7586  0.8019
  153SAPE   H6X17045   6.574   0.832   9.714 -0.5132 -0.2418  0.3092
  153SAPE   H6Y17046   6.481   0.981   9.669 -0.0166 -0.1576 -1.3349
  153SAPE   C3717047   6.380   0.792   9.630 -0.2852  0.2208  0.1204
  153SAPE   H7X17048   6.282   0.843   9.637 -0.8280 -0.9233  1.3124
  153SAPE   H7Y17049   6.367   0.695   9.683  1.7058 -0.6929 -0.9504
  153SAPE   C3817050   6.423   0.783   9.479 -0.5147  0.1822  0.0048
  153SAPE   H8X17051   6.522   0.734   9.472  0.0508  1.3632 -0.6779
  153SAPE   H8Y17052   6.425   0.890   9.448 -2.2905  0.1600 -0.3275
  153SAPE   C3917053   6.312   0.707   9.405 -1.0473  0.2038 -0.7155
  153SAPE   H9X17054   6.217   0.751   9.440 -0.2980  3.2909 -2.2646
  153SAPE   H9Y17055   6.335   0.604   9.440 -1.0304  0.7486  0.9396
  153SAPE  C31017056   6.337   0.721   9.257  0.0837 -0.1313 -0.2683
  153SAPE  H10X17057   6.447   0.721   9.243  0.3957 -0.4713  1.7778
  153SAPE  H10Y17058   6.299   0.821   9.226  0.1122  0.3751  1.2088
  153SAPE  C31117059   6.262   0.608   9.188  0.3259 -0.2098  0.0013
  153SAPE  H11X17060   6.156   0.611   9.222  0.7372  3.1959  1.3733
  153SAPE  H11Y17061   6.312   0.515   9.224  3.8478  1.7471  0.5067
  153SAPE  C31217062   6.272   0.609   9.035  0.0290  0.1478  0.0456
  153SAPE  H12X17063   6.381   0.591   9.020 -0.3183 -1.7019 -0.4897
  153SAPE  H12Y17064   6.245   0.708   8.993  0.6082  0.3493  0.1400
  153SAPE  C31317065   6.196   0.503   8.955 -0.5068  0.1840  0.1603
  153SAPE  H13X17066   6.088   0.523   8.971 -0.3743  0.1146  1.2099
  153SAPE  H13Y17067   6.216   0.405   9.005  0.3024  0.3731  0.2123
  153SAPE  C31417068   6.228   0.479   8.806  0.1086 -0.0360  0.6669
  153SAPE  H14X17069   6.332   0.443   8.803 -0.5050 -1.8588 -0.4949
  153SAPE  H14Y17070   6.228   0.576   8.751  0.9624  0.5989  1.7359
  153SAPE  C31517071   6.135   0.376   8.743 -0.3074  1.0909 -0.4733
  153SAPE  H15X17072   6.033   0.421   8.738 -2.0805 -2.5273 -0.1393
  153SAPE  H15Y17073   6.129   0.282   8.802 -0.0457  1.9573  0.9739
  153SAPE  C31617074   6.169   0.325   8.605  0.0155 -0.5138  0.4971
  153SAPE  H16X17075   6.273   0.286   8.600  1.1757  2.1833  1.4444
  153SAPE  H16Y17076   6.177   0.414   8.538  2.2862  0.1438  1.5175
  153SAPE  C31717077   6.065   0.229   8.547 -0.3200  0.2905 -0.8006
  153SAPE  H17X17078   5.968   0.281   8.566  0.5362  1.6853 -0.0724
  153SAPE  H17Y17079   6.069   0.136   8.608 -0.6064  0.4694 -0.5054
  153SAPE  C31817080   6.070   0.192   8.395 -0.7609 -0.0868 -0.2889
  153SAPE  H18X17081   6.005   0.110   8.358  0.0806  0.5207 -3.4151
  153SAPE  H18Y17082   6.172   0.150   8.377 -0.2624  1.1800 -0.5203
  153SAPE  H18Z17083   6.057   0.281   8.330  0.8541  0.5173  0.1606
  154SAPE     N17084   0.095   3.566  11.118 -0.5512  0.5217 -0.2815
  154SAPE   HN117085   0.015   3.501  11.134 -1.8348  2.5798  2.6378
  154SAPE   HN217086   0.171   3.506  11.080 -2.8510 -1.9392 -1.3471
  154SAPE   HN317087   0.123   3.603  11.212  1.0545  0.4744 -0.7121
  154SAPE   C1217088   0.062   3.675  11.017  0.4076 -0.2408  0.5131
  154SAPE  H12A17089   0.150   3.741  10.997 -0.7797  0.6683 -2.1358
  154SAPE  H12B17090  -0.015   3.736  11.067  0.8520  5.2147 -4.3891
  154SAPE   C1117091   0.003   3.622  10.888  0.0187 -0.3581  0.3208
  154SAPE  H11A17092   0.083   3.572  10.830  0.0907  0.1910 -0.0572
  154SAPE  H11B17093  -0.022   3.715  10.833  0.9234 -0.9071 -1.0612
  154SAPE     P17094  -0.212   3.498  10.790 -0.5491  0.1926 -0.2373
  154SAPE   O1317095  -0.270   3.366  10.812  0.3357  0.2338 -0.1764
  154SAPE   O1417096  -0.306   3.612  10.782  0.2561  0.1394 -0.3407
  154SAPE   O1217097  -0.110   3.535  10.911  0.2987 -0.5108  0.2109
  154SAPE   O1117098  -0.122   3.489  10.659 -0.1550 -0.2757 -0.2271
  154SAPE    C117099  -0.024   3.384  10.646  0.2594  0.0663  0.6526
  154SAPE    HA17100   0.042   3.385  10.735  0.8132  0.4955  0.2442
  154SAPE    HB17101  -0.071   3.284  10.635 -2.3639  1.0908  1.6644
  154SAPE    C217102   0.061   3.424  10.517  0.3277 -0.1072  0.3038
  154SAPE    HS17103   0.092   3.529  10.535  1.1083 -0.4554  1.0725
  154SAPE   O2117104  -0.028   3.411  10.405 -0.5109 -0.5439  0.1239
  154SAPE   C2117105  -0.027   3.504  10.316 -0.2819 -0.1762 -0.0242
  154SAPE   O2217106   0.033   3.613  10.329 -0.2590  0.2697  0.2179
  154SAPE   C2217107  -0.097   3.447  10.195  0.1424  0.3294  0.2064
  154SAPE   H2R17108  -0.068   3.340  10.188 -1.1601  0.0142 -0.8245
  154SAPE   H2S17109  -0.207   3.448  10.204  0.0105 -2.2390 -0.2254
  154SAPE    C317110   0.182   3.330  10.498  0.4291 -0.1433  0.0574
  154SAPE    HX17111   0.142   3.229  10.520 -0.6447  0.6774  2.0814
  154SAPE    HY17112   0.262   3.350  10.572 -1.5575 -0.5429  2.4565
  154SAPE   O3117113   0.230   3.336  10.361 -0.0159  0.3902  0.1056
  154SAPE   C3117114   0.317   3.428  10.334 -0.8833 -0.0136  0.1101
  154SAPE   O3217115   0.367   3.509  10.412  0.4747 -0.3751 -0.1730
  154SAPE   C3217116   0.330   3.425  10.182 -0.4533 -0.3176 -0.1991
  154SAPE   H2X17117   0.227   3.440  10.144 -0.2228  2.4242  0.0354
  154SAPE   H2Y17118   0.360   3.326  10.141 -0.7402  0.5979 -2.8698
  154SAPE   C2317119  -0.057   3.523  10.068  0.5314 -0.1877  0.3327
  154SAPE   H3R17120   0.033   3.587  10.076 -0.0808  0.5701  1.3904
  154SAPE   H3S17121  -0.131   3.600  10.037  0.9695  0.8759  1.8306
  154SAPE   C2417122  -0.038   3.425   9.945 -0.1901 -0.2446  0.5299
  154SAPE   H4R17123  -0.132   3.368   9.929 -0.1066 -0.2551  0.0785
  154SAPE   H4S17124   0.047   3.356   9.961 -2.3702 -4.0183 -2.5635
  154SAPE   C2517125  -0.001   3.517   9.828 -0.1922  0.8095  0.1848
  154SAPE   H5R17126   0.013   3.620   9.865 -3.0162  2.2206 -2.2321
  154SAPE   C2617127   0.018   3.490   9.698 -0.9348 -0.3536 -0.5077
  154SAPE   H6R17128   0.031   3.577   9.631 -0.3694  2.1075  2.5992
  154SAPE   C2717129   0.003   3.355   9.642  0.4478 -0.3943  0.1250
  154SAPE   H7R17130  -0.078   3.294   9.686 -0.4862 -0.3997 -1.5246
  154SAPE   H7S17131   0.096   3.296   9.658  1.7276  1.7534  1.0216
  154SAPE   C2817132  -0.036   3.370   9.495  0.1970  0.0329  0.1459
  154SAPE   H8R17133  -0.107   3.452   9.475  0.0721 -0.3473 -1.0009
  154SAPE   C2917134   0.014   3.312   9.384 -0.1799 -0.4462  0.2658
  154SAPE   H9R17135  -0.047   3.334   9.295 -0.7381  1.9222  1.1558
  154SAPE  C21017136   0.121   3.205   9.398 -0.1652  0.5247  0.7689
  154SAPE  H10R17137   0.080   3.127   9.465 -0.7290  2.2067  2.4801
  154SAPE  H10S17138   0.212   3.248   9.444 -1.1119  1.7281  1.5657
  154SAPE  C21117139   0.149   3.143   9.264 -0.4511 -0.1654 -0.1591
  154SAPE  H11R17140   0.100   3.046   9.248  0.5190 -0.7024  0.0335
  154SAPE  C21217141   0.222   3.198   9.163  0.2313  0.2688 -0.1407
  154SAPE  H12R17142   0.232   3.140   9.070  1.3824 -1.5808  1.0639
  154SAPE  C21317143   0.278   3.338   9.158 -0.6238 -0.7692 -0.1010
  154SAPE  H13R17144   0.381   3.332   9.200 -0.0565 -1.0185 -1.4693
  154SAPE  H13S17145   0.235   3.408   9.232  1.7069  0.2878  0.3233
  154SAPE  C21417146   0.283   3.398   9.020 -0.2750  0.0436  0.6532
  154SAPE  H14R17147   0.370   3.353   8.969 -0.8917 -1.0811  0.5492
  154SAPE  C21517148   0.189   3.469   8.959  0.6357 -0.5381 -0.8691
  154SAPE  H15R17149   0.195   3.500   8.854 -0.8841 -0.2763 -0.9005
  154SAPE  C21617150   0.058   3.517   9.024 -0.9069 -0.1438  0.0031
  154SAPE  H16R17151   0.058   3.483   9.130 -1.7001 -0.5261 -0.1083
  154SAPE  H16S17152  -0.023   3.471   8.964  1.1560 -1.0689 -2.2038
  154SAPE  C21717153   0.033   3.666   9.016 -0.3376  0.0246 -0.6285
  154SAPE  H17R17154   0.122   3.717   9.058  0.0397 -1.1891  0.0889
  154SAPE  H17S17155  -0.053   3.686   9.083 -0.0070 -1.2367  0.2113
  154SAPE  C21817156  -0.001   3.717   8.874 -0.2840 -0.0979 -0.0071
  154SAPE  H18R17157  -0.090   3.658   8.845 -0.5201 -0.6570  1.7625
  154SAPE  H18S17158   0.081   3.694   8.802 -1.2912 -2.7058 -0.4153
  154SAPE  C21917159  -0.050   3.871   8.881  0.5906 -0.1690  0.5039
  154SAPE  H19R17160  -0.099   3.890   8.979 -0.4700 -0.6005  0.0717
  154SAPE  H19S17161  -0.129   3.868   8.803  2.1177 -2.0085 -1.0739
  154SAPE  C22017162   0.041   3.981   8.835  0.0958  0.0633  0.1963
  154SAPE  H20R17163   0.113   3.993   8.918 -0.6128  2.8709  0.4979
  154SAPE  H20S17164  -0.020   4.072   8.821 -1.5812 -1.0487 -0.0505
  154SAPE  H20T17165   0.093   3.965   8.738 -2.1577  0.9949 -1.2441
  154SAPE   C3317166   0.422   3.535  10.125  0.9045 -0.0367  0.2660
  154SAPE   H3X17167   0.523   3.508  10.162  0.8681  1.0712  1.2692
  154SAPE   H3Y17168   0.397   3.634  10.169  0.3791 -0.2616  0.4838
  154SAPE   C3417169   0.413   3.548   9.977 -0.6034 -0.2194  0.3195
  154SAPE   H4X17170   0.497   3.611   9.941 -1.0121 -0.2462 -0.7102
  154SAPE   H4Y17171   0.321   3.605   9.956 -0.2979  1.1942  2.4805
  154SAPE   C3517172   0.421   3.421   9.894  0.2548 -0.5214  0.6268
  154SAPE   H5X17173   0.339   3.349   9.913  1.1931 -2.1725 -1.2179
  154SAPE   H5Y17174   0.515   3.368   9.922 -0.0971 -2.0462 -0.8849
  154SAPE   C3617175   0.422   3.440   9.739 -0.3749  0.7924 -0.2193
  154SAPE   H6X17176   0.507   3.511   9.728  0.5216 -0.1627  0.4088
  154SAPE   H6Y17177   0.327   3.479   9.696 -2.0559 -0.2415  2.3467
  154SAPE   C3717178   0.471   3.316   9.659 -0.5503 -0.1421 -0.4055
  154SAPE   H7X17179   0.407   3.229   9.684  0.9197 -1.1558 -0.0481
  154SAPE   H7Y17180   0.577   3.290   9.681 -0.6327 -0.5816 -0.5349
  154SAPE   C3817181   0.473   3.339   9.508 -0.7988 -0.1097  0.6815
  154SAPE   H8X17182   0.386   3.388   9.460 -0.5146  1.6986  1.9026
  154SAPE   H8Y17183   0.489   3.235   9.473  0.9269  0.8453 -1.5265
  154SAPE   C3917184   0.586   3.424   9.463 -0.3701 -0.9670 -0.6977
  154SAPE   H9X17185   0.682   3.374   9.484  0.9995  0.2744 -3.5179
  154SAPE   H9Y17186   0.594   3.520   9.518  1.2412 -1.6079  0.2265
  154SAPE  C31017187   0.601   3.442   9.308 -0.1256 -0.2153  0.3019
  154SAPE  H10X17188   0.583   3.339   9.271  1.2601 -0.6853  0.8641
  154SAPE  H10Y17189   0.709   3.463   9.290 -0.0507  0.4257  1.4439
  154SAPE  C31117190   0.532   3.570   9.258 -0.1755 -0.6071  0.1260
  154SAPE  H11X17191   0.577   3.656   9.311  0.5168 -0.7483 -0.2234
  154SAPE  H11Y17192   0.422   3.554   9.267 -0.3772  1.0048  0.7689
  154SAPE  C31217193   0.576   3.602   9.111 -0.1424 -0.0210 -0.8761
  154SAPE  H12X17194   0.545   3.508   9.060 -0.9764 -0.9299  1.1921
  154SAPE  H12Y17195   0.685   3.623   9.114 -0.2645  0.5020  0.2653
  154SAPE  C31317196   0.502   3.711   9.042 -0.2970 -0.1131  0.5634
  154SAPE  H13X17197   0.534   3.805   9.092 -0.3708  0.8371 -1.0855
  154SAPE  H13Y17198   0.392   3.700   9.054 -0.3314 -0.1796  0.1937
  154SAPE  C31417199   0.534   3.718   8.893 -0.5914 -0.2745 -0.5895
  154SAPE  H14X17200   0.490   3.626   8.850 -1.6586 -0.1565  0.2049
  154SAPE  H14Y17201   0.645   3.722   8.890 -0.6508  2.1114 -1.8189
  154SAPE  C31517202   0.480   3.843   8.833 -0.5873  0.5709  0.1677
  154SAPE  H15X17203   0.537   3.925   8.882  0.2451 -0.3425  0.7697
  154SAPE  H15Y17204   0.370   3.845   8.844 -0.4151  1.7381  1.9468
  154SAPE  C31617205   0.525   3.857   8.682 -0.0245  0.5929 -0.6400
  154SAPE  H16X17206   0.632   3.827   8.679  0.0794  0.5054  1.8068
  154SAPE  H16Y17207   0.505   3.962   8.652  0.1375  0.8464  0.1204
  154SAPE  C31717208   0.451   3.761   8.583  0.2088  0.5492  0.0341
  154SAPE  H17X17209   0.457   3.655   8.614  0.7290 -0.1412 -2.1956
  154SAPE  H17Y17210   0.514   3.760   8.491 -0.5957 -1.4897 -0.5381
  154SAPE  C31817211   0.305   3.798   8.551  0.2925 -0.5665 -0.2869
  154SAPE  H18X17212   0.260   3.848   8.639  1.6650 -0.1666  0.2138
  154SAPE  H18Y17213   0.247   3.707   8.525  0.1996 -0.0436 -2.0940
  154SAPE  H18Z17214   0.299   3.864   8.462  0.0961  1.2468  1.0182
  155SAPE     N17215   1.984   4.087  10.667  0.2567  0.5341  0.2781
  155SAPE   HN117216   1.950   4.159  10.733 -2.7668  1.2946 -1.8777
  155SAPE   HN217217   1.959   4.116  10.570  1.0686  1.2100  0.2584
  155SAPE   HN317218   1.944   3.991  10.669  2.7566 -0.5952 -0.4351
  155SAPE   C1217219   2.132   4.071  10.669 -0.2228  0.4612  0.4553
  155SAPE  H12A17220   2.184   4.163  10.637  0.8126  0.7189  2.6642
  155SAPE  H12B17221   2.154   3.989  10.598  0.4047  0.5809  0.5032
  155SAPE   C1117222   2.175   4.041  10.813 -0.3726 -0.8203 -0.0351
  155SAPE  H11A17223   2.155   4.123  10.886  5.4030  0.2891  0.7286
  155SAPE  H11B17224   2.285   4.046  10.817 -0.4218 -0.1241  0.8273
  155SAPE     P17225   2.195   3.818  10.963 -0.0498 -0.2578  0.0337
  155SAPE   O1317226   2.231   3.909  11.074  0.3182 -0.1007  0.6020
  155SAPE   O1417227   2.108   3.707  11.003  0.3735  0.2698  0.3666
  155SAPE   O1217228   2.124   3.909  10.852 -0.1527  0.3267 -0.4478
  155SAPE   O1117229   2.330   3.777  10.898 -0.0602  0.1448  0.3871
  155SAPE    C117230   2.333   3.678  10.790 -0.0325 -0.3297  0.2076
  155SAPE    HA17231   2.425   3.616  10.800  0.3976  0.1460 -0.6697
  155SAPE    HB17232   2.250   3.604  10.788  0.9697 -1.4680 -0.4840
  155SAPE    C217233   2.339   3.744  10.652  0.7046 -0.6353 -0.0199
  155SAPE    HS17234   2.256   3.817  10.647  2.3687  1.2567 -2.6720
  155SAPE   O2117235   2.318   3.646  10.551  0.3606  0.7279  0.3410
  155SAPE   C2117236   2.196   3.612  10.513 -0.0138 -0.7689  0.1853
  155SAPE   O2217237   2.095   3.657  10.562 -0.4008 -0.0742 -0.4178
  155SAPE   C2217238   2.204   3.525  10.391  0.1992  0.2643 -0.4198
  155SAPE   H2R17239   2.301   3.474  10.375 -0.2866 -1.4423  1.5822
  155SAPE   H2S17240   2.128   3.444  10.398  0.5378 -0.1342 -1.2360
  155SAPE    C317241   2.470   3.823  10.634 -0.2441 -0.2211  0.4205
  155SAPE    HX17242   2.540   3.756  10.688 -0.7187 -0.4757  0.7280
  155SAPE    HY17243   2.461   3.921  10.687  1.0148 -1.6201  3.4359
  155SAPE   O3117244   2.517   3.835  10.500  0.5140  0.1105  0.2256
  155SAPE   C3117245   2.440   3.914  10.429 -0.0009 -0.3833 -0.0366
  155SAPE   O3217246   2.356   3.989  10.472 -0.0813 -0.3059  0.0619
  155SAPE   C3217247   2.495   3.921  10.282 -0.4380  0.1732 -0.4059
  155SAPE   H2X17248   2.459   3.824  10.243 -4.1293 -0.1824  3.1789
  155SAPE   H2Y17249   2.605   3.930  10.288 -0.0948 -2.0434 -2.2627
  155SAPE   C2317250   2.158   3.598  10.265  0.3357 -0.3369  0.2170
  155SAPE   H3R17251   2.216   3.691  10.245  1.5802 -0.9666  0.7769
  155SAPE   H3S17252   2.052   3.625  10.282  0.3516  1.2671 -1.8187
  155SAPE   C2417253   2.182   3.511  10.144  0.2573 -0.4022  0.1679
  155SAPE   H4R17254   2.107   3.431  10.157 -1.2881  0.7748 -1.0986
  155SAPE   H4S17255   2.284   3.466  10.141  0.2598 -0.3542 -0.7392
  155SAPE   C2517256   2.146   3.566  10.007 -0.1672 -0.7869 -0.4420
  155SAPE   H5R17257   2.069   3.643  10.022  1.7017  0.9179  1.0049
  155SAPE   C2617258   2.182   3.527   9.883 -0.5513 -0.2417 -0.4019
  155SAPE   H6R17259   2.115   3.563   9.803  0.2535  2.2110 -0.0515
  155SAPE   C2717260   2.271   3.412   9.864 -0.2363 -0.0488  0.0565
  155SAPE   H7R17261   2.203   3.325   9.848 -0.4601  0.1841 -0.2820
  155SAPE   H7S17262   2.335   3.388   9.951 -0.5423  0.4062  0.4083
  155SAPE   C2817263   2.352   3.439   9.742 -0.6760  0.2435 -0.6775
  155SAPE   H8R17264   2.432   3.512   9.760  1.1706 -1.4098 -1.7109
  155SAPE   C2917265   2.342   3.385   9.617  0.4564  0.2712  0.3727
  155SAPE   H9R17266   2.417   3.411   9.541 -1.0905 -1.0952 -1.7241
  155SAPE  C21017267   2.241   3.280   9.572  0.2349  0.0027  0.4438
  155SAPE  H10R17268   2.198   3.297   9.471 -0.3501 -1.5177  0.4102
  155SAPE  H10S17269   2.155   3.269   9.641  2.6068 -1.6212  3.4102
  155SAPE  C21117270   2.309   3.142   9.583  0.4132 -0.0768  0.9403
  155SAPE  H11R17271   2.297   3.104   9.686 -1.7550 -1.3283  0.3094
  155SAPE  C21217272   2.379   3.076   9.495 -0.3277  0.0762 -0.7988
  155SAPE  H12R17273   2.427   2.980   9.522 -0.8226 -0.2254 -0.9763
  155SAPE  C21317274   2.409   3.124   9.353  0.1915  0.6036 -0.3550
  155SAPE  H13R17275   2.513   3.094   9.329  0.3248  0.4455  0.4099
  155SAPE  H13S17276   2.421   3.235   9.357  2.3493  0.4027  0.2907
  155SAPE  C21417277   2.304   3.091   9.248  0.3444  0.0723  0.0369
  155SAPE  H14R17278   2.200   3.098   9.285 -0.9877  0.6201 -3.3683
  155SAPE  C21517279   2.313   3.077   9.116  0.2595 -0.3001 -0.1608
  155SAPE  H15R17280   2.235   3.040   9.048  0.1577  0.5666 -0.5210
  155SAPE  C21617281   2.439   3.089   9.039 -0.1115 -0.5088  0.5611
  155SAPE  H16R17282   2.528   3.089   9.105  1.1319  0.9159 -1.0332
  155SAPE  H16S17283   2.445   3.189   8.990  2.3732 -0.6900  0.3725
  155SAPE  C21717284   2.465   2.982   8.926  0.2765 -0.1808 -0.8779
  155SAPE  H17R17285   2.376   2.996   8.861  0.3510  0.3108 -0.8730
  155SAPE  H17S17286   2.465   2.878   8.965 -4.1357 -0.2409 -0.4679
  155SAPE  C21817287   2.590   3.011   8.847  0.3968  0.0201 -0.5911
  155SAPE  H18R17288   2.679   2.985   8.908  0.8677 -0.3271 -1.4145
  155SAPE  H18S17289   2.586   3.120   8.830 -1.8971 -0.0175 -0.5677
  155SAPE  C21917290   2.591   2.950   8.703 -0.4745  0.6467  0.0345
  155SAPE  H19R17291   2.491   2.960   8.656  0.7152 -0.7584 -3.0665
  155SAPE  H19S17292   2.612   2.841   8.714 -3.1571  0.1180  0.4880
  155SAPE  C22017293   2.691   3.015   8.605 -0.2217  0.3593  0.1737
  155SAPE  H20R17294   2.698   3.125   8.617  1.0658  0.1378  1.5980
  155SAPE  H20S17295   2.685   2.989   8.497 -1.7607  0.9343  0.0983
  155SAPE  H20T17296   2.791   2.984   8.642 -0.0263  0.6343 -0.1216
  155SAPE   C3317297   2.450   4.037  10.201  0.1834  0.3283 -0.5501
  155SAPE   H3X17298   2.500   4.129  10.240 -0.5179  1.2545 -1.7498
  155SAPE   H3Y17299   2.340   4.048  10.183  0.2449 -0.5679 -1.5992
  155SAPE   C3417300   2.511   4.028  10.058  0.6321  0.4661 -0.4783
  155SAPE   H4X17301   2.621   4.037  10.068  0.6970 -0.1382 -0.6176
  155SAPE   H4Y17302   2.461   4.121  10.024 -2.2933 -1.1481 -0.9813
  155SAPE   C3517303   2.459   3.906   9.984 -0.3125 -0.0411  0.0691
  155SAPE   H5X17304   2.360   3.871  10.020 -0.0490 -1.9309 -0.9063
  155SAPE   H5Y17305   2.529   3.820   9.991  2.2527  1.8373 -0.9411
  155SAPE   C3617306   2.442   3.933   9.827  0.2578 -0.0442 -0.0548
  155SAPE   H6X17307   2.543   3.955   9.787 -0.5244  0.3603 -1.9470
  155SAPE   H6Y17308   2.372   4.019   9.812 -1.0120 -1.1683 -0.7794
  155SAPE   C3717309   2.391   3.811   9.748 -0.5822 -0.0327 -0.5766
  155SAPE   H7X17310   2.289   3.781   9.780 -0.7868  1.1042 -0.1173
  155SAPE   H7Y17311   2.470   3.733   9.752  1.0618  1.5960  0.1497
  155SAPE   C3817312   2.378   3.846   9.598 -0.3004  0.0265  0.4163
  155SAPE   H8X17313   2.483   3.861   9.565  0.5526 -1.5847  2.2049
  155SAPE   H8Y17314   2.306   3.929   9.582 -0.5823 -0.3656 -0.4048
  155SAPE   C3917315   2.313   3.732   9.518  0.6237  0.2545  0.5286
  155SAPE   H9X17316   2.204   3.723   9.537  0.5344 -2.4458 -0.7756
  155SAPE   H9Y17317   2.357   3.643   9.568 -0.8154 -0.3907  0.7039
  155SAPE  C31017318   2.353   3.735   9.373 -0.0830 -0.5859  0.3694
  155SAPE  H10X17319   2.463   3.718   9.366 -0.1467 -1.1608  0.6964
  155SAPE  H10Y17320   2.333   3.839   9.339  0.6996 -1.1112 -1.9135
  155SAPE  C31117321   2.282   3.624   9.287 -0.6514  0.2495  0.4190
  155SAPE  H11X17322   2.194   3.685   9.257 -1.1632  0.3587  2.0671
  155SAPE  H11Y17323   2.260   3.543   9.360  1.0271  1.5660  2.5063
  155SAPE  C31217324   2.356   3.587   9.166 -0.0521 -0.3499 -0.4426
  155SAPE  H12X17325   2.436   3.523   9.210 -0.1907  0.7599  1.5386
  155SAPE  H12Y17326   2.383   3.683   9.117 -0.9718  1.9534  3.1962
  155SAPE  C31317327   2.265   3.522   9.061  0.4160  0.7427  0.4789
  155SAPE  H13X17328   2.183   3.590   9.029  1.4699  0.2452 -3.9242
  155SAPE  H13Y17329   2.228   3.431   9.113  2.3936 -0.3275  0.1105
  155SAPE  C31417330   2.337   3.475   8.935  0.5165 -0.2883 -0.4092
  155SAPE  H14X17331   2.381   3.374   8.948 -1.8604 -1.3427  0.1003
  155SAPE  H14Y17332   2.420   3.545   8.915 -0.1258  0.1717 -1.5332
  155SAPE  C31517333   2.237   3.464   8.823  0.2140  0.0403 -0.2509
  155SAPE  H15X17334   2.191   3.565   8.822 -0.7447 -0.3935 -1.3198
  155SAPE  H15Y17335   2.165   3.385   8.855  0.0518  1.0146  1.9360
  155SAPE  C31617336   2.314   3.422   8.695  0.3168 -0.7144  0.2652
  155SAPE  H16X17337   2.408   3.366   8.716  2.0141  0.9500 -2.1902
  155SAPE  H16Y17338   2.347   3.519   8.651  1.2302 -1.4114 -0.6396
  155SAPE  C31717339   2.230   3.351   8.593 -0.1824  0.1012  0.6279
  155SAPE  H17X17340   2.124   3.383   8.588  0.7461  3.5791  0.5336
  155SAPE  H17Y17341   2.220   3.246   8.628 -1.9194 -0.2030 -0.6436
  155SAPE  C31817342   2.283   3.361   8.452 -0.2195 -0.4758 -0.1121
  155SAPE  H18X17343   2.393   3.345   8.446  0.1496  1.5608  0.8038
  155SAPE  H18Y17344   2.257   3.457   8.404  1.3057 -0.0136 -0.0788
  155SAPE  H18Z17345   2.233   3.290   8.382 -0.1285  0.8937 -1.6353
  156SAPE     N17346   5.856   1.929  11.036 -0.2340 -0.2890  0.8296
  156SAPE   HN117347   5.952   1.969  11.037 -0.4464  0.2187  1.0147
  156SAPE   HN217348   5.842   1.888  11.130 -2.6981 -1.1729  0.1717
  156SAPE   HN317349   5.843   1.855  10.964 -1.5005  1.2687 -0.6468
  156SAPE   C1217350   5.747   2.032  11.000 -0.0308 -0.3059  0.0523
  156SAPE  H12A17351   5.793   2.133  11.007 -1.1575  0.2928 -0.8063
  156SAPE  H12B17352   5.670   2.023  11.080 -0.3156  0.8386 -0.0727
  156SAPE   C1117353   5.679   2.008  10.867 -0.1954  0.5824 -0.0681
  156SAPE  H11A17354   5.590   2.075  10.855 -1.7206 -1.4467 -0.6859
  156SAPE  H11B17355   5.633   1.907  10.872 -3.2757  1.8334 -0.2788
  156SAPE     P17356   5.794   2.146  10.679  0.5866 -0.4787  0.0395
  156SAPE   O1317357   5.777   2.255  10.778  0.1758  0.1118 -0.2522
  156SAPE   O1417358   5.926   2.137  10.614  0.2403  0.0259 -0.7783
  156SAPE   O1217359   5.768   2.009  10.756  0.1992 -1.2369 -0.1346
  156SAPE   O1117360   5.683   2.135  10.564  0.0137  0.5998  0.3201
  156SAPE    C117361   5.669   2.007  10.502  1.1015  0.0119 -0.8579
  156SAPE    HA17362   5.750   1.935  10.527  0.0138  0.0128  3.3634
  156SAPE    HB17363   5.574   1.954  10.527  1.6432 -1.7587 -2.3058
  156SAPE    C217364   5.660   2.022  10.345 -0.3525  0.6731  0.5526
  156SAPE    HS17365   5.652   1.923  10.295  2.0172  0.6149  0.1507
  156SAPE   O2117366   5.785   2.075  10.292  0.5516  0.3344  0.1381
  156SAPE   C2117367   5.900   2.010  10.326  0.9419 -0.2895  0.7792
  156SAPE   O2217368   5.899   1.901  10.382  0.2861 -0.4006  0.3251
  156SAPE   C2217369   6.021   2.080  10.276 -0.5364 -0.7281  0.3359
  156SAPE   H2R17370   6.008   2.178  10.225  0.2900 -0.2782  0.9867
  156SAPE   H2S17371   6.077   2.099  10.369 -0.7530 -2.1920  0.7904
  156SAPE    C317372   5.542   2.108  10.288  0.6205 -0.4190  1.0347
  156SAPE    HX17373   5.570   2.213  10.311  0.5688 -0.2205  0.2244
  156SAPE    HY17374   5.448   2.089  10.344  0.3359  0.6534  0.9430
  156SAPE   O3117375   5.517   2.078  10.150 -0.0487 -0.2171 -0.2555
  156SAPE   C3117376   5.586   2.142  10.063 -0.1107  0.4428 -0.0587
  156SAPE   O3217377   5.666   2.232  10.092 -0.3828  0.1362  0.4362
  156SAPE   C3217378   5.553   2.087   9.923  0.0790  0.4235 -0.1960
  156SAPE   H2X17379   5.445   2.111   9.911  0.0051  0.7315  0.9376
  156SAPE   H2Y17380   5.564   1.977   9.927 -2.6581  0.1267  1.5209
  156SAPE   C2317381   6.101   1.984  10.187  0.2590  0.4222  0.4499
  156SAPE   H3R17382   6.114   1.888  10.241  1.9849 -0.6684 -1.7211
  156SAPE   H3S17383   6.205   2.019  10.169  1.0136 -2.2330 -0.7650
  156SAPE   C2417384   6.020   1.959  10.054  0.3356 -0.3570 -0.6060
  156SAPE   H4R17385   5.918   1.919  10.071 -1.2614  2.8332 -1.6539
  156SAPE   H4S17386   6.070   1.874  10.004  0.2173  0.2918 -1.8924
  156SAPE   C2517387   6.019   2.065   9.948 -0.7704 -0.0783  0.5401
  156SAPE   H5R17388   5.992   2.166   9.980 -0.7574  0.3751 -0.8125
  156SAPE   C2617389   6.018   2.052   9.813 -0.4756  0.3394  0.1922
  156SAPE   H6R17390   6.014   2.140   9.748 -2.4475  0.0852 -0.0936
  156SAPE   C2717391   6.044   1.922   9.747 -0.0360  0.4263  0.2793
  156SAPE   H7R17392   5.978   1.843   9.787  1.4946 -1.4054 -0.6154
  156SAPE   H7S17393   6.149   1.890   9.764 -0.2869 -0.4544  0.1886
  156SAPE   C2817394   6.037   1.925   9.594 -1.2768  0.0291 -0.2492
  156SAPE   H8R17395   6.116   1.988   9.549  0.6424  0.1126  2.9541
  156SAPE   C2917396   5.960   1.852   9.512 -0.3426 -0.5935 -0.4038
  156SAPE   H9R17397   5.966   1.873   9.404  2.3908  0.1666 -0.1994
  156SAPE  C21017398   5.862   1.751   9.555  1.0887  0.5585 -0.4904
  156SAPE  H10R17399   5.770   1.787   9.504  0.6839  0.9359  0.4784
  156SAPE  H10S17400   5.845   1.743   9.665  0.4561 -3.8676 -0.6974
  156SAPE  C21117401   5.909   1.618   9.502 -0.2534 -0.7599  0.2432
  156SAPE  H11R17402   6.001   1.581   9.550 -0.8748 -0.5676  1.6222
  156SAPE  C21217403   5.871   1.563   9.384 -0.0777  0.2643 -0.1589
  156SAPE  H12R17404   5.922   1.469   9.357  1.0560 -0.0016  2.5607
  156SAPE  C21317405   5.772   1.614   9.284  0.1094 -0.7426  0.4427
  156SAPE  H13R17406   5.766   1.725   9.288 -1.6790 -0.7497 -0.8406
  156SAPE  H13S17407   5.672   1.579   9.317 -0.5880  0.3138 -0.4899
  156SAPE  C21417408   5.792   1.578   9.133 -0.1728 -0.3734 -0.8308
  156SAPE  H14R17409   5.785   1.471   9.107  0.5334 -0.9193  1.0385
  156SAPE  C21517410   5.828   1.665   9.040 -0.9483 -0.4391  0.3873
  156SAPE  H15R17411   5.817   1.647   8.932 -2.0503  1.8998  0.0292
  156SAPE  C21617412   5.857   1.816   9.052  0.5113 -0.0214 -0.3971
  156SAPE  H16R17413   5.832   1.851   9.155  2.8137  2.9391 -0.6823
  156SAPE  H16S17414   5.782   1.871   8.991 -1.6059 -0.8961  1.2880
  156SAPE  C21717415   6.003   1.834   9.008 -0.2183 -0.0034  0.1009
  156SAPE  H17R17416   6.073   1.762   9.054 -0.1813 -1.2938 -1.8931
  156SAPE  H17S17417   6.032   1.933   9.049  0.9165 -0.2680 -0.0421
  156SAPE  C21817418   6.013   1.832   8.849 -0.8830 -0.1249  0.2923
  156SAPE  H18R17419   5.920   1.872   8.803  0.8037  1.4168 -2.0437
  156SAPE  H18S17420   6.035   1.727   8.820  2.0329  0.4560  0.0248
  156SAPE  C21917421   6.132   1.915   8.801 -0.1397 -0.3894  0.1976
  156SAPE  H19R17422   6.226   1.892   8.856 -0.0201  0.3869  0.3214
  156SAPE  H19S17423   6.108   2.021   8.820  0.7907  0.6412 -3.6119
  156SAPE  C22017424   6.166   1.887   8.653  0.0516  0.1806 -0.3366
  156SAPE  H20R17425   6.066   1.886   8.604  0.3920 -1.7202 -1.0753
  156SAPE  H20S17426   6.203   1.784   8.637  1.2803  0.7171 -1.0787
  156SAPE  H20T17427   6.233   1.949   8.591  1.0539 -1.4167 -0.9036
  156SAPE   C3317428   5.620   2.150   9.793 -0.2970  0.6518 -0.4170
  156SAPE   H3X17429   5.727   2.123   9.804 -0.1972  0.8779 -0.7997
  156SAPE   H3Y17430   5.614   2.261   9.786  0.1095  0.5961 -4.5028
  156SAPE   C3417431   5.579   2.080   9.660  0.0436 -0.5393 -0.3437
  156SAPE   H4X17432   5.473   2.102   9.636  0.6443  1.3330 -1.5391
  156SAPE   H4Y17433   5.578   1.971   9.681  0.0895 -0.2614  1.1665
  156SAPE   C3517434   5.677   2.106   9.537 -0.1293 -0.0870 -0.9490
  156SAPE   H5X17435   5.782   2.079   9.562  0.3157  2.0100 -0.4011
  156SAPE   H5Y17436   5.676   2.215   9.519 -0.1067  0.1275  0.2318
  156SAPE   C3617437   5.629   2.040   9.408 -0.4788 -0.2540  0.2763
  156SAPE   H6X17438   5.520   2.059   9.396 -0.8640 -1.7544  1.1435
  156SAPE   H6Y17439   5.628   1.929   9.412  1.3328 -0.3121 -0.1378
  156SAPE   C3717440   5.705   2.079   9.281 -0.6113 -0.0561 -0.4244
  156SAPE   H7X17441   5.673   2.010   9.200 -2.1497  0.2682 -0.1136
  156SAPE   H7Y17442   5.810   2.055   9.308 -1.1997 -3.2943 -0.6183
  156SAPE   C3817443   5.690   2.223   9.239  0.2424 -0.2261  0.4934
  156SAPE   H8X17444   5.748   2.285   9.311  0.3296 -2.2321  2.2918
  156SAPE   H8Y17445   5.581   2.244   9.238  0.0388 -1.2145  0.4974
  156SAPE   C3917446   5.729   2.249   9.097  0.9102  0.1693  0.1696
  156SAPE   H9X17447   5.658   2.192   9.033 -1.5897  2.7574  0.4456
  156SAPE   H9Y17448   5.832   2.208   9.087  0.4673 -0.7077 -0.9676
  156SAPE  C31017449   5.733   2.394   9.046 -0.7646 -0.0208 -0.6875
  156SAPE  H10X17450   5.767   2.463   9.126  1.7238 -1.9618  0.0363
  156SAPE  H10Y17451   5.638   2.420   8.994 -0.4316  1.2291 -0.7179
  156SAPE  C31117452   5.839   2.416   8.935 -0.5159  0.1940 -0.1867
  156SAPE  H11X17453   5.942   2.394   8.971  0.0721  0.2714 -1.7377
  156SAPE  H11Y17454   5.832   2.524   8.911 -1.2098  0.3318  0.5913
  156SAPE  C31217455   5.821   2.338   8.810  0.7792 -0.0351  0.3719
  156SAPE  H12X17456   5.716   2.358   8.781  0.8735 -0.7695 -0.5175
  156SAPE  H12Y17457   5.840   2.230   8.830  1.0343  0.0754  0.7478
  156SAPE  C31317458   5.923   2.375   8.699  0.1235  0.0036  0.2561
  156SAPE  H13X17459   6.019   2.378   8.754 -0.3067  1.1284  0.9827
  156SAPE  H13Y17460   5.908   2.482   8.674  1.6723  0.6288  1.8774
  156SAPE  C31417461   5.933   2.275   8.592 -0.9396 -0.2314  0.6625
  156SAPE  H14X17462   5.833   2.229   8.604 -2.3976  1.7305 -2.7294
  156SAPE  H14Y17463   6.009   2.196   8.616 -0.2900  0.1231 -0.1807
  156SAPE  C31517464   5.943   2.334   8.445  0.4772 -0.0397  0.3291
  156SAPE  H15X17465   6.005   2.269   8.380 -0.7648 -0.2676 -0.6590
  156SAPE  H15Y17466   6.002   2.428   8.438  3.9110 -1.9307  1.1092
  156SAPE  C31617467   5.801   2.343   8.388  0.0487 -0.6818 -0.0629
  156SAPE  H16X17468   5.722   2.371   8.462 -0.8696  0.0477 -1.2887
  156SAPE  H16Y17469   5.767   2.241   8.356  0.9032 -0.9124 -0.2445
  156SAPE  C31717470   5.814   2.448   8.272  0.6902 -0.1087 -0.4467
  156SAPE  H17X17471   5.834   2.547   8.317 -0.6079  0.2080 -0.5198
  156SAPE  H17Y17472   5.718   2.462   8.219  0.4867  2.9201  0.5687
  156SAPE  C31817473   5.917   2.422   8.163 -0.2811  0.0537 -0.0139
  156SAPE  H18X17474   6.017   2.406   8.210 -0.4858 -0.3274  0.2918
  156SAPE  H18Y17475   5.914   2.517   8.105 -0.7193  0.5547  0.8185
  156SAPE  H18Z17476   5.897   2.340   8.091 -0.6641  0.7928 -0.7619
  157SAPE     N17477   5.032   2.797  11.273 -0.7651  0.0706 -0.2298
  157SAPE   HN117478   4.933   2.789  11.303 -1.1664  0.5545 -1.3701
  157SAPE   HN217479   5.052   2.709  11.222 -3.4960 -0.9956  0.3408
  157SAPE   HN317480   5.086   2.800  11.361 -2.3960  0.6344  0.8055
  157SAPE   C1217481   5.049   2.923  11.195 -0.7688 -0.0860  0.2677
  157SAPE  H12A17482   5.154   2.935  11.163 -1.2363  1.5231 -0.7974
  157SAPE  H12B17483   5.020   3.010  11.258  0.4023 -0.6105  1.5814
  157SAPE   C1117484   4.958   2.918  11.070 -0.6950 -0.2012 -0.1494
  157SAPE  H11A17485   4.860   2.871  11.089  0.3845 -1.9713  1.4435
  157SAPE  H11B17486   5.006   2.846  11.000 -1.5122  0.4705 -1.4376
  157SAPE     P17487   4.925   3.059  10.858  0.0019  0.1679 -0.3321
  157SAPE   O1317488   4.790   3.003  10.843 -0.1591 -0.5450 -0.4475
  157SAPE   O1417489   4.941   3.203  10.814  0.1594 -0.5649  0.3148
  157SAPE   O1217490   4.960   3.049  11.018 -0.6964 -0.2867 -0.1663
  157SAPE   O1117491   5.040   2.968  10.792  0.0116  0.1598  0.0004
  157SAPE    C117492   5.129   3.015  10.688  0.3046  0.4111  0.0675
  157SAPE    HA17493   5.181   3.110  10.711  0.2994  0.7949 -1.4474
  157SAPE    HB17494   5.209   2.938  10.678  1.6683  1.6538  1.0163
  157SAPE    C217495   5.053   3.036  10.554  0.0629  0.1710  0.3005
  157SAPE    HS17496   4.978   3.117  10.561 -0.1072  0.4134 -2.6987
  157SAPE   O2117497   4.992   2.901  10.523 -0.2039  0.4346  0.0422
  157SAPE   C2117498   4.878   2.911  10.447  0.0544  0.0281 -0.6979
  157SAPE   O2217499   4.827   3.009  10.397 -0.3095  0.1426 -0.4102
  157SAPE   C2217500   4.824   2.772  10.424 -0.3600  0.3138  0.1602
  157SAPE   H2R17501   4.904   2.705  10.386 -0.4955 -0.6792  1.5622
  157SAPE   H2S17502   4.792   2.742  10.526  0.3269 -1.6177 -0.1539
  157SAPE    C317503   5.158   3.084  10.442 -0.7740  0.1244  0.4734
  157SAPE    HX17504   5.235   3.005  10.429  0.6150  1.7522 -1.8814
  157SAPE    HY17505   5.217   3.176  10.463 -3.3257  2.3819 -1.5290
  157SAPE   O3117506   5.092   3.091  10.310 -0.4267 -0.2485 -0.1449
  157SAPE   C3117507   5.046   3.212  10.278 -0.9812 -0.4668 -0.9479
  157SAPE   O3217508   5.072   3.316  10.339  0.0428 -0.3487 -0.0181
  157SAPE   C3217509   4.968   3.198  10.153  0.3892 -0.2329 -0.0848
  157SAPE   H2X17510   4.875   3.140  10.172 -0.5487  0.7353 -1.5907
  157SAPE   H2Y17511   5.023   3.135  10.080 -0.1545  0.3010 -0.9699
  157SAPE   C2317512   4.708   2.772  10.328  0.4633  0.3347  0.4733
  157SAPE   H3R17513   4.655   2.869  10.334  1.2974  0.7110  3.2389
  157SAPE   H3S17514   4.637   2.690  10.353  1.3284 -0.8724 -0.8829
  157SAPE   C2417515   4.748   2.776  10.183  0.4140 -0.0105 -0.0585
  157SAPE   H4R17516   4.812   2.864  10.160  1.1670 -1.2661 -3.4075
  157SAPE   H4S17517   4.655   2.774  10.122  0.6886  0.2228 -0.4980
  157SAPE   C2517518   4.820   2.650  10.132  0.4609  0.4419 -0.7185
  157SAPE   H5R17519   4.794   2.555  10.181  0.2528 -0.1515 -1.9124
  157SAPE   C2617520   4.907   2.652  10.032 -0.3804  0.3893 -0.2150
  157SAPE   H6R17521   4.932   2.549  10.001 -1.2388  0.1937 -0.2972
  157SAPE   C2717522   4.952   2.767   9.943  0.4020 -0.4125  0.2053
  157SAPE   H7R17523   4.992   2.853  10.000  3.6098 -1.8439  0.3311
  157SAPE   H7S17524   4.864   2.797   9.882  0.5415 -1.5244 -0.5820
  157SAPE   C2817525   5.064   2.738   9.850 -0.2259  0.2194 -0.4584
  157SAPE   H8R17526   5.153   2.691   9.893  0.2889 -1.1741 -2.8557
  157SAPE   C2917527   5.055   2.749   9.716 -0.0407  0.5718  0.4821
  157SAPE   H9R17528   5.137   2.719   9.650 -1.0597  1.7999 -1.4444
  157SAPE  C21017529   4.933   2.802   9.633 -0.4738 -0.4413  0.1507
  157SAPE  H10R17530   4.844   2.807   9.699 -1.6720 -1.9481 -1.2542
  157SAPE  H10S17531   4.896   2.729   9.558  1.6814  1.7054 -3.2413
  157SAPE  C21117532   4.959   2.937   9.568 -0.2879 -0.2026  0.2965
  157SAPE  H11R17533   4.977   3.016   9.643 -1.2158 -0.7711  1.1511
  157SAPE  C21217534   4.944   2.969   9.438  0.2053 -0.3387 -0.3230
  157SAPE  H12R17535   4.974   3.070   9.409 -2.0367  0.9132  1.3729
  157SAPE  C21317536   4.917   2.875   9.324  0.5803  0.0274 -0.3090
  157SAPE  H13R17537   4.939   2.775   9.367 -2.1254  0.2955  2.0258
  157SAPE  H13S17538   4.985   2.890   9.238  0.5586 -1.0209 -0.5212
  157SAPE  C21417539   4.772   2.892   9.278 -0.0272  0.4627 -0.0758
  157SAPE  H14R17540   4.690   2.868   9.347 -0.6543  2.2617 -0.1489
  157SAPE  C21517541   4.741   2.922   9.153 -0.1661  0.3086 -0.0938
  157SAPE  H15R17542   4.634   2.924   9.129 -0.5887  3.0708  1.5980
  157SAPE  C21617543   4.836   2.951   9.035  0.4745  0.3463  0.0677
  157SAPE  H16R17544   4.945   2.963   9.055  0.3144  0.1521  1.1202
  157SAPE  H16S17545   4.804   3.049   8.993  0.1588  1.5543  2.8955
  157SAPE  C21717546   4.821   2.836   8.936 -0.2808 -0.0673  0.0276
  157SAPE  H17R17547   4.712   2.824   8.916 -0.0777  1.2575 -2.1752
  157SAPE  H17S17548   4.868   2.741   8.970 -1.6092 -0.7228  0.1285
  157SAPE  C21817549   4.885   2.872   8.802 -0.0811 -0.0284 -0.0198
  157SAPE  H18R17550   4.899   2.982   8.789  2.5365 -0.5460 -3.0703
  157SAPE  H18S17551   4.812   2.850   8.722 -0.3610  2.2034 -0.4612
  157SAPE  C21917552   5.016   2.793   8.776 -0.8049 -0.2693  0.2982
  157SAPE  H19R17553   4.980   2.690   8.798 -1.8742  0.1182  0.4450
  157SAPE  H19S17554   5.089   2.829   8.851 -1.0454  2.3383 -0.6286
  157SAPE  C22017555   5.071   2.813   8.634  0.3562  0.3457  0.6529
  157SAPE  H20R17556   5.163   2.763   8.598  1.7753  2.9043  0.5263
  157SAPE  H20S17557   5.093   2.920   8.613  1.9085  0.0064  0.4488
  157SAPE  H20T17558   4.998   2.780   8.557  0.8838  0.4960  0.0804
  157SAPE   C3317559   4.929   3.331  10.091  0.0418  0.1565 -0.2173
  157SAPE   H3X17560   5.008   3.408  10.106 -0.7071  0.8207  0.4288
  157SAPE   H3Y17561   4.837   3.364  10.144  0.4897  1.2629 -0.0796
  157SAPE   C3417562   4.883   3.309   9.945 -0.2049  0.4936 -0.0335
  157SAPE   H4X17563   4.794   3.375   9.931 -0.1695  0.2699 -1.4301
  157SAPE   H4Y17564   4.844   3.206   9.929  0.9768 -0.0111  0.2508
  157SAPE   C3517565   4.985   3.361   9.847  0.5399 -0.4779 -0.1921
  157SAPE   H5X17566   5.082   3.310   9.863  0.7660 -1.0417 -2.8627
  157SAPE   H5Y17567   5.020   3.466   9.860  3.0062 -1.4186  1.3732
  157SAPE   C3617568   4.967   3.342   9.697  0.4719 -0.1208  0.1525
  157SAPE   H6X17569   4.870   3.386   9.668  0.5071 -0.7790 -1.0370
  157SAPE   H6Y17570   4.974   3.232   9.677 -0.3922 -0.4009  1.2746
  157SAPE   C3717571   5.082   3.404   9.617 -0.1707 -0.1582  1.2660
  157SAPE   H7X17572   5.180   3.382   9.665  0.0632  0.6811  1.1801
  157SAPE   H7Y17573   5.061   3.512   9.607 -1.5589 -0.2663  2.6819
  157SAPE   C3817574   5.096   3.354   9.472 -0.4850 -0.9584  0.5344
  157SAPE   H8X17575   5.109   3.243   9.474  1.8939 -0.7326  0.4406
  157SAPE   H8Y17576   5.179   3.396   9.411 -1.6310 -0.1021 -0.4664
  157SAPE   C3917577   4.967   3.376   9.389 -0.7423 -0.1423 -0.6993
  157SAPE   H9X17578   4.939   3.483   9.402  1.4119  0.4571 -0.6353
  157SAPE   H9Y17579   4.888   3.307   9.425 -0.7259  0.9684  1.6434
  157SAPE  C31017580   4.987   3.362   9.237  0.0233 -0.1606  0.4937
  157SAPE  H10X17581   5.014   3.255   9.225  0.0838 -0.2048  0.9862
  157SAPE  H10Y17582   5.076   3.419   9.205  0.3229 -0.0041  1.5553
  157SAPE  C31117583   4.864   3.410   9.170  0.1209  0.1377  0.9640
  157SAPE  H11X17584   4.815   3.490   9.228 -2.4806  0.9636 -2.0926
  157SAPE  H11Y17585   4.788   3.329   9.173  0.6727 -0.5532 -1.3971
  157SAPE  C31217586   4.897   3.453   9.027 -0.2397 -0.7306  0.3821
  157SAPE  H12X17587   4.940   3.374   8.962  0.1237  0.5007 -0.9267
  157SAPE  H12Y17588   4.971   3.535   9.040 -0.7037 -0.5875  2.5807
  157SAPE  C31317589   4.781   3.521   8.960 -0.2330 -0.3051 -0.1001
  157SAPE  H13X17590   4.742   3.602   9.026  0.3735 -0.2840  0.2458
  157SAPE  H13Y17591   4.694   3.453   8.954 -0.4365 -0.6725  3.8850
  157SAPE  C31417592   4.812   3.584   8.825 -0.1297 -0.3063  0.4695
  157SAPE  H14X17593   4.890   3.530   8.768  0.2478  2.4487 -1.8579
  157SAPE  H14Y17594   4.869   3.679   8.831  0.8433 -0.7537 -1.1123
  157SAPE  C31517595   4.691   3.597   8.732 -0.2915 -0.0419  0.1563
  157SAPE  H15X17596   4.617   3.663   8.782 -1.6927  0.2013 -2.1007
  157SAPE  H15Y17597   4.647   3.497   8.710 -1.9225  0.5088  0.7418
  157SAPE  C31617598   4.726   3.662   8.594 -0.0949  0.8778  0.1180
  157SAPE  H16X17599   4.823   3.616   8.564  0.0709  0.4497  1.2378
  157SAPE  H16Y17600   4.752   3.770   8.609  0.0825  0.7826  0.5237
  157SAPE  C31717601   4.613   3.659   8.496  0.1449  1.3044  0.5132
  157SAPE  H17X17602   4.528   3.695   8.557 -1.6756 -2.4043  0.4603
  157SAPE  H17Y17603   4.585   3.557   8.462  0.5835  0.3284  2.8888
  157SAPE  C31817604   4.654   3.744   8.376  0.9203 -0.4442  0.4031
  157SAPE  H18X17605   4.648   3.850   8.406 -2.7049 -0.3463 -0.2052
  157SAPE  H18Y17606   4.587   3.736   8.288  1.1817  0.8310  0.0753
  157SAPE  H18Z17607   4.752   3.714   8.333  0.3682 -0.9345 -0.5488
  158SAPE     N17608   6.024   1.894  10.675  0.3561  0.8550 -0.0555
  158SAPE   HN117609   5.991   1.963  10.605  1.7594 -0.0558 -1.6708
  158SAPE   HN217610   5.943   1.844  10.718  1.3306  0.3554  1.2623
  158SAPE   HN317611   6.074   1.940  10.754  1.9345  0.1717 -0.6134
  158SAPE   C1217612   6.126   1.812  10.618  0.0997  0.6635  0.5454
  158SAPE  H12A17613   6.080   1.736  10.551  1.1098  1.0753 -0.6714
  158SAPE  H12B17614   6.175   1.756  10.700 -0.6698 -0.3843  0.3126
  158SAPE   C1117615   6.229   1.908  10.552 -0.5492 -0.1328  0.4878
  158SAPE  H11A17616   6.172   1.973  10.482  1.3580 -0.6414 -1.6741
  158SAPE  H11B17617   6.308   1.860  10.489 -0.4343  1.7617 -0.9064
  158SAPE     P17618   6.429   1.971  10.714 -0.1016  0.4603  0.2564
  158SAPE   O1317619   6.464   2.082  10.806 -0.4636  0.2616  0.0575
  158SAPE   O1417620   6.446   1.834  10.775  0.0350 -0.7783  0.2540
  158SAPE   O1217621   6.289   1.996  10.642  0.5251 -0.5370  0.1424
  158SAPE   O1117622   6.524   1.977  10.585  0.8544 -0.0362  0.1144
  158SAPE    C117623   6.576   2.106  10.541 -0.7084  0.0326 -0.9592
  158SAPE    HA17624   6.516   2.186  10.590  2.0351  0.0195  2.9111
  158SAPE    HB17625   6.674   2.109  10.592 -0.8151 -1.3070 -0.6231
  158SAPE    C217626   6.575   2.128  10.391 -0.2819  0.3530  0.2986
  158SAPE    HS17627   6.642   2.214  10.369 -1.1845  0.9641 -0.1125
  158SAPE   O2117628   6.444   2.159  10.342  0.6349  0.1574  0.4165
  158SAPE   C2117629   6.411   2.290  10.351  0.1559 -0.2570  0.3995
  158SAPE   O2217630   6.472   2.375  10.409  0.4023 -0.2979 -0.6141
  158SAPE   C2217631   6.280   2.313  10.265 -0.1298 -0.0804 -0.1172
  158SAPE   H2R17632   6.267   2.224  10.200  2.2924  0.1060 -0.9504
  158SAPE   H2S17633   6.205   2.300  10.347 -1.0155 -1.4261 -1.0846
  158SAPE    C317634   6.645   2.013  10.302 -0.6672 -0.5379 -0.6480
  158SAPE    HX17635   6.579   1.927  10.325 -0.2960  0.1658  4.3411
  158SAPE    HY17636   6.744   1.988  10.347 -0.8944 -0.3002  0.0005
  158SAPE   O3117637   6.650   2.050  10.163 -0.3200 -0.2595 -0.4656
  158SAPE   C3117638   6.538   2.029  10.093  0.2135  0.1360  0.7443
  158SAPE   O3217639   6.451   1.948  10.118 -0.6511 -0.0022 -0.3263
  158SAPE   C3217640   6.532   2.111   9.965 -0.3797  0.1805  0.2261
  158SAPE   H2X17641   6.596   2.064   9.887 -0.8505  2.2024 -1.4693
  158SAPE   H2Y17642   6.570   2.214   9.983  0.9555  0.2687 -2.6315
  158SAPE   C2317643   6.266   2.443  10.186  0.4427 -0.0282  0.6799
  158SAPE   H3R17644   6.334   2.441  10.098  0.4066  1.5109  0.5831
  158SAPE   H3S17645   6.301   2.524  10.254  1.4936  0.7314 -0.7110
  158SAPE   C2417646   6.125   2.496  10.143 -0.0307 -0.4406  0.0445
  158SAPE   H4R17647   6.064   2.512  10.234 -1.8621 -0.7827 -1.0729
  158SAPE   H4S17648   6.072   2.428  10.073  0.5995 -0.7737 -0.1185
  158SAPE   C2517649   6.146   2.631  10.072 -0.6758  0.0515  0.1303
  158SAPE   H5R17650   6.170   2.708  10.146  0.9005 -1.3903  1.2057
  158SAPE   C2617651   6.140   2.655   9.948 -0.6416 -0.1148  0.2323
  158SAPE   H6R17652   6.159   2.759   9.916  0.0994 -0.9272 -2.1536
  158SAPE   C2717653   6.116   2.552   9.836 -0.0136  0.2571  0.4617
  158SAPE   H7R17654   6.127   2.447   9.871 -2.1261 -0.3285 -0.4344
  158SAPE   H7S17655   6.184   2.563   9.750 -4.9221 -1.0680 -4.1470
  158SAPE   C2817656   5.982   2.562   9.770  0.2203  0.7608 -0.0718
  158SAPE   H8R17657   5.901   2.572   9.843  0.6263 -1.4879  0.7603
  158SAPE   C2917658   5.952   2.538   9.640  0.1275  0.0428  0.0018
  158SAPE   H9R17659   5.847   2.544   9.607  0.6960 -0.4904 -2.0829
  158SAPE  C21017660   6.051   2.516   9.531 -0.6788  0.6570  0.1580
  158SAPE  H10R17661   6.139   2.583   9.542  0.9179 -1.2908 -0.1787
  158SAPE  H10S17662   6.019   2.531   9.426  0.1416  0.3105 -0.1488
  158SAPE  C21117663   6.100   2.369   9.533  1.2163 -0.2869  0.5000
  158SAPE  H11R17664   6.134   2.328   9.629  0.5192  1.0691  1.3654
  158SAPE  C21217665   6.102   2.283   9.431  0.5444 -0.2591 -0.4195
  158SAPE  H12R17666   6.142   2.183   9.452 -0.0060  0.3258  4.7913
  158SAPE  C21317667   6.059   2.318   9.288 -0.2961  0.4443 -0.5794
  158SAPE  H13R17668   5.970   2.386   9.286 -0.5419  0.2480  1.4634
  158SAPE  H13S17669   6.016   2.223   9.251 -1.4726  0.7757 -0.1071
  158SAPE  C21417670   6.166   2.366   9.198  0.1035  0.0044  0.0641
  158SAPE  H14R17671   6.187   2.474   9.201  1.7906 -0.3120  1.3718
  158SAPE  C21517672   6.236   2.295   9.108 -0.1154 -0.1615 -0.4679
  158SAPE  H15R17673   6.318   2.339   9.050  0.0873  0.9419  0.6195
  158SAPE  C21617674   6.223   2.146   9.092 -0.4813 -0.3657  1.7192
  158SAPE  H16R17675   6.143   2.123   9.018  1.0417  1.3433 -0.6190
  158SAPE  H16S17676   6.211   2.099   9.192 -0.8800  0.0270  1.8591
  158SAPE  C21717677   6.354   2.084   9.033 -0.5796  0.0808 -0.2026
  158SAPE  H17R17678   6.335   1.976   9.017 -1.9990  0.1667  0.7259
  158SAPE  H17S17679   6.442   2.111   9.095 -0.6762 -1.9102  0.8788
  158SAPE  C21817680   6.388   2.143   8.894  0.2570 -0.0157  0.2396
  158SAPE  H18R17681   6.432   2.245   8.900 -0.5244  0.4862 -1.8080
  158SAPE  H18S17682   6.304   2.158   8.823  1.9678 -1.7577 -2.3024
  158SAPE  C21917683   6.505   2.061   8.833 -0.8875 -0.2140  0.2659
  158SAPE  H19R17684   6.483   1.952   8.835  2.5069 -1.0042  1.1020
  158SAPE  H19S17685   6.593   2.069   8.900  0.4438  1.3803 -1.5857
  158SAPE  C22017686   6.543   2.100   8.694 -0.6186  0.1283 -0.2777
  158SAPE  H20R17687   6.640   2.048   8.674 -0.6185 -0.9555  2.1533
  158SAPE  H20S17688   6.572   2.206   8.676  0.2684 -0.0548 -0.0179
  158SAPE  H20T17689   6.469   2.072   8.617  0.5063  0.8268 -1.6658
  158SAPE   C3317690   6.389   2.117   9.906 -0.6811  0.6076  0.1548
  158SAPE   H3X17691   6.320   2.152   9.985  1.6202  0.1671  2.4970
  158SAPE   H3Y17692   6.352   2.015   9.883 -0.7665  0.4511  0.9752
  158SAPE   C3417693   6.358   2.217   9.791  0.5242  1.4748 -0.1958
  158SAPE   H4X17694   6.385   2.315   9.837 -1.0602  1.3934  1.0301
  158SAPE   H4Y17695   6.249   2.215   9.767  0.6786 -1.9355 -1.0489
  158SAPE   C3517696   6.432   2.183   9.662 -0.3262 -0.1867  0.4395
  158SAPE   H5X17697   6.540   2.207   9.674 -0.2146 -0.4794  0.0392
  158SAPE   H5Y17698   6.389   2.254   9.588 -1.0073  0.0291  1.0332
  158SAPE   C3617699   6.413   2.038   9.611  0.4552  0.3589  0.1009
  158SAPE   H6X17700   6.306   2.011   9.624  0.9817 -0.6292  2.9918
  158SAPE   H6Y17701   6.483   1.982   9.676  1.4451  1.6143  0.1709
  158SAPE   C3717702   6.454   1.992   9.473  0.5171  0.7005  0.7593
  158SAPE   H7X17703   6.560   2.017   9.451  0.0797 -0.1141 -3.0229
  158SAPE   H7Y17704   6.387   2.038   9.396 -1.4872 -0.5191  1.6918
  158SAPE   C3817705   6.420   1.840   9.453  0.2984 -0.7132 -0.6873
  158SAPE   H8X17706   6.315   1.828   9.487  0.1900 -1.1759 -1.1680
  158SAPE   H8Y17707   6.466   1.773   9.529 -1.0697 -0.8963  0.0122
  158SAPE   C3917708   6.454   1.792   9.312  0.1267 -0.1354 -0.2158
  158SAPE   H9X17709   6.563   1.781   9.300  0.0943  1.0028 -1.8840
  158SAPE   H9Y17710   6.431   1.876   9.243  4.0127  1.5182  0.2682
  158SAPE  C31017711   6.383   1.667   9.267 -0.5886 -0.3268  0.4953
  158SAPE  H10X17712   6.277   1.669   9.301 -0.8845  1.5706 -0.3704
  158SAPE  H10Y17713   6.438   1.580   9.308  0.6384  0.0031 -0.3820
  158SAPE  C31117714   6.386   1.648   9.112 -0.1747  0.6707  0.2311
  158SAPE  H11X17715   6.489   1.627   9.075  1.0916  2.0818  2.6761
  158SAPE  H11Y17716   6.340   1.736   9.061  0.8506  0.7302 -0.6336
  158SAPE  C31217717   6.302   1.532   9.059 -0.3959  0.1104 -0.7651
  158SAPE  H12X17718   6.197   1.559   9.083 -0.6083 -1.1350 -0.1940
  158SAPE  H12Y17719   6.331   1.440   9.114 -1.4768  1.5795  2.4766
  158SAPE  C31317720   6.317   1.515   8.910  0.0739  0.3564 -0.2287
  158SAPE  H13X17721   6.427   1.502   8.901 -0.0090 -0.6935  0.1674
  158SAPE  H13Y17722   6.300   1.607   8.850  2.4259  1.5221  0.7614
  158SAPE  C31417723   6.249   1.381   8.860 -1.0788 -0.7807 -0.0965
  158SAPE  H14X17724   6.275   1.289   8.917 -2.3579 -1.2553 -0.2419
  158SAPE  H14Y17725   6.288   1.350   8.760 -1.4271 -3.9517  0.6434
  158SAPE  C31517726   6.094   1.392   8.858 -0.1206 -0.7254  0.2979
  158SAPE  H15X17727   6.071   1.468   8.781 -0.1463  0.3098  1.3019
  158SAPE  H15Y17728   6.063   1.433   8.957 -0.4145 -0.8763  0.2705
  158SAPE  C31617729   6.026   1.263   8.822  0.4275 -0.2427  0.5080
  158SAPE  H16X17730   6.073   1.173   8.865 -1.1249 -1.0143  0.6485
  158SAPE  H16Y17731   6.040   1.246   8.713  1.7683  1.1472  0.4254
  158SAPE  C31717732   5.872   1.263   8.841  0.4575  0.1096  0.2311
  158SAPE  H17X17733   5.850   1.299   8.944  1.1677 -0.1172  0.4697
  158SAPE  H17Y17734   5.830   1.161   8.827 -1.3441  1.2201 -3.8989
  158SAPE  C31817735   5.804   1.351   8.736  0.3517  0.3049  0.6330
  158SAPE  H18X17736   5.843   1.454   8.720  0.4184  0.1292 -0.3631
  158SAPE  H18Y17737   5.694   1.363   8.746  0.4158 -0.5823  3.5486
  158SAPE  H18Z17738   5.828   1.304   8.639 -0.9658  0.2472  0.3215
  159SAPE     N17739   6.635   0.186   6.418  0.4400  0.3922  0.7673
  159SAPE   HN117740   6.700   0.104   6.419  3.6368  2.6438 -1.3808
  159SAPE   HN217741   6.683   0.276   6.398 -0.8612  1.1027  0.7658
  159SAPE   HN317742   6.601   0.182   6.516  1.4153 -2.3299  1.0894
  159SAPE   C1217743   6.510   0.165   6.334 -0.1123 -1.1605  0.1090
  159SAPE  H12A17744   6.526   0.169   6.224  0.2488  2.0063  0.1782
  159SAPE  H12B17745   6.452   0.258   6.351  1.5434  0.1320 -0.9730
  159SAPE   C1117746   6.436   0.047   6.394  0.4934  0.6501  0.4377
  159SAPE  H11A17747   6.505  -0.039   6.377 -0.3851 -0.1400  0.7471
  159SAPE  H11B17748   6.346   0.023   6.333  1.1300  2.2806 -1.2194
  159SAPE     P17749   6.320  -0.037   6.612 -0.1622 -0.2450 -0.2092
  159SAPE   O1317750   6.277   0.027   6.732 -0.4813  0.2629  0.5541
  159SAPE   O1417751   6.214  -0.099   6.528  0.9807  0.0421 -0.2335
  159SAPE   O1217752   6.412   0.060   6.532 -0.1692 -0.4848  0.6507
  159SAPE   O1117753   6.412  -0.159   6.650 -0.6287  0.0659  0.8808
  159SAPE    C117754   6.551  -0.141   6.685  0.3004  0.3392  0.4872
  159SAPE    HA17755   6.600  -0.236   6.654  0.4162  0.2078  1.0608
  159SAPE    HB17756   6.588  -0.051   6.631 -2.6006  2.0199  1.0808
  159SAPE    C217757   6.551  -0.128   6.840  0.3250 -0.1282 -0.6525
  159SAPE    HS17758   6.529  -0.022   6.864 -1.1012 -0.8300  1.3970
  159SAPE   O2117759   6.685  -0.169   6.879 -0.6999  0.1872  0.0936
  159SAPE   C2117760   6.774  -0.084   6.857 -0.8670  0.3833  0.2188
  159SAPE   O2217761   6.763   0.025   6.808  0.1566 -0.0816 -0.2375
  159SAPE   C2217762   6.904  -0.141   6.912 -0.0335  0.3575 -0.0169
  159SAPE   H2R17763   6.920  -0.233   6.852 -1.9648 -1.0909  1.5758
  159SAPE   H2S17764   6.984  -0.069   6.883 -1.0688  1.1512 -1.0020
  159SAPE    C317765   6.446  -0.219   6.905  0.7325 -0.2035 -1.2118
  159SAPE    HX17766   6.453  -0.314   6.849  0.9907 -2.7556  2.7673
  159SAPE    HY17767   6.346  -0.171   6.897  1.0929  0.6959 -0.6039
  159SAPE   O3117768   6.476  -0.238   7.044 -0.3342 -0.0019 -0.3653
  159SAPE   C3117769   6.435  -0.343   7.093 -0.4172 -0.7407  0.7661
  159SAPE   O3217770   6.351  -0.415   7.047 -0.1810  0.2651 -0.1573
  159SAPE   C3217771   6.501  -0.364   7.234  0.0440 -0.2128  0.0828
  159SAPE   H2X17772   6.590  -0.300   7.251 -0.1442 -0.0050  0.2875
  159SAPE   H2Y17773   6.550  -0.462   7.218  3.2475  1.3647 -0.4563
  159SAPE   C2317774   6.901  -0.182   7.058  0.2054  0.1675 -0.0770
  159SAPE   H3R17775   6.997  -0.225   7.095 -0.3796 -0.9806  0.1413
  159SAPE   H3S17776   6.837  -0.272   7.072 -1.1437  0.7726 -2.0280
  159SAPE   C2417777   6.844  -0.070   7.149  0.5727 -0.2710  0.2234
  159SAPE   H4R17778   6.837  -0.107   7.253  1.5206 -1.8828 -0.2471
  159SAPE   H4S17779   6.737  -0.053   7.124  1.2905  0.9391 -2.4066
  159SAPE   C2517780   6.927   0.056   7.135  0.0935  0.8415 -0.2168
  159SAPE   H5R17781   6.915   0.117   7.044  0.4741 -0.7293 -1.3639
  159SAPE   C2617782   7.010   0.096   7.233  0.9411 -0.4710 -0.2359
  159SAPE   H6R17783   7.068   0.189   7.218  1.0920 -0.3937  0.7464
  159SAPE   C2717784   7.037   0.027   7.363 -0.5061  0.5260  0.1203
  159SAPE   H7R17785   7.126   0.083   7.400  0.5542  0.0936 -1.6889
  159SAPE   H7S17786   7.062  -0.079   7.344 -0.4870  0.1560  1.9712
  159SAPE   C2817787   6.918   0.040   7.458  0.5204  0.7469 -0.5959
  159SAPE   H8R17788   6.854   0.126   7.436 -1.5610 -0.2237  1.2416
  159SAPE   C2917789   6.889  -0.043   7.560 -0.1638  0.3622 -0.3796
  159SAPE   H9R17790   6.799  -0.030   7.621  0.1200 -0.4961  0.2427
  159SAPE  C21017791   6.967  -0.170   7.591 -0.2791 -0.3336 -0.2449
  159SAPE  H10R17792   6.991  -0.183   7.698  0.4186 -0.6139 -0.4273
  159SAPE  H10S17793   7.074  -0.155   7.562  0.3167 -0.7786  1.5960
  159SAPE  C21117794   6.891  -0.290   7.540  0.2535  0.3492 -0.3090
  159SAPE  H11R17795   6.872  -0.284   7.432 -1.4561 -0.4296 -0.0831
  159SAPE  C21217796   6.811  -0.372   7.618 -0.2045  0.5697 -1.1657
  159SAPE  H12R17797   6.758  -0.458   7.576 -0.6783  0.3035 -0.0501
  159SAPE  C21317798   6.802  -0.362   7.769  0.8136  0.1495 -0.3674
  159SAPE  H13R17799   6.703  -0.399   7.802  0.1231  2.3785  0.2303
  159SAPE  H13S17800   6.788  -0.259   7.808  0.5903 -0.0273  0.0225
  159SAPE  C21417801   6.904  -0.438   7.847 -0.8641  0.0346  0.0985
  159SAPE  H14R17802   6.999  -0.444   7.793 -0.3015 -0.4159  1.1187
  159SAPE  C21517803   6.909  -0.468   7.976  0.2579  0.3051  0.5712
  159SAPE  H15R17804   7.006  -0.507   8.012 -0.6823 -0.4050  2.4578
  159SAPE  C21617805   6.803  -0.427   8.082 -0.5955  0.4964  0.4950
  159SAPE  H16R17806   6.729  -0.507   8.106 -0.4053  0.4675  0.9847
  159SAPE  H16S17807   6.746  -0.338   8.048 -0.2624  1.0849  1.4387
  159SAPE  C21717808   6.881  -0.386   8.208 -0.2099 -0.1033 -0.6755
  159SAPE  H17R17809   6.801  -0.350   8.276  1.4249 -0.7350  1.7096
  159SAPE  H17S17810   6.954  -0.304   8.192 -0.9683  0.9147  0.9015
  159SAPE  C21817811   6.946  -0.505   8.291 -0.2881 -0.3196  0.3028
  159SAPE  H18R17812   7.000  -0.459   8.376  0.7706  0.1315 -0.5944
  159SAPE  H18S17813   7.018  -0.547   8.218  0.5258  0.9049  0.3656
  159SAPE  C21917814   6.855  -0.617   8.340  0.4417 -0.4773  0.3654
  159SAPE  H19R17815   6.810  -0.658   8.248  1.5069 -1.7164  0.3762
  159SAPE  H19S17816   6.774  -0.560   8.390  0.8784 -0.0931  0.6473
  159SAPE  C22017817   6.930  -0.721   8.421  0.0134  0.1392  0.7677
  159SAPE  H20R17818   7.012  -0.763   8.359 -1.1061 -0.5910 -0.2668
  159SAPE  H20S17819   6.859  -0.803   8.444 -0.1917 -0.2036 -0.9378
  159SAPE  H20T17820   6.989  -0.684   8.508  2.1803 -2.1442  0.3932
  159SAPE   C3317821   6.404  -0.356   7.356  0.9258  0.0144  0.2251
  159SAPE   H3X17822   6.332  -0.441   7.351  1.2623 -0.3172  0.9575
  159SAPE   H3Y17823   6.349  -0.260   7.354 -0.6233 -0.8505 -0.4651
  159SAPE   C3417824   6.465  -0.374   7.484  0.4878  0.0112 -1.0266
  159SAPE   H4X17825   6.559  -0.315   7.478 -0.9463  2.5236 -0.3055
  159SAPE   H4Y17826   6.493  -0.478   7.513  0.3181  0.9506  3.1524
  159SAPE   C3517827   6.367  -0.320   7.591  0.9309 -0.3699  0.1712
  159SAPE   H5X17828   6.273  -0.377   7.572 -1.6565  3.4625  0.2564
  159SAPE   H5Y17829   6.348  -0.211   7.583  5.1500  0.6377  1.5431
  159SAPE   C3617830   6.428  -0.335   7.727 -0.2340 -0.3578 -0.4328
  159SAPE   H6X17831   6.521  -0.276   7.716 -0.0795 -0.5902 -0.3740
  159SAPE   H6Y17832   6.477  -0.433   7.742  2.9052  0.8604 -1.8849
  159SAPE   C3717833   6.339  -0.304   7.846 -0.0575  0.5244 -0.2211
  159SAPE   H7X17834   6.274  -0.393   7.856 -0.3566  0.5970 -1.4134
  159SAPE   H7Y17835   6.277  -0.213   7.843  0.3280  0.8391  0.8567
  159SAPE   C3817836   6.421  -0.289   7.974 -0.6398  1.2647 -0.0417
  159SAPE   H8X17837   6.506  -0.219   7.959  0.3301 -0.2765 -2.2344
  159SAPE   H8Y17838   6.467  -0.385   8.005  1.1063  1.5659 -1.5368
  159SAPE   C3917839   6.331  -0.248   8.097 -0.0396  0.3100  0.4300
  159SAPE   H9X17840   6.289  -0.341   8.141  0.7441  0.6196  1.8846
  159SAPE   H9Y17841   6.245  -0.188   8.059  1.0525  1.8050  0.2317
  159SAPE  C31017842   6.416  -0.182   8.204 -0.2927  0.7382  0.8044
  159SAPE  H10X17843   6.455  -0.086   8.165  1.3824 -0.3468 -0.2538
  159SAPE  H10Y17844   6.505  -0.247   8.209 -1.4049 -1.1513 -1.7542
  159SAPE  C31117845   6.350  -0.179   8.338 -0.1776 -0.0305 -0.9539
  159SAPE  H11X17846   6.335  -0.282   8.375  1.2857  0.3963  1.0111
  159SAPE  H11Y17847   6.248  -0.142   8.313 -0.1030 -1.1663 -3.1591
  159SAPE  C31217848   6.420  -0.092   8.444 -0.1438  0.0514 -0.5575
  159SAPE  H12X17849   6.459   0.010   8.419  0.7975  0.6223  2.7555
  159SAPE  H12Y17850   6.512  -0.153   8.459  1.6257  2.4075 -1.0787
  159SAPE  C31317851   6.332  -0.091   8.569 -0.3779  0.2146 -0.1366
  159SAPE  H13X17852   6.269  -0.183   8.568 -0.4965  0.2937  0.1170
  159SAPE  H13Y17853   6.266  -0.002   8.571 -0.0159  0.4934  2.9047
  159SAPE  C31417854   6.418  -0.096   8.693  0.7491  0.5941  0.3825
  159SAPE  H14X17855   6.510  -0.035   8.694  2.3916 -1.7289  0.0867
  159SAPE  H14Y17856   6.452  -0.201   8.704  2.1905  1.0818  0.7763
  159SAPE  C31517857   6.330  -0.058   8.813 -0.1055  0.3007 -0.4697
  159SAPE  H15X17858   6.230  -0.107   8.818 -0.3618  0.7868 -0.7393
  159SAPE  H15Y17859   6.317   0.052   8.805  2.5790  0.7739  0.5749
  159SAPE  C31617860   6.401  -0.072   8.949 -0.5539 -0.1788 -0.5099
  159SAPE  H16X17861   6.498  -0.017   8.947 -0.1131 -0.9251 -0.3171
  159SAPE  H16Y17862   6.416  -0.177   8.981 -0.1376 -0.3066 -1.1119
  159SAPE  C31717863   6.325   0.001   9.070 -0.1413  0.3440  0.1999
  159SAPE  H17X17864   6.224  -0.038   9.094  0.2636  1.0885  3.6540
  159SAPE  H17Y17865   6.307   0.104   9.031  1.4963  0.7816  0.4867
  159SAPE  C31817866   6.410  -0.014   9.193  0.1888  0.3932  0.0724
  159SAPE  H18X17867   6.516   0.010   9.168  1.1954 -0.6819  2.9107
  159SAPE  H18Y17868   6.402  -0.115   9.237  1.2083 -0.6460 -1.9420
  159SAPE  H18Z17869   6.380   0.060   9.269 -2.4338 -0.2252 -0.2778
  160SAPE     N17870   3.746   2.734   6.291  0.5281 -0.0955  0.2967
  160SAPE   HN117871   3.767   2.823   6.340  2.2516 -2.0800  3.5153
  160SAPE   HN217872   3.742   2.759   6.190  2.3346 -2.3865 -0.4323
  160SAPE   HN317873   3.655   2.692   6.321  1.5892 -1.3336  1.9707
  160SAPE   C1217874   3.849   2.628   6.304  0.7372  0.3508 -0.3749
  160SAPE  H12A17875   3.817   2.543   6.241 -2.0434  2.1046 -1.5521
  160SAPE  H12B17876   3.849   2.586   6.407  1.3005  0.0058 -0.5144
  160SAPE   C1117877   3.985   2.672   6.258 -0.8764 -1.1719 -0.4699
  160SAPE  H11A17878   3.989   2.698   6.150  0.7412 -0.3125 -0.2273
  160SAPE  H11B17879   4.051   2.586   6.278  0.0435 -0.0531  1.5316
  160SAPE     P17880   4.165   2.861   6.299 -0.0036  0.0634  0.3774
  160SAPE   O1317881   4.253   2.783   6.210 -0.5103 -0.2463  0.0057
  160SAPE   O1417882   4.128   2.997   6.261  0.1989 -0.9131 -0.2384
  160SAPE   O1217883   4.038   2.778   6.342  1.1117 -0.4550 -0.3159
  160SAPE   O1117884   4.238   2.876   6.432  0.3481  0.5014 -0.3496
  160SAPE    C117885   4.345   2.968   6.455  0.1014  0.0700 -0.7126
  160SAPE    HA17886   4.443   2.927   6.421  0.9109  0.4483  1.0414
  160SAPE    HB17887   4.324   3.069   6.413 -1.1534  0.3346  0.4916
  160SAPE    C217888   4.364   2.984   6.609 -0.5887 -0.2958 -0.6298
  160SAPE    HS17889   4.440   3.065   6.620 -1.1278  0.0668  0.6307
  160SAPE   O2117890   4.400   2.857   6.671 -0.2468 -0.0780 -0.0650
  160SAPE   C2117891   4.528   2.822   6.663  0.8550  0.1381 -0.1891
  160SAPE   O2217892   4.621   2.888   6.620 -0.0787  0.0059 -0.6971
  160SAPE   C2217893   4.543   2.700   6.758  0.1943 -0.3481 -0.4350
  160SAPE   H2R17894   4.469   2.716   6.839 -0.8498  0.5550 -1.5309
  160SAPE   H2S17895   4.512   2.611   6.699 -1.0175 -0.5503  0.4622
  160SAPE    C317896   4.240   3.041   6.679  0.0634 -0.0919  0.1313
  160SAPE    HX17897   4.153   2.976   6.655 -0.6772  1.0676 -0.4208
  160SAPE    HY17898   4.206   3.136   6.632 -0.8889 -0.8134 -0.7053
  160SAPE   O3117899   4.262   3.052   6.820  0.5919  0.4683  0.4907
  160SAPE   C3117900   4.154   3.046   6.898  0.1279 -0.4548  0.8294
  160SAPE   O3217901   4.038   3.037   6.855 -0.1855  0.0717 -0.0508
  160SAPE   C3217902   4.194   3.055   7.043  0.1185  0.7061  0.2006
  160SAPE   H2X17903   4.127   3.120   7.101 -0.7458  0.1619 -0.1724
  160SAPE   H2Y17904   4.297   3.094   7.062 -0.2409  1.2112  1.1373
  160SAPE   C2317905   4.673   2.688   6.830 -0.2701 -0.0669  0.5289
  160SAPE   H3R17906   4.682   2.780   6.892  0.1900  0.5421 -0.4147
  160SAPE   H3S17907   4.754   2.691   6.754  1.2593 -0.9348  2.0359
  160SAPE   C2417908   4.668   2.558   6.911 -0.0952  0.5640 -0.1835
  160SAPE   H4R17909   4.642   2.465   6.856  0.0749  0.7545 -0.5921
  160SAPE   H4S17910   4.594   2.569   6.993  0.2037  2.6143 -0.1391
  160SAPE   C2517911   4.802   2.532   6.981  0.2377 -0.1229  0.5301
  160SAPE   H5R17912   4.889   2.485   6.932 -0.0015  0.2704 -0.2977
  160SAPE   C2617913   4.834   2.601   7.096  0.2207 -0.4867  0.8509
  160SAPE   H6R17914   4.935   2.580   7.136  0.9410  0.8452 -0.1574
  160SAPE   C2717915   4.738   2.683   7.174  0.4935 -0.6644  0.0780
  160SAPE   H7R17916   4.655   2.624   7.218  0.7050 -0.3343  0.9405
  160SAPE   H7S17917   4.684   2.762   7.118  0.7019 -0.6905 -0.1592
  160SAPE   C2817918   4.818   2.751   7.278 -0.3115 -0.3838 -0.2039
  160SAPE   H8R17919   4.892   2.826   7.245  1.7450 -1.3886  1.7782
  160SAPE   C2917920   4.819   2.727   7.413  0.5816  0.0347 -0.2738
  160SAPE   H9R17921   4.881   2.785   7.482 -0.5861  0.3225  0.5549
  160SAPE  C21017922   4.735   2.625   7.481 -0.0140 -0.2169  0.0474
  160SAPE  H10R17923   4.637   2.636   7.428 -0.5222 -0.4865  0.9156
  160SAPE  H10S17924   4.726   2.656   7.587  0.6280  2.9869 -0.7271
  160SAPE  C21117925   4.780   2.483   7.456 -0.4596 -0.2395 -0.3712
  160SAPE  H11R17926   4.796   2.456   7.351  3.9753  0.2883 -0.0250
  160SAPE  C21217927   4.815   2.394   7.553  0.2907  0.2303  0.5085
  160SAPE  H12R17928   4.870   2.302   7.528  1.3670  1.5865 -2.6319
  160SAPE  C21317929   4.798   2.419   7.697  0.0628 -0.0928  0.4996
  160SAPE  H13R17930   4.787   2.325   7.756 -2.3800 -1.8693 -2.4678
  160SAPE  H13S17931   4.702   2.470   7.720  0.4847  0.6054  0.7407
  160SAPE  C21417932   4.900   2.499   7.761  0.1837 -0.8151  0.5498
  160SAPE  H14R17933   4.935   2.593   7.714 -1.6297 -1.0158 -1.3653
  160SAPE  C21517934   4.947   2.482   7.885 -0.5928  0.6294  0.1684
  160SAPE  H15R17935   5.028   2.548   7.919 -0.3716  3.7521 -5.2931
  160SAPE  C21617936   4.916   2.373   7.988 -0.0514 -0.8165 -0.9823
  160SAPE  H16R17937   4.820   2.327   7.958 -1.0765  1.3520 -1.2419
  160SAPE  H16S17938   4.899   2.418   8.088 -2.3425  0.5881 -1.9168
  160SAPE  C21717939   5.021   2.260   7.979 -0.3038 -0.5048 -0.0770
  160SAPE  H17R17940   5.120   2.304   8.002 -0.8341  1.6174 -1.4378
  160SAPE  H17S17941   5.034   2.226   7.874 -0.2592 -0.4682 -0.0836
  160SAPE  C21817942   4.991   2.153   8.085  0.1581 -0.2744  0.2549
  160SAPE  H18R17943   4.891   2.105   8.078 -1.3113  2.2674  1.9435
  160SAPE  H18S17944   5.003   2.197   8.186 -0.8474 -0.3626  0.4212
  160SAPE  C21917945   5.096   2.045   8.080 -0.0378  0.2862 -0.3660
  160SAPE  H19R17946   5.196   2.093   8.089  1.0065 -2.1050  3.0062
  160SAPE  H19S17947   5.087   1.991   7.983 -0.9794  1.9090 -1.2096
  160SAPE  C22017948   5.095   1.949   8.203 -0.7806  0.1644  0.3994
  160SAPE  H20R17949   5.124   2.014   8.288 -0.4800  3.2412 -1.9062
  160SAPE  H20S17950   5.172   1.871   8.184 -1.5282 -0.6447  0.5764
  160SAPE  H20T17951   4.992   1.910   8.219 -0.8590  0.6696  1.1791
  160SAPE   C3317952   4.156   2.912   7.112  0.6894 -0.8923  0.0062
  160SAPE   H3X17953   4.184   2.826   7.047  0.4030 -0.5080 -0.6364
  160SAPE   H3Y17954   4.046   2.904   7.119  0.7680 -1.4579  0.6950
  160SAPE   C3417955   4.228   2.910   7.254  0.7920 -0.0797  0.6118
  160SAPE   H4X17956   4.180   2.829   7.313 -0.6319  0.1761 -0.1525
  160SAPE   H4Y17957   4.203   3.009   7.298 -0.2705 -0.2126  0.3250
  160SAPE   C3517958   4.375   2.871   7.253  0.4876 -0.2543 -0.0385
  160SAPE   H5X17959   4.434   2.920   7.173  0.0556  2.6588  1.3009
  160SAPE   H5Y17960   4.395   2.762   7.247 -1.3771 -0.9890  3.9730
  160SAPE   C3617961   4.445   2.919   7.382 -0.0878  0.4736  0.2144
  160SAPE   H6X17962   4.423   3.025   7.409 -1.2132  0.1016  0.8563
  160SAPE   H6Y17963   4.553   2.903   7.363  0.0818 -1.7232  2.5328
  160SAPE   C3717964   4.409   2.835   7.504 -0.1218 -0.5367 -0.3487
  160SAPE   H7X17965   4.431   2.727   7.487  0.2914 -0.4306 -0.5079
  160SAPE   H7Y17966   4.301   2.847   7.525  0.2932  2.0058  0.7354
  160SAPE   C3817967   4.468   2.886   7.636  0.1180 -0.9571  0.9387
  160SAPE   H8X17968   4.450   2.995   7.650  1.0603 -0.7563  0.7001
  160SAPE   H8Y17969   4.579   2.876   7.627 -0.1152 -3.0628 -0.0249
  160SAPE   C3917970   4.405   2.806   7.753  0.0803 -0.6450  0.2383
  160SAPE   H9X17971   4.308   2.757   7.732 -1.3678  2.3054 -0.6296
  160SAPE   H9Y17972   4.368   2.880   7.827 -1.1778 -0.1502 -0.8369
  160SAPE  C31017973   4.506   2.706   7.821 -0.0410 -0.0185 -0.3341
  160SAPE  H10X17974   4.602   2.756   7.846 -0.2446  0.2359 -0.0512
  160SAPE  H10Y17975   4.518   2.625   7.746  2.0092  1.0589 -1.2439
  160SAPE  C31117976   4.436   2.652   7.949 -0.1292  0.3192 -0.2515
  160SAPE  H11X17977   4.329   2.641   7.922  0.4644 -0.0204 -2.7106
  160SAPE  H11Y17978   4.421   2.730   8.026  2.1822 -1.4429  2.1931
  160SAPE  C31217979   4.499   2.524   8.010  0.5188  0.1620 -0.1223
  160SAPE  H12X17980   4.605   2.552   8.027  0.1288  0.5804  1.9326
  160SAPE  H12Y17981   4.492   2.433   7.947 -1.5049 -1.4672  2.2463
  160SAPE  C31317982   4.438   2.490   8.143 -0.2136  0.0820 -0.6340
  160SAPE  H13X17983   4.332   2.458   8.143 -0.8762  2.1501 -0.4034
  160SAPE  H13Y17984   4.441   2.586   8.198  0.5809  0.0209 -0.5610
  160SAPE  C31417985   4.514   2.381   8.220 -0.3117 -0.8506 -0.2134
  160SAPE  H14X17986   4.460   2.370   8.316 -0.9775 -0.5157 -0.5466
  160SAPE  H14Y17987   4.623   2.401   8.232 -0.6607  0.6450  0.7052
  160SAPE  C31517988   4.486   2.243   8.157  0.1789 -0.1700 -0.4938
  160SAPE  H15X17989   4.545   2.244   8.062  2.0314  1.5196  0.5965
  160SAPE  H15Y17990   4.379   2.240   8.129 -0.2228  0.3085  0.9110
  160SAPE  C31617991   4.526   2.122   8.242  0.3237 -0.7723  0.6877
  160SAPE  H16X17992   4.464   2.115   8.334  0.6764 -0.6923  0.9339
  160SAPE  H16Y17993   4.633   2.128   8.270  0.7190 -0.1682 -0.8429
  160SAPE  C31717994   4.519   1.994   8.157 -0.2491  0.0122  0.1946
  160SAPE  H17X17995   4.573   2.019   8.064  0.1813  1.2244  0.7539
  160SAPE  H17Y17996   4.418   1.964   8.121 -1.0922 -1.1676  3.1940
  160SAPE  C31817997   4.583   1.865   8.219 -0.5655 -0.0409  0.2111
  160SAPE  H18X17998   4.572   1.770   8.162  2.4380 -0.6303  0.4450
  160SAPE  H18Y17999   4.516   1.843   8.304 -1.3832 -0.7935 -0.6005
  160SAPE  H18Z18000   4.690   1.875   8.249 -0.3652 -1.6879  0.1516
  161SAPE     N18001   0.189   3.974   6.337 -0.8455 -0.3435 -0.3879
  161SAPE   HN118002   0.137   3.890   6.304 -0.9858 -0.4695  0.1396
  161SAPE   HN218003   0.188   4.055   6.272 -2.2503  0.6733  0.8037
  161SAPE   HN318004   0.289   3.945   6.341 -0.6663  0.0896 -1.4159
  161SAPE   C1218005   0.159   4.007   6.484  0.5059  0.0269  0.1065
  161SAPE  H12A18006   0.206   4.103   6.515  0.3561  0.3788 -0.7262
  161SAPE  H12B18007   0.201   3.925   6.546 -1.9367  1.2358  3.7324
  161SAPE   C1118008   0.009   4.021   6.513 -0.2637 -0.5021 -0.2687
  161SAPE  H11A18009  -0.014   4.026   6.621 -0.9652 -2.9222 -0.2488
  161SAPE  H11B18010  -0.037   3.928   6.475  1.9947 -1.0361 -1.9493
  161SAPE     P18011  -0.017   4.274   6.466 -0.4569 -0.3417 -0.4564
  161SAPE   O1318012   0.103   4.316   6.389  0.2471  0.4071  0.3027
  161SAPE   O1418013  -0.145   4.350   6.446  0.3933 -0.4239 -0.2441
  161SAPE   O1218014  -0.051   4.125   6.432  0.2692  0.0117 -0.3357
  161SAPE   O1118015   0.018   4.272   6.621  0.4886 -0.1014  0.1329
  161SAPE    C118016  -0.075   4.311   6.721  0.7772  0.0551  0.7082
  161SAPE    HA18017  -0.181   4.313   6.686  0.7399 -0.0976  0.8163
  161SAPE    HB18018  -0.084   4.240   6.805  1.0736  0.5439  1.1594
  161SAPE    C218019  -0.042   4.455   6.771 -0.1241 -0.2813  0.5103
  161SAPE    HS18020  -0.059   4.518   6.682 -2.0454 -1.9143 -0.3598
  161SAPE   O2118021   0.096   4.457   6.818 -0.2832 -0.4618  0.4662
  161SAPE   C2118022   0.145   4.577   6.829 -0.0746  0.1157  0.5746
  161SAPE   O2218023   0.084   4.683   6.817  0.5233  0.6103  0.2585
  161SAPE   C2218024   0.300   4.572   6.852  0.2854 -0.3547 -0.8635
  161SAPE   H2R18025   0.315   4.472   6.896 -1.4288  0.1360  0.9583
  161SAPE   H2S18026   0.351   4.559   6.754  1.9669  0.7278 -0.1847
  161SAPE    C318027  -0.146   4.498   6.874  0.6547 -0.0545  0.5224
  161SAPE    HX18028  -0.235   4.515   6.810  0.3887  0.3926  0.9935
  161SAPE    HY18029  -0.116   4.593   6.924  1.4588 -1.7927  3.5634
  161SAPE   O3118030  -0.172   4.400   6.974  0.0755 -0.0544 -0.8303
  161SAPE   C3118031  -0.093   4.401   7.087 -0.3802 -0.2440  0.2934
  161SAPE   O3218032   0.009   4.470   7.100 -0.5582  0.4127 -0.2520
  161SAPE   C3218033  -0.138   4.302   7.193  0.2263 -0.4551  0.5875
  161SAPE   H2X18034  -0.091   4.206   7.163  1.1189 -0.3412  1.5884
  161SAPE   H2Y18035  -0.248   4.303   7.175  0.5285  0.3268 -1.6293
  161SAPE   C2318036   0.355   4.693   6.928  0.7567  0.7237 -0.5708
  161SAPE   H3R18037   0.279   4.766   6.962  0.4880  0.0697  0.2661
  161SAPE   H3S18038   0.429   4.742   6.861  1.2072  0.0274 -0.5940
  161SAPE   C2418039   0.416   4.650   7.062 -0.1343  0.1207 -0.7292
  161SAPE   H4R18040   0.344   4.577   7.105 -0.5805  0.2253 -1.2858
  161SAPE   H4S18041   0.419   4.737   7.131  2.2145 -0.4509 -0.0304
  161SAPE   C2518042   0.546   4.563   7.060 -0.8393 -0.0802 -0.4457
  161SAPE   H5R18043   0.534   4.458   7.031  3.0689 -0.8129 -0.0465
  161SAPE   C2618044   0.667   4.608   7.090 -1.0525  0.3247  0.0281
  161SAPE   H6R18045   0.753   4.539   7.089 -1.6682 -0.4506 -0.9857
  161SAPE   C2718046   0.701   4.746   7.129 -0.7093 -0.8045 -1.0545
  161SAPE   H7R18047   0.650   4.778   7.223 -0.7830  1.8122 -1.9145
  161SAPE   H7S18048   0.665   4.826   7.060 -1.3650  1.6457  1.8916
  161SAPE   C2818049   0.846   4.782   7.153 -0.0878  0.1381 -0.1270
  161SAPE   H8R18050   0.885   4.827   7.061 -1.7451  1.0238 -0.4409
  161SAPE   C2918051   0.925   4.761   7.268 -0.4311  0.2500  0.0303
  161SAPE   H9R18052   1.034   4.771   7.258 -0.0351 -2.1694  1.3140
  161SAPE  C21018053   0.890   4.703   7.403  0.7087 -0.9130  0.3279
  161SAPE  H10R18054   0.942   4.607   7.422 -0.3626 -1.2639  1.6167
  161SAPE  H10S18055   0.783   4.675   7.398  0.5794 -0.2332 -1.9373
  161SAPE  C21118056   0.917   4.815   7.502 -0.3064 -0.1323  0.1516
  161SAPE  H11R18057   0.931   4.917   7.465  3.4635 -0.4463  0.3574
  161SAPE  C21218058   0.914   4.788   7.633 -0.0771  0.8743 -0.1709
  161SAPE  H12R18059   0.942   4.860   7.711 -1.4627  0.6576  0.5475
  161SAPE  C21318060   0.882   4.649   7.689 -0.2399  0.2623  0.5190
  161SAPE  H13R18061   0.857   4.568   7.617 -1.8335  1.9591 -0.9305
  161SAPE  H13S18062   0.788   4.663   7.746  0.3572  0.1530  1.5660
  161SAPE  C21418063   1.001   4.608   7.770 -0.0822  0.4193  0.2337
  161SAPE  H14R18064   1.086   4.578   7.706 -2.1746 -1.1978 -1.9704
  161SAPE  C21518065   1.018   4.622   7.903  0.3034 -0.3236 -0.5719
  161SAPE  H15R18066   1.114   4.593   7.948  1.5983  2.2881 -1.4572
  161SAPE  C21618067   0.914   4.670   8.008 -0.1158 -0.0793 -0.1973
  161SAPE  H16R18068   0.816   4.630   7.976 -3.0483  3.1829  3.7291
  161SAPE  H16S18069   0.907   4.781   8.018  1.5815 -0.0939  1.9119
  161SAPE  C21718070   0.942   4.623   8.153  0.8619 -0.2352 -0.8030
  161SAPE  H17R18071   0.974   4.518   8.136 -1.2365 -0.9799 -0.4445
  161SAPE  H17S18072   0.850   4.622   8.216  1.4495  1.1812  0.1285
  161SAPE  C21818073   1.046   4.716   8.227 -0.5945 -0.1765 -0.0292
  161SAPE  H18R18074   0.997   4.809   8.265 -0.6929 -0.7378  1.2637
  161SAPE  H18S18075   1.118   4.754   8.151 -1.8055  1.0938 -0.5815
  161SAPE  C21918076   1.127   4.645   8.334  0.3065 -0.6961 -0.6476
  161SAPE  H19R18077   1.209   4.714   8.362  0.4070 -0.3583 -1.7504
  161SAPE  H19S18078   1.180   4.559   8.288  0.9945  0.5998 -2.3888
  161SAPE  C22018079   1.050   4.619   8.466  0.7881  0.1354 -0.2227
  161SAPE  H20R18080   1.114   4.606   8.556 -1.9591  0.4350  1.9494
  161SAPE  H20S18081   0.991   4.526   8.451  2.9431 -1.1249 -1.3900
  161SAPE  H20T18082   0.977   4.699   8.491  1.6280  0.9732 -0.4137
  161SAPE   C3318083  -0.093   4.355   7.335 -0.3584 -0.4793  0.4364
  161SAPE   H3X18084  -0.128   4.458   7.356 -0.6395 -0.4258 -0.2823
  161SAPE   H3Y18085   0.018   4.360   7.335 -0.3820  0.0657 -0.2255
  161SAPE   C3418086  -0.126   4.264   7.452  0.7545 -0.4818  0.6347
  161SAPE   H4X18087  -0.236   4.254   7.457  0.8039 -0.6232  1.7199
  161SAPE   H4Y18088  -0.103   4.316   7.548 -2.4515  0.8967  0.7682
  161SAPE   C3518089  -0.057   4.123   7.440  0.6103  0.2749 -0.5657
  161SAPE   H5X18090   0.047   4.130   7.477 -0.1573 -1.3433  2.2240
  161SAPE   H5Y18091  -0.054   4.076   7.340  0.5910 -1.4940  0.2251
  161SAPE   C3618092  -0.137   4.020   7.525 -0.1589 -0.1627  0.4407
  161SAPE   H6X18093  -0.114   3.919   7.483  0.9917 -0.1687  1.0438
  161SAPE   H6Y18094  -0.244   4.046   7.513 -0.2235  0.6951  2.4508
  161SAPE   C3718095  -0.111   4.025   7.678  0.2605 -0.8532  0.0507
  161SAPE   H7X18096  -0.142   4.120   7.728  1.2215  1.7251 -3.7598
  161SAPE   H7Y18097  -0.001   4.028   7.693  0.2597  1.9656 -0.0143
  161SAPE   C3818098  -0.182   3.917   7.750  0.0950  0.1176  0.6787
  161SAPE   H8X18099  -0.164   3.818   7.701 -1.7889 -0.3515  0.8620
  161SAPE   H8Y18100  -0.291   3.915   7.731  0.1306  1.3203  0.2455
  161SAPE   C3918101  -0.147   3.913   7.891  0.4334  1.4402 -0.3483
  161SAPE   H9X18102  -0.150   4.014   7.938 -2.0116  0.6409  1.4198
  161SAPE   H9Y18103  -0.042   3.876   7.883 -0.3867 -0.6802 -2.2554
  161SAPE  C31018104  -0.237   3.813   7.973 -0.0660  0.0725  0.1882
  161SAPE  H10X18105  -0.222   3.713   7.928  2.0262 -0.1175  1.1688
  161SAPE  H10Y18106  -0.337   3.849   7.942 -0.9012 -1.7668  0.6078
  161SAPE  C31118107  -0.214   3.831   8.126 -0.0327 -0.3812  0.1263
  161SAPE  H11X18108  -0.241   3.936   8.150 -0.1623  0.4393 -3.1965
  161SAPE  H11Y18109  -0.106   3.813   8.141  0.2391  0.5053 -0.7107
  161SAPE  C31218110  -0.279   3.727   8.224  0.3847 -0.4758 -0.2686
  161SAPE  H12X18111  -0.295   3.629   8.174  1.9351 -1.1135  0.4187
  161SAPE  H12Y18112  -0.375   3.766   8.262  1.0899  0.9543  0.1122
  161SAPE  C31318113  -0.176   3.695   8.333  1.1311 -0.1497 -0.1175
  161SAPE  H13X18114  -0.081   3.667   8.281 -0.0158 -0.2922 -2.2579
  161SAPE  H13Y18115  -0.224   3.608   8.383 -0.0595  0.2529 -0.5200
  161SAPE  C31418116  -0.149   3.801   8.438 -0.6095 -0.3112 -0.3053
  161SAPE  H14X18117  -0.109   3.891   8.387 -0.3577  0.9440  1.9793
  161SAPE  H14Y18118  -0.068   3.770   8.508 -1.1002  0.4164  0.5986
  161SAPE  C31518119  -0.266   3.843   8.526  0.2072 -0.3939  0.4879
  161SAPE  H15X18120  -0.256   3.797   8.626  0.4718 -1.1567  0.1211
  161SAPE  H15Y18121  -0.368   3.818   8.489  1.6566 -1.2031 -3.4873
  161SAPE  C31618122  -0.251   3.992   8.560 -0.3231  0.0444 -0.5280
  161SAPE  H16X18123  -0.252   4.052   8.467  0.5809 -0.1418 -0.6694
  161SAPE  H16Y18124  -0.155   4.023   8.608  0.6861  1.4094 -3.2030
  161SAPE  C31718125  -0.375   4.036   8.641 -0.2986 -0.8068 -0.4906
  161SAPE  H17X18126  -0.386   3.987   8.740 -1.3681  2.8732  1.4117
  161SAPE  H17Y18127  -0.472   4.027   8.587 -0.9804 -0.3687  0.6236
  161SAPE  C31818128  -0.369   4.188   8.652  0.7429  0.1614 -0.0601
  161SAPE  H18X18129  -0.291   4.217   8.726 -0.5693  0.1902  1.3508
  161SAPE  H18Y18130  -0.467   4.231   8.679  0.2602 -0.8939 -0.0738
  161SAPE  H18Z18131  -0.327   4.231   8.559 -0.1038  0.7046 -0.1967
  162SAPE     N18132   5.494   3.772   6.341 -0.5676  0.1698 -0.5653
  162SAPE   HN118133   5.535   3.868   6.346  1.8277 -0.7715 -1.0018
  162SAPE   HN218134   5.399   3.775   6.384 -0.3066  2.2739  0.0043
  162SAPE   HN318135   5.548   3.711   6.406 -1.5063 -0.7268 -0.6057
  162SAPE   C1218136   5.502   3.702   6.210  0.3582 -0.4456 -0.3130
  162SAPE  H12A18137   5.606   3.673   6.186  1.6267  2.7456  0.7180
  162SAPE  H12B18138   5.466   3.776   6.136 -1.3146  0.5146  1.3584
  162SAPE   C1118139   5.411   3.580   6.209 -0.0382 -0.0718  0.1502
  162SAPE  H11A18140   5.408   3.533   6.108  1.2565 -0.4102  0.2616
  162SAPE  H11B18141   5.309   3.604   6.246 -0.6460 -1.2389 -0.6926
  162SAPE     P18142   5.461   3.331   6.276  0.4610  0.0996 -0.5885
  162SAPE   O1318143   5.323   3.275   6.280  0.0578 -0.1719  0.6420
  162SAPE   O1418144   5.535   3.308   6.151  0.4465  0.0957 -0.6128
  162SAPE   O1218145   5.461   3.484   6.309  0.1130  0.1259 -0.2865
  162SAPE   O1118146   5.548   3.282   6.402 -0.1141  0.0455  0.1139
  162SAPE    C118147   5.540   3.314   6.535 -0.2053 -0.3963  0.5329
  162SAPE    HA18148   5.639   3.351   6.570  0.1999  1.0138 -1.8455
  162SAPE    HB18149   5.468   3.397   6.549 -1.1243 -0.1783 -3.9570
  162SAPE    C218150   5.487   3.191   6.618  0.4576 -0.7035  0.3766
  162SAPE    HS18151   5.492   3.223   6.725  0.6521  1.4566 -0.2432
  162SAPE   O2118152   5.560   3.063   6.589 -0.7874 -0.5847 -0.4601
  162SAPE   C2118153   5.693   3.072   6.593 -0.0834  0.1474 -0.4948
  162SAPE   O2218154   5.761   3.167   6.630  0.2587  0.0686  0.6183
  162SAPE   C2218155   5.762   2.944   6.534  0.4830 -0.8162 -0.2681
  162SAPE   H2R18156   5.709   2.913   6.442 -1.4078  0.9970  0.1337
  162SAPE   H2S18157   5.867   2.972   6.514  0.4637 -0.3397  0.2835
  162SAPE    C318158   5.336   3.164   6.595  0.6891  0.5236  0.7643
  162SAPE    HX18159   5.316   3.083   6.669 -0.6241 -1.8108 -1.9181
  162SAPE    HY18160   5.320   3.121   6.493  1.0906 -0.1633  0.9836
  162SAPE   O3118161   5.264   3.286   6.611 -0.0599 -0.0182 -0.1893
  162SAPE   C3118162   5.214   3.317   6.735  0.1296 -0.6683  1.2785
  162SAPE   O3218163   5.230   3.243   6.833 -0.2355  0.2563  0.1527
  162SAPE   C3218164   5.139   3.444   6.731 -0.2468  0.0319  0.1723
  162SAPE   H2X18165   5.077   3.437   6.639 -0.3120  0.7047  0.1578
  162SAPE   H2Y18166   5.217   3.519   6.705 -0.0184 -0.2043  0.1790
  162SAPE   C2318167   5.768   2.814   6.621 -0.0433  0.1999  0.1856
  162SAPE   H3R18168   5.799   2.730   6.555 -1.0043 -0.0323  0.0138
  162SAPE   H3S18169   5.676   2.774   6.668  0.0703 -2.2020 -1.4613
  162SAPE   C2418170   5.869   2.835   6.735 -0.0141  0.3105  0.2016
  162SAPE   H4R18171   5.959   2.877   6.686 -0.1413  0.7647  0.3606
  162SAPE   H4S18172   5.893   2.736   6.781 -1.8170  0.4845  1.5801
  162SAPE   C2518173   5.825   2.938   6.841 -0.4189 -0.5710 -0.5880
  162SAPE   H5R18174   5.828   3.043   6.810 -0.3444 -1.5393 -4.4429
  162SAPE   C2618175   5.768   2.904   6.954  0.3631 -0.4163 -0.0123
  162SAPE   H6R18176   5.747   2.985   7.025 -0.3097  0.1550 -0.8503
  162SAPE   C2718177   5.743   2.765   7.003 -0.0820 -0.0062 -0.5317
  162SAPE   H7R18178   5.834   2.744   7.062  1.3180 -1.1395 -2.9648
  162SAPE   H7S18179   5.740   2.691   6.921  0.0525  0.0338 -0.5731
  162SAPE   C2818180   5.618   2.761   7.082  0.4162  0.2124 -0.1124
  162SAPE   H8R18181   5.535   2.797   7.019  0.7118 -0.0069 -0.6309
  162SAPE   C2918182   5.596   2.718   7.214 -0.2376 -0.6047  0.7734
  162SAPE   H9R18183   5.495   2.717   7.258 -0.2717  1.3417  0.8422
  162SAPE  C21018184   5.698   2.675   7.311 -0.3037 -0.0442 -0.2560
  162SAPE  H10R18185   5.780   2.609   7.277  0.0837  0.0500  0.4744
  162SAPE  H10S18186   5.649   2.610   7.387 -1.1133 -0.1689 -0.8733
  162SAPE  C21118187   5.764   2.798   7.369  0.3335 -0.3066  0.5702
  162SAPE  H11R18188   5.839   2.856   7.315  2.8440 -2.5357  1.4232
  162SAPE  C21218189   5.767   2.829   7.499 -0.2092 -0.0797  0.4499
  162SAPE  H12R18190   5.831   2.910   7.537  1.3216 -0.5106 -1.1089
  162SAPE  C21318191   5.685   2.766   7.606 -0.4711  0.2112 -0.0785
  162SAPE  H13R18192   5.635   2.672   7.574 -0.1288 -0.5313  1.4947
  162SAPE  H13S18193   5.595   2.825   7.636 -1.4791 -1.4144  0.2273
  162SAPE  C21418194   5.774   2.735   7.721  0.0100  0.6633  0.2576
  162SAPE  H14R18195   5.848   2.654   7.713 -0.1934  0.4487  0.5066
  162SAPE  C21518196   5.765   2.796   7.841  0.4055  0.9878 -0.3591
  162SAPE  H15R18197   5.821   2.745   7.921 -0.2755  0.5029 -0.1832
  162SAPE  C21618198   5.672   2.905   7.897 -0.4958 -0.0417  0.2771
  162SAPE  H16R18199   5.577   2.912   7.840  0.2240 -1.4773 -1.1429
  162SAPE  H16S18200   5.720   3.004   7.882 -0.9457 -0.1919 -2.5586
  162SAPE  C21718201   5.642   2.887   8.045  0.6792  0.4160  1.1393
  162SAPE  H17R18202   5.574   2.974   8.056 -2.2291 -1.5867  0.3086
  162SAPE  H17S18203   5.739   2.901   8.098  0.1043 -0.3721  2.4442
  162SAPE  C21818204   5.566   2.762   8.101  0.5413 -0.5434 -0.0500
  162SAPE  H18R18205   5.629   2.670   8.105  0.3974 -0.6080  1.4319
  162SAPE  H18S18206   5.481   2.748   8.031 -0.9251  1.4759  1.1934
  162SAPE  C21918207   5.523   2.769   8.246 -0.0116  0.2782 -0.5819
  162SAPE  H19R18208   5.609   2.796   8.312 -1.1827  1.3986  0.5385
  162SAPE  H19S18209   5.482   2.667   8.261  1.8951 -1.1159 -3.7720
  162SAPE  C22018210   5.422   2.875   8.291 -0.0252  0.5685  0.2807
  162SAPE  H20R18211   5.324   2.855   8.244 -0.0430 -0.1660  0.6146
  162SAPE  H20S18212   5.466   2.972   8.260  0.8405 -0.1346 -0.7576
  162SAPE  H20T18213   5.413   2.872   8.402  1.1626 -3.1664  0.4403
  162SAPE   C3318214   5.058   3.457   6.858  0.0554 -0.5362  0.6802
  162SAPE   H3X18215   5.010   3.361   6.885 -2.2870  0.7271  1.2850
  162SAPE   H3Y18216   4.975   3.527   6.836  1.7252  1.0823 -0.9240
  162SAPE   C3418217   5.132   3.508   6.985 -0.0041  0.4755  0.0749
  162SAPE   H4X18218   5.192   3.600   6.967 -0.1137  0.7915  1.2330
  162SAPE   H4Y18219   5.211   3.437   7.017  0.7777  0.9142 -0.8110
  162SAPE   C3518220   5.028   3.515   7.087  0.0284 -0.0515 -0.7984
  162SAPE   H5X18221   4.972   3.420   7.092 -2.6762  1.2681 -3.2240
  162SAPE   H5Y18222   4.961   3.604   7.085  0.6779  0.4514 -0.6817
  162SAPE   C3618223   5.092   3.517   7.226 -0.8484 -0.3526 -0.2300
  162SAPE   H6X18224   5.142   3.615   7.247  2.6257 -2.2952  1.4311
  162SAPE   H6Y18225   5.174   3.443   7.237  0.5204  1.3221  1.8069
  162SAPE   C3718226   4.992   3.501   7.346  0.0416  0.3499 -0.1980
  162SAPE   H7X18227   4.969   3.394   7.366 -0.9358  0.6081  0.0943
  162SAPE   H7Y18228   4.904   3.567   7.331  0.0721  0.4038 -0.1412
  162SAPE   C3818229   5.048   3.564   7.488  0.3679  0.9651  0.6497
  162SAPE   H8X18230   5.044   3.674   7.477  0.7030  1.1192  1.8563
  162SAPE   H8Y18231   5.151   3.527   7.509 -0.4716 -0.7189  2.0666
  162SAPE   C3918232   4.970   3.507   7.611 -0.3094 -0.0728  0.8212
  162SAPE   H9X18233   4.976   3.398   7.590  3.6932  0.1599 -0.0876
  162SAPE   H9Y18234   4.863   3.532   7.627 -1.3194 -1.3773 -2.8998
  162SAPE  C31018235   5.041   3.547   7.740 -0.7971  0.1220  0.0011
  162SAPE  H10X18236   5.032   3.655   7.764  0.9270 -0.1222  2.1687
  162SAPE  H10Y18237   5.151   3.542   7.726 -0.7406 -1.1223  0.7067
  162SAPE  C31118238   5.000   3.460   7.862  0.3095 -0.4590  0.7902
  162SAPE  H11X18239   5.032   3.355   7.844 -1.3487 -0.8841  0.1427
  162SAPE  H11Y18240   4.889   3.458   7.857  0.3281 -1.0870 -3.6145
  162SAPE  C31218241   5.060   3.515   7.990  0.5798 -0.0851  1.0327
  162SAPE  H12X18242   4.994   3.602   8.010 -0.9828 -0.4513 -1.9174
  162SAPE  H12Y18243   5.168   3.538   7.983  0.3833  0.3783 -1.3895
  162SAPE  C31318244   5.042   3.415   8.108  0.3768 -0.7197 -0.2989
  162SAPE  H13X18245   5.109   3.328   8.099 -0.8098 -1.9069  1.6508
  162SAPE  H13Y18246   4.937   3.380   8.114 -0.7111  2.0509 -1.1959
  162SAPE  C31418247   5.076   3.495   8.239 -0.6541 -0.1139  0.2300
  162SAPE  H14X18248   5.003   3.578   8.247 -1.2709 -0.4248 -1.7565
  162SAPE  H14Y18249   5.179   3.535   8.227 -0.3859 -1.2220 -1.5761
  162SAPE  C31518250   5.065   3.414   8.370  0.8045  0.0976  0.6731
  162SAPE  H15X18251   5.086   3.488   8.450  1.2182  2.0994 -1.2065
  162SAPE  H15Y18252   5.141   3.333   8.360  0.9671  0.2776  0.4483
  162SAPE  C31618253   4.928   3.357   8.392  0.1788 -0.3534  0.3146
  162SAPE  H16X18254   4.920   3.274   8.318  0.7680 -1.3078  1.2858
  162SAPE  H16Y18255   4.847   3.427   8.362  1.2756 -0.5352 -3.6587
  162SAPE  C31718256   4.916   3.306   8.530 -0.1208  0.7393 -0.4228
  162SAPE  H17X18257   4.931   3.393   8.599  0.3513 -0.0873  0.5470
  162SAPE  H17Y18258   4.991   3.226   8.546 -2.0721 -1.1634 -0.3528
  162SAPE  C31818259   4.775   3.256   8.564 -0.1343 -0.4518 -0.2399
  162SAPE  H18X18260   4.762   3.223   8.669 -0.9425  1.3236  0.2559
  162SAPE  H18Y18261   4.749   3.166   8.505  1.2139 -2.2092  1.7272
  162SAPE  H18Z18262   4.697   3.335   8.556  0.6833  0.5555  1.1729
  163SAPE     N18263   4.239   6.650   6.619 -0.0605 -0.2129  0.1008
  163SAPE   HN118264   4.336   6.634   6.585  0.4561  1.3306  0.7645
  163SAPE   HN218265   4.172   6.588   6.569 -2.6651  1.6380  1.0681
  163SAPE   HN318266   4.207   6.748   6.603 -1.6024 -0.4332  1.5558
  163SAPE   C1218267   4.255   6.623   6.766  0.4289 -0.0732  0.2605
  163SAPE  H12A18268   4.276   6.514   6.777  1.5753  0.3591  3.0337
  163SAPE  H12B18269   4.155   6.645   6.810  0.2423 -0.3144 -0.0425
  163SAPE   C1118270   4.363   6.712   6.830  0.1282 -0.3599  0.1967
  163SAPE  H11A18271   4.354   6.690   6.939 -1.1202 -1.6680 -0.1373
  163SAPE  H11B18272   4.340   6.821   6.829 -0.0049 -0.3881  0.1199
  163SAPE     P18273   4.591   6.575   6.816 -0.0562 -0.0490 -0.4428
  163SAPE   O1318274   4.559   6.446   6.751  0.4905  0.1385  0.1740
  163SAPE   O1418275   4.722   6.635   6.789 -0.3627 -0.1345 -0.2307
  163SAPE   O1218276   4.490   6.689   6.780 -0.4559 -0.3088  0.5157
  163SAPE   O1118277   4.574   6.559   6.974 -0.3253  0.1242 -0.5594
  163SAPE    C118278   4.593   6.674   7.055  0.9751  0.2513 -0.4879
  163SAPE    HA18279   4.569   6.771   7.005  1.4049  0.0855 -1.0219
  163SAPE    HB18280   4.519   6.675   7.138  0.1351 -1.0539 -1.1950
  163SAPE    C218281   4.728   6.678   7.118  0.7415 -0.0277 -0.1314
  163SAPE    HS18282   4.810   6.688   7.044  1.4138  0.5983  0.6729
  163SAPE   O2118283   4.738   6.566   7.206  0.1000 -0.6334  0.1669
  163SAPE   C2118284   4.864   6.540   7.245 -0.2586 -0.1195  0.3157
  163SAPE   O2218285   4.957   6.623   7.234 -0.2087 -0.7054  0.3204
  163SAPE   C2218286   4.873   6.406   7.317 -0.6258  0.1911 -0.6056
  163SAPE   H2R18287   4.780   6.399   7.378 -0.0527 -0.5009  0.2239
  163SAPE   H2S18288   4.873   6.322   7.245  0.2200  1.3989 -2.0637
  163SAPE    C318289   4.729   6.813   7.207  0.0185  0.7412 -0.3337
  163SAPE    HX18290   4.719   6.900   7.138 -0.0434  1.2824  0.3362
  163SAPE    HY18291   4.831   6.821   7.250  0.2148 -0.4055 -0.5772
  163SAPE   O3118292   4.616   6.824   7.298  0.2741  0.0353  0.4382
  163SAPE   C3118293   4.650   6.776   7.421 -0.1794  0.1409  0.4454
  163SAPE   O3218294   4.762   6.755   7.459 -0.6858  0.4756  0.0258
  163SAPE   C3218295   4.515   6.738   7.494 -0.4785 -0.2636  1.0075
  163SAPE   H2X18296   4.439   6.735   7.413 -0.2367 -1.3122  0.7978
  163SAPE   H2Y18297   4.498   6.825   7.560 -0.1839 -0.2009  1.0011
  163SAPE   C2318298   4.990   6.402   7.417  0.8295  0.4019 -0.2002
  163SAPE   H3R18299   4.984   6.487   7.488  0.4229 -0.5578  0.9357
  163SAPE   H3S18300   5.075   6.427   7.350 -0.5274  1.4680 -1.6004
  163SAPE   C2418301   5.007   6.259   7.487 -0.0115 -0.0554  1.1758
  163SAPE   H4R18302   5.006   6.190   7.401 -1.3106  0.4643  0.7452
  163SAPE   H4S18303   4.911   6.239   7.539 -0.1803 -0.8082  0.5858
  163SAPE   C2518304   5.131   6.239   7.576  0.1995  0.6432  0.4766
  163SAPE   H5R18305   5.226   6.217   7.524 -0.6005 -0.4146 -0.6149
  163SAPE   C2618306   5.129   6.242   7.711 -0.0950 -0.1635  0.4447
  163SAPE   H6R18307   5.218   6.236   7.776  1.8620  0.7456 -2.0199
  163SAPE   C2718308   5.007   6.270   7.797  0.3253  0.2777 -0.9397
  163SAPE   H7R18309   5.035   6.221   7.893 -0.1376  0.5556 -0.6626
  163SAPE   H7S18310   4.915   6.216   7.767 -0.2840  0.1769  0.9824
  163SAPE   C2818311   4.981   6.413   7.814 -0.5561  0.3647  0.2999
  163SAPE   H8R18312   4.980   6.465   7.717  1.1520 -1.0611 -0.5382
  163SAPE   C2918313   4.963   6.479   7.931  0.3462 -0.6260  0.7258
  163SAPE   H9R18314   4.933   6.584   7.930  0.4007 -0.5249  3.4991
  163SAPE  C21018315   4.965   6.412   8.073  0.4609 -0.2187 -0.4709
  163SAPE  H10R18316   5.064   6.430   8.121 -0.3057  3.2137  0.1254
  163SAPE  H10S18317   4.959   6.301   8.078 -3.6617 -0.1079  0.9490
  163SAPE  C21118318   4.838   6.455   8.147  0.1125  0.3033  1.0535
  163SAPE  H11R18319   4.744   6.444   8.092  2.5156  1.1207 -3.7766
  163SAPE  C21218320   4.838   6.479   8.281 -0.9659  0.7612  0.8566
  163SAPE  H12R18321   4.750   6.516   8.335 -1.3511 -0.5738  1.1767
  163SAPE  C21318322   4.967   6.479   8.361 -0.2537  0.1859  0.8829
  163SAPE  H13R18323   5.002   6.584   8.359 -0.9289  0.4254 -1.6036
  163SAPE  H13S18324   5.042   6.411   8.315 -1.2826 -1.0148  0.9126
  163SAPE  C21418325   4.945   6.444   8.506  0.1715  0.7250 -0.1036
  163SAPE  H14R18326   4.937   6.339   8.535  1.1557  0.6847  0.0702
  163SAPE  C21518327   4.923   6.532   8.609 -0.3746  0.3999  0.0678
  163SAPE  H15R18328   4.926   6.487   8.709 -4.7309 -2.1345 -0.6903
  163SAPE  C21618329   4.917   6.686   8.616  0.7380  0.2155 -0.4507
  163SAPE  H16R18330   4.810   6.709   8.594  0.7342 -0.1140 -0.7830
  163SAPE  H16S18331   4.974   6.720   8.527 -3.6882 -0.8757 -4.1055
  163SAPE  C21718332   4.981   6.758   8.735 -0.1501  0.3979 -1.2011
  163SAPE  H17R18333   5.013   6.859   8.700  1.6508  0.3486  0.1466
  163SAPE  H17S18334   5.073   6.708   8.774 -0.9714 -0.0742  0.2021
  163SAPE  C21818335   4.877   6.755   8.847  0.2139 -0.2822  0.2913
  163SAPE  H18R18336   4.928   6.804   8.933 -1.1452 -2.1394  2.2489
  163SAPE  H18S18337   4.850   6.650   8.869  0.0963 -0.4813 -0.7599
  163SAPE  C21918338   4.744   6.834   8.823 -0.9777 -0.0825  0.0340
  163SAPE  H19R18339   4.657   6.766   8.809 -1.2699  0.3200 -0.1163
  163SAPE  H19S18340   4.744   6.894   8.730 -0.4897  0.4942  0.3944
  163SAPE  C22018341   4.726   6.934   8.936  0.0427 -0.0192 -0.2246
  163SAPE  H20R18342   4.644   7.002   8.905  1.5363  1.8725 -0.2136
  163SAPE  H20S18343   4.816   6.994   8.959 -1.9571  2.8389  0.7256
  163SAPE  H20T18344   4.694   6.880   9.027  0.6010  0.2636  0.1405
  163SAPE   C3318345   4.525   6.614   7.583 -0.2891 -0.6450  0.2869
  163SAPE   H3X18346   4.623   6.634   7.631  0.4130 -0.8836 -0.9879
  163SAPE   H3Y18347   4.530   6.521   7.523  2.0596  0.6284 -1.6796
  163SAPE   C3418348   4.406   6.605   7.684 -0.5740  0.2371  0.0873
  163SAPE   H4X18349   4.307   6.576   7.641 -0.8733 -1.6641  1.9194
  163SAPE   H4Y18350   4.390   6.707   7.726  1.4424 -0.3937  2.6614
  163SAPE   C3518351   4.435   6.520   7.808  0.1929  0.5219 -0.0135
  163SAPE   H5X18352   4.542   6.520   7.839  0.0567  0.2210  0.4658
  163SAPE   H5Y18353   4.404   6.413   7.805  0.6791  0.3176  1.3956
  163SAPE   C3618354   4.375   6.581   7.936 -0.0588  0.3157 -1.2430
  163SAPE   H6X18355   4.269   6.606   7.919 -0.2591  2.1146  1.7605
  163SAPE   H6Y18356   4.436   6.670   7.967  0.9030 -0.6395 -0.2856
  163SAPE   C3718357   4.400   6.485   8.060 -0.2082 -0.2725  0.0540
  163SAPE   H7X18358   4.510   6.476   8.067 -0.0748  0.4547 -0.8660
  163SAPE   H7Y18359   4.362   6.385   8.031  1.1033 -0.7140 -0.1869
  163SAPE   C3818360   4.346   6.542   8.190 -0.5284  1.1964  0.5807
  163SAPE   H8X18361   4.238   6.564   8.179  0.1044  3.9283 -0.9890
  163SAPE   H8Y18362   4.388   6.644   8.207 -1.9222  2.0707 -0.9311
  163SAPE   C3918363   4.376   6.448   8.311 -0.7611 -0.2621  0.2075
  163SAPE   H9X18364   4.476   6.404   8.293 -1.2539 -1.4631  0.3234
  163SAPE   H9Y18365   4.297   6.371   8.304 -1.7875  0.5010  2.3046
  163SAPE  C31018366   4.380   6.518   8.448  0.1752  0.4714  0.8197
  163SAPE  H10X18367   4.311   6.605   8.443  0.8092  0.9641 -3.4177
  163SAPE  H10Y18368   4.483   6.561   8.443  0.1950  0.4996  1.4455
  163SAPE  C31118369   4.378   6.433   8.577 -0.3277  0.0196  0.3887
  163SAPE  H11X18370   4.274   6.402   8.603 -0.7076  1.1062  0.2426
  163SAPE  H11Y18371   4.408   6.504   8.658  1.8785 -2.7610  2.1826
  163SAPE  C31218372   4.493   6.326   8.592  0.7642 -0.1391  0.1628
  163SAPE  H12X18373   4.588   6.359   8.546  1.3669 -1.3824  0.4729
  163SAPE  H12Y18374   4.459   6.246   8.522 -3.5951 -0.5758  2.4008
  163SAPE  C31318375   4.521   6.290   8.731 -0.0294  0.1932 -0.2223
  163SAPE  H13X18376   4.507   6.379   8.796  1.6428  1.1308 -1.0662
  163SAPE  H13Y18377   4.630   6.268   8.737 -0.2787 -0.8180  0.8940
  163SAPE  C31418378   4.434   6.167   8.784 -0.3126 -0.4952 -0.2812
  163SAPE  H14X18379   4.326   6.192   8.782 -0.0068  0.8133 -1.2943
  163SAPE  H14Y18380   4.464   6.163   8.891  2.7275 -3.3416 -1.0717
  163SAPE  C31518381   4.465   6.040   8.712 -0.1417  0.3918 -0.3259
  163SAPE  H15X18382   4.574   6.025   8.724 -0.0706  1.8005  1.2283
  163SAPE  H15Y18383   4.437   6.048   8.605  2.3054 -0.2167 -1.0662
  163SAPE  C31618384   4.393   5.919   8.777 -0.1082 -0.4710  0.4813
  163SAPE  H16X18385   4.283   5.929   8.792 -0.2180 -1.4491  0.3630
  163SAPE  H16Y18386   4.427   5.907   8.882  0.2052  1.1747  0.6010
  163SAPE  C31718387   4.425   5.781   8.707  0.7273  0.2375  0.3039
  163SAPE  H17X18388   4.535   5.769   8.697  0.7134 -0.9808  1.4615
  163SAPE  H17Y18389   4.384   5.801   8.605 -0.8559  1.8430  1.1942
  163SAPE  C31818390   4.345   5.666   8.779 -0.0191 -0.4697  0.2007
  163SAPE  H18X18391   4.372   5.567   8.736  3.6128  1.3769 -2.3104
  163SAPE  H18Y18392   4.235   5.678   8.771 -0.2355 -0.3749  2.5673
  163SAPE  H18Z18393   4.383   5.662   8.883 -0.3931  0.5466  0.3948
  164SAPE     N18394   6.217   1.338   6.074 -0.1724  0.2428  0.0053
  164SAPE   HN118395   6.164   1.272   6.135 -0.5674 -0.0255 -0.6188
  164SAPE   HN218396   6.210   1.429   6.124 -2.2697 -1.3040  2.9204
  164SAPE   HN318397   6.168   1.350   5.983  1.6864  1.7843 -0.8523
  164SAPE   C1218398   6.360   1.292   6.052  0.8777 -0.2037  0.4351
  164SAPE  H12A18399   6.350   1.210   5.978  1.9382 -0.4993  0.5936
  164SAPE  H12B18400   6.395   1.253   6.151  2.6267  1.2163  0.4367
  164SAPE   C1118401   6.458   1.402   6.012  0.3345 -0.0275 -0.2959
  164SAPE  H11A18402   6.427   1.458   5.921  2.4713  1.2612 -0.3041
  164SAPE  H11B18403   6.561   1.364   5.995  1.0677  0.6605  2.2151
  164SAPE     P18404   6.584   1.551   6.190 -0.4678 -0.2682  0.1572
  164SAPE   O1318405   6.684   1.564   6.082 -0.0079  0.0202  0.3767
  164SAPE   O1418406   6.557   1.678   6.261  0.0503  0.4137 -0.1366
  164SAPE   O1218407   6.450   1.506   6.117  0.5635 -0.0315  0.5621
  164SAPE   O1118408   6.620   1.433   6.290 -0.3436  0.1200  0.5363
  164SAPE    C118409   6.522   1.402   6.386 -0.1769  0.0006  1.2136
  164SAPE    HA18410   6.421   1.443   6.362  0.6665 -0.1704 -3.6500
  164SAPE    HB18411   6.503   1.293   6.398 -0.8170  0.1535  1.6254
  164SAPE    C218412   6.566   1.455   6.525 -0.0433 -0.1970 -0.4631
  164SAPE    HS18413   6.525   1.386   6.602  0.6974 -1.5234 -1.2151
  164SAPE   O2118414   6.518   1.586   6.555 -0.4398  0.2701  0.2377
  164SAPE   C2118415   6.400   1.593   6.609 -0.1546 -0.4963 -0.3658
  164SAPE   O2218416   6.327   1.501   6.642 -0.0199  0.0859 -0.0785
  164SAPE   C2218417   6.367   1.741   6.637  0.0727 -0.3128  0.1763
  164SAPE   H2R18418   6.452   1.811   6.627 -1.0842  1.0818 -0.1784
  164SAPE   H2S18419   6.286   1.771   6.567  1.9344  1.8529 -1.2207
  164SAPE    C318420   6.718   1.440   6.548 -0.1989 -0.5482 -0.4518
  164SAPE    HX18421   6.769   1.506   6.474  0.9220 -0.6614  0.1904
  164SAPE    HY18422   6.763   1.340   6.530 -0.0229 -0.8257  1.3194
  164SAPE   O3118423   6.757   1.474   6.686 -0.6827  0.1448  0.7322
  164SAPE   C3118424   6.804   1.600   6.707 -0.2065 -0.2803  0.5144
  164SAPE   O3218425   6.789   1.693   6.632  0.1721 -0.4956 -0.2358
  164SAPE   C3218426   6.865   1.602   6.848 -1.2581  0.3734  0.2307
  164SAPE   H2X18427   6.934   1.515   6.858 -3.1785 -1.1378  1.2862
  164SAPE   H2Y18428   6.782   1.584   6.920 -1.9954 -1.1627 -0.9318
  164SAPE   C2318429   6.336   1.761   6.782  0.0566  0.4109  0.0693
  164SAPE   H3R18430   6.270   1.679   6.818 -1.5010  1.0363 -1.2265
  164SAPE   H3S18431   6.282   1.858   6.788  0.2485  0.4716  0.8904
  164SAPE   C2418432   6.457   1.761   6.881 -0.2138 -0.4267  0.1614
  164SAPE   H4R18433   6.508   1.664   6.897  1.0171  0.1541 -0.1015
  164SAPE   H4S18434   6.407   1.760   6.980 -0.2069 -1.2299  0.1611
  164SAPE   C2518435   6.551   1.881   6.873  0.1402  0.5966 -0.1448
  164SAPE   H5R18436   6.583   1.908   6.771  3.7152 -1.1379  0.3238
  164SAPE   C2618437   6.606   1.941   6.980  0.2211 -0.2660  0.0088
  164SAPE   H6R18438   6.658   2.036   6.959  0.2328  0.0077  1.1645
  164SAPE   C2718439   6.577   1.914   7.126  1.0480  0.2219  0.2406
  164SAPE   H7R18440   6.551   1.807   7.136 -0.6718  0.3192 -2.3119
  164SAPE   H7S18441   6.477   1.958   7.149  1.1292 -0.5007  2.1373
  164SAPE   C2818442   6.676   1.971   7.230  0.2308 -0.0453  0.2512
  164SAPE   H8R18443   6.758   2.030   7.186  0.0410  1.4589  1.8162
  164SAPE   C2918444   6.663   1.955   7.366 -0.1428  0.4835  0.1694
  164SAPE   H9R18445   6.736   1.996   7.438  0.3255 -0.2807  0.1420
  164SAPE  C21018446   6.553   1.875   7.433  0.9529 -0.0019  0.9398
  164SAPE  H10R18447   6.594   1.789   7.490  0.0621  0.0520  1.6881
  164SAPE  H10S18448   6.485   1.838   7.354 -1.1144 -0.1991  2.7035
  164SAPE  C21118449   6.471   1.967   7.514 -0.2491  0.0516 -0.4018
  164SAPE  H11R18450   6.384   2.016   7.468 -0.6508 -0.0339  0.2494
  164SAPE  C21218451   6.493   1.995   7.642  0.4096 -0.2149 -0.1800
  164SAPE  H12R18452   6.423   2.060   7.697  1.1937  1.2872 -0.8804
  164SAPE  C21318453   6.606   1.942   7.729 -0.0493 -0.1765  0.1657
  164SAPE  H13R18454   6.687   2.016   7.713  0.5726 -0.9257 -0.1859
  164SAPE  H13S18455   6.637   1.844   7.688 -1.2481 -0.5922  0.2300
  164SAPE  C21418456   6.554   1.920   7.867  0.0890 -0.2636 -0.5584
  164SAPE  H14R18457   6.445   1.909   7.876  0.0556 -0.7668 -1.4201
  164SAPE  C21518458   6.621   1.915   7.983  0.0331  0.7944  0.0659
  164SAPE  H15R18459   6.565   1.880   8.070 -0.1475 -1.4727 -0.8840
  164SAPE  C21618460   6.777   1.926   7.989  0.5533  0.0536  0.2379
  164SAPE  H16R18461   6.821   1.909   7.889 -1.4282  2.9368 -1.2917
  164SAPE  H16S18462   6.815   1.856   8.066  1.2238  0.3706  0.1942
  164SAPE  C21718463   6.815   2.066   8.040  0.5232 -0.0356  0.0891
  164SAPE  H17R18464   6.765   2.152   7.990  1.3085  1.4086  1.7081
  164SAPE  H17S18465   6.918   2.083   8.004  0.2770 -2.0556 -1.8447
  164SAPE  C21818466   6.816   2.082   8.193 -0.4621 -0.0399 -0.3273
  164SAPE  H18R18467   6.874   1.995   8.229 -0.1710 -0.2232 -1.2197
  164SAPE  H18S18468   6.718   2.091   8.244  0.7264 -0.2498  2.1271
  164SAPE  C21918469   6.889   2.212   8.232  0.3088  0.9693  0.3249
  164SAPE  H19R18470   6.819   2.297   8.217  1.5701  1.8661 -0.6433
  164SAPE  H19S18471   6.964   2.231   8.153  0.6553  1.3831  0.7522
  164SAPE  C22018472   6.949   2.211   8.374 -0.7489  0.1828 -0.7216
  164SAPE  H20R18473   6.874   2.225   8.455 -0.8581 -1.5415 -0.4899
  164SAPE  H20S18474   7.023   2.292   8.390  0.7400 -1.5334  1.6991
  164SAPE  H20T18475   6.993   2.114   8.404 -0.6009  0.4060 -0.1976
  164SAPE   C3318476   6.928   1.744   6.876 -0.2482 -0.1993  0.1746
  164SAPE   H3X18477   6.847   1.817   6.856 -0.4300  0.1960  2.1069
  164SAPE   H3Y18478   7.009   1.753   6.801 -2.3831 -0.9220 -2.3508
  164SAPE   C3418479   6.977   1.751   7.017 -0.1461  0.3672  0.3981
  164SAPE   H4X18480   7.069   1.688   7.014 -0.3719  0.0415  0.2053
  164SAPE   H4Y18481   6.901   1.709   7.086 -1.2360 -0.9440 -1.5000
  164SAPE   C3518482   7.001   1.887   7.063 -0.2225 -0.6212  0.3536
  164SAPE   H5X18483   6.908   1.946   7.079 -0.0832  0.1165 -1.3505
  164SAPE   H5Y18484   7.060   1.951   6.994 -0.1148 -0.4004  0.6492
  164SAPE   C3618485   7.090   1.886   7.203  0.5572  0.2138  0.3931
  164SAPE   H6X18486   7.177   1.819   7.189 -0.5069 -0.7833 -1.9620
  164SAPE   H6Y18487   7.030   1.827   7.276  0.4481 -0.1771 -0.0124
  164SAPE   C3718488   7.112   2.015   7.275 -0.6764  0.1600  0.3138
  164SAPE   H7X18489   7.030   2.087   7.253  0.1758  0.7240 -1.2140
  164SAPE   H7Y18490   7.207   2.061   7.239  0.6115 -1.7553  1.1121
  164SAPE   C3818491   7.125   2.004   7.426 -0.1408 -0.7261 -0.3894
  164SAPE   H8X18492   7.040   1.965   7.487  0.9858  0.6312  2.2093
  164SAPE   H8Y18493   7.138   2.097   7.485 -2.5033 -1.5354  1.6084
  164SAPE   C3918494   7.253   1.915   7.458  0.1111  0.3580 -0.9928
  164SAPE   H9X18495   7.339   1.935   7.391  0.0082 -0.3919 -1.3656
  164SAPE   H9Y18496   7.216   1.812   7.438  0.2078  0.3646 -1.2050
  164SAPE  C31018497   7.294   1.936   7.608 -0.2424  0.5731 -0.1936
  164SAPE  H10X18498   7.302   2.044   7.632 -1.1078  0.9529 -1.5018
  164SAPE  H10Y18499   7.396   1.892   7.605  0.2099  1.3294 -5.1285
  164SAPE  C31118500   7.201   1.866   7.702 -0.0451 -0.3303  0.6779
  164SAPE  H11X18501   7.183   1.763   7.665  0.7627  0.5114 -2.3958
  164SAPE  H11Y18502   7.101   1.915   7.705  0.7279  1.2698  1.5917
  164SAPE  C31218503   7.233   1.866   7.846  0.6159 -0.0175 -0.0166
  164SAPE  H12X18504   7.265   1.970   7.868 -0.9515  0.3317  0.7341
  164SAPE  H12Y18505   7.324   1.805   7.863 -0.7477 -1.5534  2.3177
  164SAPE  C31318506   7.126   1.826   7.947  0.0038 -0.3173  0.3510
  164SAPE  H13X18507   7.085   1.725   7.922  0.3394 -0.6907  1.2495
  164SAPE  H13Y18508   7.045   1.901   7.938  0.0287 -0.5131 -1.8341
  164SAPE  C31418509   7.182   1.832   8.091  0.1143  0.7799 -0.5701
  164SAPE  H14X18510   7.269   1.765   8.074 -0.2005  0.4326 -0.8205
  164SAPE  H14Y18511   7.122   1.771   8.162  0.7284  1.5610  0.6636
  164SAPE  C31518512   7.214   1.972   8.157  0.1040  0.2485  0.1937
  164SAPE  H15X18513   7.118   2.028   8.151 -0.9163 -1.2269  1.5721
  164SAPE  H15Y18514   7.286   2.015   8.085 -2.9739 -2.3256 -4.9729
  164SAPE  C31618515   7.265   1.957   8.303  0.5392 -0.0311  0.0185
  164SAPE  H16X18516   7.313   1.857   8.301 -2.4212 -1.5633 -1.7806
  164SAPE  H16Y18517   7.181   1.953   8.375 -0.9106 -0.4399 -1.6289
  164SAPE  C31718518   7.363   2.066   8.339 -0.9857  0.6817  0.2421
  164SAPE  H17X18519   7.446   2.072   8.266 -0.6758 -0.0307  0.5293
  164SAPE  H17Y18520   7.404   2.027   8.434 -0.3105 -2.2619 -1.1250
  164SAPE  C31818521   7.310   2.212   8.342 -0.0361  0.3781 -0.3850
  164SAPE  H18X18522   7.232   2.211   8.421  2.2697 -0.1721  2.0391
  164SAPE  H18Y18523   7.277   2.248   8.242 -0.9357  1.0837  0.1541
  164SAPE  H18Z18524   7.395   2.268   8.386 -0.1220 -0.4000  0.8305
  165SAPE     N18525   6.572   5.458   6.359 -0.8185 -0.0668  0.2401
  165SAPE   HN118526   6.581   5.446   6.462  0.1845  0.4154  0.2207
  165SAPE   HN218527   6.527   5.548   6.335  1.7848  0.9288 -1.2902
  165SAPE   HN318528   6.520   5.376   6.321 -0.6641 -0.1794  0.2665
  165SAPE   C1218529   6.709   5.457   6.298  0.3955  0.0666  0.1645
  165SAPE  H12A18530   6.689   5.434   6.191 -1.8987 -0.3312  0.6158
  165SAPE  H12B18531   6.763   5.376   6.352  1.2863  0.6147  0.1173
  165SAPE   C1118532   6.773   5.599   6.303  0.8646  0.2246 -0.2499
  165SAPE  H11A18533   6.707   5.681   6.268 -0.4680 -0.5777  0.3108
  165SAPE  H11B18534   6.858   5.598   6.231 -1.7211  1.1687 -3.5719
  165SAPE     P18535   6.908   5.738   6.489 -0.0607  0.3157  0.1675
  165SAPE   O1318536   7.031   5.684   6.549  0.5432  0.5529  0.5492
  165SAPE   O1418537   6.935   5.823   6.371  0.1862  0.0900 -0.3037
  165SAPE   O1218538   6.822   5.620   6.436 -0.1860  0.1469 -0.5210
  165SAPE   O1118539   6.808   5.806   6.588 -0.6439 -0.2164  1.0828
  165SAPE    C118540   6.732   5.740   6.682 -0.2243  0.5134 -0.4251
  165SAPE    HA18541   6.636   5.712   6.632  0.3102 -1.2891 -0.5424
  165SAPE    HB18542   6.784   5.647   6.714 -0.4436  1.5446  3.4032
  165SAPE    C218543   6.704   5.819   6.813  0.3731  0.0603 -0.2357
  165SAPE    HS18544   6.672   5.922   6.787  0.2581  1.0210  3.1972
  165SAPE   O2118545   6.826   5.830   6.895  0.4469 -0.5897 -0.2494
  165SAPE   C2118546   6.805   5.914   6.995 -0.3534 -0.0354 -0.1389
  165SAPE   O2218547   6.711   5.986   7.017  0.2420 -0.4180  0.0724
  165SAPE   C2218548   6.931   5.915   7.081 -0.1731 -0.6497 -0.1453
  165SAPE   H2R18549   7.021   5.930   7.019  0.4583  0.1254  0.9238
  165SAPE   H2S18550   6.920   5.998   7.155  1.1342  0.6800 -1.3751
  165SAPE    C318551   6.590   5.747   6.888 -0.1121  0.2553  0.4104
  165SAPE    HX18552   6.512   5.718   6.815 -0.1317 -0.1373  0.5834
  165SAPE    HY18553   6.550   5.821   6.961 -0.1322  3.2871 -2.4675
  165SAPE   O3118554   6.649   5.629   6.951  0.2244  0.3181 -0.0255
  165SAPE   C3118555   6.610   5.597   7.077 -0.0125 -0.1115  0.1554
  165SAPE   O3218556   6.540   5.669   7.146 -0.2678 -0.3792  0.1071
  165SAPE   C3218557   6.641   5.453   7.111  0.3248  0.4951 -0.4661
  165SAPE   H2X18558   6.748   5.445   7.084  0.2036  0.8560 -1.0787
  165SAPE   H2Y18559   6.583   5.390   7.040  0.1089  1.1744 -0.8931
  165SAPE   C2318560   6.942   5.789   7.166  0.1247 -0.1413  0.6426
  165SAPE   H3R18561   6.961   5.696   7.109 -2.3726 -0.2139 -0.2116
  165SAPE   H3S18562   6.843   5.777   7.216  1.2839 -2.1257  2.6410
  165SAPE   C2418563   7.041   5.813   7.290  0.5980 -0.2138 -0.0065
  165SAPE   H4R18564   7.012   5.914   7.327 -1.9090 -0.6125 -0.7245
  165SAPE   H4S18565   7.149   5.802   7.263  0.1123 -0.1104 -2.2192
  165SAPE   C2518566   7.000   5.707   7.391  0.1529  0.4703  0.2842
  165SAPE   H5R18567   7.018   5.604   7.356 -5.1352 -1.0592  1.1742
  165SAPE   C2618568   6.937   5.725   7.510  0.5504 -0.3777  0.0991
  165SAPE   H6R18569   6.907   5.632   7.561 -0.2149  0.6584  1.5975
  165SAPE   C2718570   6.902   5.857   7.572  0.6379 -0.0806  1.0975
  165SAPE   H7R18571   6.988   5.925   7.552 -0.8036  1.1593 -1.4388
  165SAPE   H7S18572   6.883   5.851   7.681 -0.0566  2.1431  1.1387
  165SAPE   C2818573   6.776   5.916   7.500 -0.5286  0.3527 -0.3356
  165SAPE   H8R18574   6.765   5.891   7.393  2.9133 -2.6195 -0.1880
  165SAPE   C2918575   6.668   5.975   7.558  0.2394  0.2110  0.2345
  165SAPE   H9R18576   6.589   6.011   7.491 -1.4981 -1.9205  1.0333
  165SAPE  C21018577   6.648   6.004   7.705  0.2531  0.6407  0.0352
  165SAPE  H10R18578   6.595   6.100   7.724  1.0309  1.1445 -0.2639
  165SAPE  H10S18579   6.747   6.026   7.751 -1.0509  1.6036  2.5914
  165SAPE  C21118580   6.576   5.890   7.757 -0.2694  0.5092  0.3407
  165SAPE  H11R18581   6.532   5.817   7.688  1.7183  0.2298 -0.7063
  165SAPE  C21218582   6.556   5.865   7.889  0.7244  0.0104 -0.6092
  165SAPE  H12R18583   6.501   5.774   7.916  0.2006  0.5048  0.0296
  165SAPE  C21318584   6.604   5.962   7.999  0.0280  0.3948  0.5812
  165SAPE  H13R18585   6.514   6.027   8.000 -2.4736 -2.8096  2.2876
  165SAPE  H13S18586   6.687   6.027   7.962 -1.0360  0.0592 -2.7158
  165SAPE  C21418587   6.634   5.896   8.133 -0.2879 -0.3984  0.2455
  165SAPE  H14R18588   6.715   5.823   8.134 -0.2412 -0.3504  1.5885
  165SAPE  C21518589   6.567   5.903   8.247 -0.0156 -0.7450 -0.0306
  165SAPE  H15R18590   6.621   5.847   8.324  2.5488 -1.2094 -2.0298
  165SAPE  C21618591   6.446   5.985   8.279 -0.1234 -0.3168  0.2732
  165SAPE  H16R18592   6.363   5.911   8.284 -1.4672  0.9584 -1.5046
  165SAPE  H16S18593   6.422   6.033   8.181  0.5543  0.8510  0.6650
  165SAPE  C21718594   6.454   6.088   8.386  0.2392 -0.1225 -0.2252
  165SAPE  H17R18595   6.548   6.147   8.381 -0.9263  1.8144 -0.4037
  165SAPE  H17S18596   6.439   6.050   8.490  0.7833 -0.5133 -0.2875
  165SAPE  C21818597   6.345   6.196   8.369  0.2191 -0.0670 -0.1829
  165SAPE  H18R18598   6.334   6.238   8.267 -1.1936 -1.8194 -0.8166
  165SAPE  H18S18599   6.362   6.279   8.441 -1.3794  0.2295 -0.1118
  165SAPE  C21918600   6.210   6.142   8.412 -0.1828 -0.0586 -0.7099
  165SAPE  H19R18601   6.216   6.086   8.508  1.6599 -0.9780 -1.3114
  165SAPE  H19S18602   6.182   6.065   8.337  0.6869 -1.2231  0.1121
  165SAPE  C22018603   6.111   6.259   8.433  0.0896  0.1724  0.4326
  165SAPE  H20R18604   6.007   6.224   8.414 -0.7844  1.6004  2.2912
  165SAPE  H20S18605   6.121   6.336   8.354 -1.7326  0.9988  0.9587
  165SAPE  H20T18606   6.105   6.304   8.535  1.6666  1.0759  0.1499
  165SAPE   C3318607   6.611   5.434   7.271 -0.0158 -0.5421 -0.2760
  165SAPE   H3X18608   6.505   5.404   7.282 -0.6647  1.9078  0.9466
  165SAPE   H3Y18609   6.632   5.532   7.320  1.4722 -0.3400 -1.2294
  165SAPE   C3418610   6.712   5.343   7.325 -0.0563  0.4908 -1.0647
  165SAPE   H4X18611   6.815   5.385   7.329 -0.5387  1.7595  3.1947
  165SAPE   H4Y18612   6.708   5.260   7.251  0.0846  0.4220 -0.9965
  165SAPE   C3518613   6.687   5.297   7.475  1.1858 -0.1400  0.4209
  165SAPE   H5X18614   6.587   5.250   7.489 -0.0935  1.6208 -2.1189
  165SAPE   H5Y18615   6.683   5.391   7.535 -1.5181 -0.6795  1.2434
  165SAPE   C3618616   6.788   5.211   7.534 -0.5682  0.2714  0.2499
  165SAPE   H6X18617   6.876   5.275   7.551  0.1379 -0.3005 -1.1147
  165SAPE   H6Y18618   6.804   5.133   7.456 -1.6062 -0.0960  0.3812
  165SAPE   C3718619   6.739   5.154   7.668  0.2476 -0.2792 -0.2790
  165SAPE   H7X18620   6.647   5.093   7.666 -0.4607  0.7645 -0.5113
  165SAPE   H7Y18621   6.704   5.235   7.735 -1.2941 -1.6905  0.6881
  165SAPE   C3818622   6.846   5.080   7.747 -0.5715 -0.3302 -0.6557
  165SAPE   H8X18623   6.913   5.155   7.794 -0.0226 -1.9933  1.3905
  165SAPE   H8Y18624   6.898   5.015   7.673  0.3365 -0.4499  0.0623
  165SAPE   C3918625   6.784   4.997   7.864  0.4023 -0.3113 -0.7602
  165SAPE   H9X18626   6.701   4.931   7.831 -1.5195  0.5954  1.8986
  165SAPE   H9Y18627   6.737   5.073   7.929 -1.2466 -1.5116 -0.4932
  165SAPE  C31018628   6.886   4.938   7.953  0.2345 -0.5588  0.6375
  165SAPE  H10X18629   6.964   5.013   7.977 -0.0113 -0.4680  1.1618
  165SAPE  H10Y18630   6.927   4.853   7.894 -1.2480 -0.1110 -1.1394
  165SAPE  C31118631   6.826   4.891   8.080  0.3873 -0.8994  0.2386
  165SAPE  H11X18632   6.740   4.828   8.050 -1.2991  1.0524  0.6949
  165SAPE  H11Y18633   6.795   4.989   8.124  0.1829 -0.1346 -1.4850
  165SAPE  C31218634   6.924   4.813   8.172  0.4418 -0.5379  0.1563
  165SAPE  H12X18635   7.015   4.875   8.189  1.0746 -1.5487  0.5253
  165SAPE  H12Y18636   6.958   4.725   8.114 -1.8476 -1.7222  0.5146
  165SAPE  C31318637   6.879   4.781   8.314  0.4182 -0.6823  0.1977
  165SAPE  H13X18638   6.851   4.877   8.363 -0.3463  0.5866 -2.5397
  165SAPE  H13Y18639   6.967   4.737   8.366  1.3385 -0.7043 -1.3210
  165SAPE  C31418640   6.753   4.691   8.319 -0.1102 -0.3640  0.3788
  165SAPE  H14X18641   6.785   4.590   8.284 -2.7465 -1.4939  1.0005
  165SAPE  H14Y18642   6.678   4.712   8.240 -0.8084 -0.8636  0.9014
  165SAPE  C31518643   6.689   4.674   8.461  0.2121  0.9070 -0.2045
  165SAPE  H15X18644   6.600   4.608   8.455  0.3371  0.7911 -0.8560
  165SAPE  H15Y18645   6.651   4.770   8.502 -2.3393  0.2474 -0.7968
  165SAPE  C31618646   6.791   4.645   8.574 -0.6131  0.6595 -0.1528
  165SAPE  H16X18647   6.738   4.650   8.672  0.3686  0.1769  0.4229
  165SAPE  H16Y18648   6.872   4.720   8.572  0.4859 -0.4839 -2.0666
  165SAPE  C31718649   6.863   4.510   8.562  0.2012 -0.5093 -0.2831
  165SAPE  H17X18650   6.947   4.519   8.634  0.6590 -0.0554 -0.8705
  165SAPE  H17Y18651   6.900   4.493   8.459  0.8867 -1.1664  0.0550
  165SAPE  C31818652   6.775   4.389   8.604 -0.2550 -0.2384  0.5439
  165SAPE  H18X18653   6.835   4.296   8.621  1.3749  0.8127  0.7615
  165SAPE  H18Y18654   6.684   4.363   8.546 -1.4660  0.2571  2.1734
  165SAPE  H18Z18655   6.722   4.416   8.697 -1.1379  1.0875 -0.3079
  166SAPE     N18656   5.173   3.093   6.148  0.7709 -0.1908 -0.0435
  166SAPE   HN118657   5.107   3.143   6.086 -0.1467  0.2037  1.2044
  166SAPE   HN218658   5.121   3.087   6.238 -2.2200  1.9248 -1.4522
  166SAPE   HN318659   5.262   3.145   6.162 -0.8117  3.2219 -1.5925
  166SAPE   C1218660   5.196   2.943   6.104  0.6402 -0.5880  0.2789
  166SAPE  H12A18661   5.207   2.948   5.993  1.4380  1.5353  0.3947
  166SAPE  H12B18662   5.107   2.887   6.139 -0.8058  1.6410  0.3468
  166SAPE   C1118663   5.324   2.880   6.167 -0.0569  0.7422 -0.7679
  166SAPE  H11A18664   5.332   2.781   6.118  1.1540  1.7826 -2.8319
  166SAPE  H11B18665   5.319   2.877   6.278 -0.5125 -0.3358 -0.8049
  166SAPE     P18666   5.584   2.907   6.106  0.0843 -0.2420  0.0022
  166SAPE   O1318667   5.577   2.851   5.973 -0.5873  0.5866  0.0034
  166SAPE   O1418668   5.687   3.008   6.132  0.4557  0.4116  0.1252
  166SAPE   O1218669   5.444   2.962   6.148 -0.0895 -0.2120  0.1189
  166SAPE   O1118670   5.600   2.799   6.216 -0.4095  0.6871 -0.1308
  166SAPE    C118671   5.607   2.659   6.165 -0.1076 -0.8362  0.1958
  166SAPE    HA18672   5.506   2.634   6.124 -0.4329  1.8562 -0.8582
  166SAPE    HB18673   5.684   2.649   6.086 -0.3252  0.1194 -0.1519
  166SAPE    C218674   5.630   2.565   6.281 -0.7962  0.0464  0.5390
  166SAPE    HS18675   5.581   2.466   6.267 -2.5371  0.3172  3.6823
  166SAPE   O2118676   5.580   2.620   6.406  0.3363  0.0012  0.5782
  166SAPE   C2118677   5.443   2.616   6.413 -0.5117  0.1120 -0.8223
  166SAPE   O2218678   5.365   2.574   6.331 -0.2039  0.5622  0.2151
  166SAPE   C2218679   5.411   2.706   6.529 -0.6237 -0.0665  0.1522
  166SAPE   H2R18680   5.479   2.792   6.546 -0.1346 -0.4485  0.1323
  166SAPE   H2S18681   5.316   2.749   6.492 -0.2251 -0.0860 -0.9252
  166SAPE    C318682   5.784   2.526   6.299  1.0262 -0.4307 -0.2316
  166SAPE    HX18683   5.839   2.620   6.320  0.4762 -0.0457 -0.4884
  166SAPE    HY18684   5.821   2.488   6.201  1.9781  1.9301 -0.8383
  166SAPE   O3118685   5.805   2.421   6.403  0.7963 -0.1439  0.5430
  166SAPE   C3118686   5.918   2.428   6.473 -0.5189 -0.2545  0.2732
  166SAPE   O3218687   6.020   2.491   6.443 -0.0144  0.3217 -0.4894
  166SAPE   C3218688   5.906   2.335   6.597 -0.6312 -0.5676  0.1650
  166SAPE   H2X18689   6.011   2.333   6.631  0.2028  0.2526 -2.1506
  166SAPE   H2Y18690   5.858   2.238   6.573 -0.9334 -0.6196  0.9755
  166SAPE   C2318691   5.380   2.637   6.662 -0.5003  0.0047  0.1569
  166SAPE   H3R18692   5.473   2.587   6.695 -0.8639  0.7325  2.5073
  166SAPE   H3S18693   5.306   2.554   6.652 -2.1360  1.0424  2.4770
  166SAPE   C2418694   5.332   2.737   6.768 -0.9140  0.1067  0.2664
  166SAPE   H4R18695   5.239   2.789   6.735 -0.7070  2.3487  2.8006
  166SAPE   H4S18696   5.410   2.815   6.779 -1.3588  0.8308 -1.4096
  166SAPE   C2518697   5.299   2.667   6.900  0.2239  0.0848 -0.4788
  166SAPE   H5R18698   5.362   2.585   6.938 -2.4498 -2.2535 -0.6990
  166SAPE   C2618699   5.193   2.697   6.979 -0.6660 -0.1866 -0.1277
  166SAPE   H6R18700   5.178   2.625   7.061 -1.5831  1.1358  0.9211
  166SAPE   C2718701   5.088   2.799   6.958 -0.5732 -0.0149  0.4150
  166SAPE   H7R18702   5.017   2.797   7.044  0.6369 -2.5883  1.4355
  166SAPE   H7S18703   5.024   2.792   6.867 -0.7330  2.0021  0.3204
  166SAPE   C2818704   5.150   2.939   6.942 -0.5705  0.0538 -0.1163
  166SAPE   H8R18705   5.125   2.983   6.845  2.6357  4.0596  0.6230
  166SAPE   C2918706   5.208   3.023   7.033  0.3938 -0.6782  0.8561
  166SAPE   H9R18707   5.235   3.126   7.006 -0.2448 -0.8717 -0.5955
  166SAPE  C21018708   5.225   2.991   7.177  0.1774  0.2796  0.3507
  166SAPE  H10R18709   5.207   2.886   7.206  0.1222  0.4912  1.1079
  166SAPE  H10S18710   5.150   3.053   7.233 -0.3586 -0.1022  0.0636
  166SAPE  C21118711   5.366   3.022   7.218  0.1737  0.5359 -0.2659
  166SAPE  H11R18712   5.440   2.999   7.140  0.3566 -0.0085  0.0593
  166SAPE  C21218713   5.407   3.046   7.340 -0.7023 -0.1688 -0.2496
  166SAPE  H12R18714   5.514   3.062   7.357 -0.8536  1.0951 -0.3989
  166SAPE  C21318715   5.319   3.054   7.465 -0.2311 -0.6635 -0.0848
  166SAPE  H13R18716   5.375   2.999   7.543  0.3686 -0.8766 -0.6487
  166SAPE  H13S18717   5.232   2.985   7.458 -0.7609 -0.0178  0.0415
  166SAPE  C21418718   5.265   3.190   7.502 -0.8824  0.0058  0.2432
  166SAPE  H14R18719   5.232   3.252   7.417 -0.3615  1.1393  0.8506
  166SAPE  C21518720   5.261   3.245   7.627 -0.0427  0.1880  0.8896
  166SAPE  H15R18721   5.224   3.347   7.645 -1.2880 -0.3146  1.2301
  166SAPE  C21618722   5.310   3.188   7.756  0.2330 -0.0802 -0.1577
  166SAPE  H16R18723   5.329   3.270   7.828 -0.2631  0.7493 -0.9424
  166SAPE  H16S18724   5.406   3.135   7.744  0.4763  0.2353  0.3468
  166SAPE  C21718725   5.213   3.094   7.824 -0.4011  0.1434  0.7681
  166SAPE  H17R18726   5.222   3.001   7.765  0.8351 -0.0792  1.2850
  166SAPE  H17S18727   5.112   3.140   7.828 -1.0058 -0.7911 -1.9033
  166SAPE  C21818728   5.260   3.062   7.966 -0.2946 -0.1280 -0.0847
  166SAPE  H18R18729   5.291   3.156   8.016 -1.6852 -0.3523  1.2803
  166SAPE  H18S18730   5.349   2.997   7.968 -0.8334 -0.9350  3.4484
  166SAPE  C21918731   5.153   2.989   8.040  0.6853 -0.4441 -0.2779
  166SAPE  H19R18732   5.054   3.037   8.035  0.0498 -1.6881 -0.0894
  166SAPE  H19S18733   5.180   2.999   8.147  0.0863 -1.0878 -0.0575
  166SAPE  C22018734   5.144   2.837   8.005  0.7970 -0.2643  0.1278
  166SAPE  H20R18735   5.067   2.817   7.927  0.3307  0.2505  0.4520
  166SAPE  H20S18736   5.106   2.784   8.095  0.8652 -0.6841 -0.0900
  166SAPE  H20T18737   5.239   2.790   7.973  0.2678 -1.8884  0.8070
  166SAPE   C3318738   5.823   2.399   6.718  0.1897  0.2659 -0.5324
  166SAPE   H3X18739   5.764   2.486   6.679  0.7003  0.4548 -0.8972
  166SAPE   H3Y18740   5.899   2.423   6.795  1.9471  0.2713 -2.1906
  166SAPE   C3418741   5.736   2.296   6.782 -0.2093  0.7992  0.2898
  166SAPE   H4X18742   5.795   2.205   6.807 -2.8670 -1.3743 -0.8623
  166SAPE   H4Y18743   5.664   2.268   6.703  0.1898 -1.7624  0.7328
  166SAPE   C3518744   5.662   2.349   6.910  0.4732  0.9581  0.3489
  166SAPE   H5X18745   5.575   2.281   6.925  1.3697  0.1075  1.9086
  166SAPE   H5Y18746   5.617   2.448   6.886  1.1805  1.0343 -0.7605
  166SAPE   C3618747   5.739   2.347   7.038  0.2883  0.2296 -0.4641
  166SAPE   H6X18748   5.674   2.413   7.100 -0.1556  0.1627 -0.8502
  166SAPE   H6Y18749   5.824   2.417   7.023 -0.8480  1.7713  0.0139
  166SAPE   C3718750   5.775   2.208   7.096 -0.4051 -0.4172  0.3408
  166SAPE   H7X18751   5.842   2.174   7.013 -1.5640  0.6074 -1.0763
  166SAPE   H7Y18752   5.684   2.144   7.102  0.8789 -2.2085  1.9148
  166SAPE   C3818753   5.837   2.206   7.238 -0.1210 -0.4593 -0.7112
  166SAPE   H8X18754   5.915   2.285   7.233  0.0743 -0.7323 -3.7805
  166SAPE   H8Y18755   5.887   2.108   7.258 -0.3091 -0.3947  0.1002
  166SAPE   C3918756   5.740   2.227   7.356  0.2902  0.4285 -0.0738
  166SAPE   H9X18757   5.669   2.142   7.361 -0.3995  1.0536  1.6731
  166SAPE   H9Y18758   5.677   2.316   7.333 -0.4996  0.0984  0.7313
  166SAPE  C31018759   5.802   2.257   7.492  0.7610  0.0519  0.3724
  166SAPE  H10X18760   5.882   2.333   7.482  0.4004  0.3210 -0.7325
  166SAPE  H10Y18761   5.854   2.169   7.535 -0.7598  0.2402  2.7525
  166SAPE  C31118762   5.692   2.306   7.589  0.2616  0.0677  0.2391
  166SAPE  H11X18763   5.627   2.225   7.629  1.6278 -0.6846  1.0536
  166SAPE  H11Y18764   5.639   2.384   7.530 -0.4499 -0.0302  0.7316
  166SAPE  C31218765   5.742   2.364   7.723 -0.4698 -0.6572  0.6802
  166SAPE  H12X18766   5.818   2.438   7.692 -1.0157 -1.1136 -2.0367
  166SAPE  H12Y18767   5.787   2.286   7.788 -0.7600  0.4595  2.2927
  166SAPE  C31318768   5.620   2.421   7.798  0.4100  0.0447 -0.0066
  166SAPE  H13X18769   5.559   2.477   7.724 -0.3102 -1.3140 -0.4904
  166SAPE  H13Y18770   5.665   2.500   7.861  0.2244 -0.0261  0.2158
  166SAPE  C31418771   5.543   2.322   7.879  0.6209  0.5558  0.6003
  166SAPE  H14X18772   5.622   2.273   7.940  0.2544  0.2998  0.8819
  166SAPE  H14Y18773   5.494   2.238   7.824 -0.4618  1.2421  0.4930
  166SAPE  C31518774   5.427   2.388   7.964 -0.5274  0.4193  0.2370
  166SAPE  H15X18775   5.348   2.403   7.888 -1.3772 -0.7111  0.8583
  166SAPE  H15Y18776   5.468   2.485   8.001  1.9079 -0.9407  1.3622
  166SAPE  C31618777   5.375   2.292   8.075 -0.4987  0.1617 -0.7532
  166SAPE  H16X18778   5.361   2.187   8.041  1.4085  0.2049 -1.8274
  166SAPE  H16Y18779   5.277   2.324   8.115 -0.0515 -1.1742  1.5750
  166SAPE  C31718780   5.480   2.273   8.192  0.1124 -0.3038 -0.3837
  166SAPE  H17X18781   5.512   2.368   8.239  0.4345 -0.5488 -0.1014
  166SAPE  H17Y18782   5.569   2.229   8.142 -0.3036  0.5599 -1.9511
  166SAPE  C31818783   5.426   2.176   8.299 -0.5567  0.4454  0.1721
  166SAPE  H18X18784   5.485   2.178   8.394 -0.5975 -0.3052  0.2199
  166SAPE  H18Y18785   5.440   2.072   8.262  0.3445  0.7980 -0.5112
  166SAPE  H18Z18786   5.321   2.192   8.333 -0.4023 -2.1610  2.1871
  167SAPE     N18787   0.253   1.281   5.938  0.1873 -0.8047  0.2325
  167SAPE   HN118788   0.355   1.284   5.959 -0.3714  1.7219  3.3161
  167SAPE   HN218789   0.220   1.183   5.936  0.0117 -0.7478 -1.5754
  167SAPE   HN318790   0.242   1.318   5.841  2.2611  0.4494  0.4120
  167SAPE   C1218791   0.171   1.366   6.041  0.4434 -0.2504 -0.1650
  167SAPE  H12A18792   0.062   1.361   6.021  0.1369  2.3172  0.4524
  167SAPE  H12B18793   0.198   1.470   6.014  0.5546 -0.5206 -1.1056
  167SAPE   C1118794   0.204   1.330   6.189 -0.1542 -0.3924 -0.2173
  167SAPE  H11A18795   0.160   1.230   6.210  1.8974 -0.6836  3.6313
  167SAPE  H11B18796   0.157   1.411   6.248 -1.8043  0.4454 -2.5357
  167SAPE     P18797   0.433   1.433   6.278 -0.8648 -0.2967 -0.1024
  167SAPE   O1318798   0.563   1.378   6.321 -0.4148 -0.3858 -0.0266
  167SAPE   O1418799   0.442   1.541   6.175 -0.4414  0.2407 -0.2586
  167SAPE   O1218800   0.343   1.320   6.222 -0.1392 -0.3930 -0.3358
  167SAPE   O1118801   0.354   1.481   6.412  0.0693 -0.4947 -0.0457
  167SAPE    C118802   0.321   1.616   6.430  0.0626 -0.6333  0.0847
  167SAPE    HA18803   0.296   1.656   6.329 -0.1039 -2.3210 -0.5881
  167SAPE    HB18804   0.232   1.622   6.497  1.2271 -2.9579  1.9877
  167SAPE    C218805   0.442   1.686   6.498  0.0025  0.2281 -0.2029
  167SAPE    HS18806   0.536   1.649   6.453  0.0493  0.3658 -0.2194
  167SAPE   O2118807   0.440   1.650   6.638  1.4016 -0.6264  0.1463
  167SAPE   C2118808   0.551   1.651   6.702 -0.0480  0.2819  0.2515
  167SAPE   O2218809   0.654   1.705   6.668 -0.5862  0.4413 -0.2243
  167SAPE   C2218810   0.536   1.556   6.817 -0.0646  0.2978  0.6829
  167SAPE   H2R18811   0.454   1.588   6.885  0.5552  0.9736  1.1295
  167SAPE   H2S18812   0.493   1.468   6.766  1.2236  0.9289 -1.6170
  167SAPE    C318813   0.436   1.840   6.479 -0.2027  0.1651 -0.8917
  167SAPE    HX18814   0.455   1.866   6.372  1.7924  1.9605 -0.1613
  167SAPE    HY18815   0.516   1.889   6.538 -2.3975  0.7969  1.7610
  167SAPE   O3118816   0.304   1.899   6.524  0.1511  0.2235  0.3393
  167SAPE   C3118817   0.310   1.955   6.644  0.8131  0.2295  0.2603
  167SAPE   O3218818   0.384   1.934   6.734  0.1938  0.3467  0.6297
  167SAPE   C3218819   0.194   2.051   6.655 -0.3973 -0.4730 -0.2190
  167SAPE   H2X18820   0.099   2.006   6.694 -1.2813  0.9137 -0.7064
  167SAPE   H2Y18821   0.184   2.100   6.556  1.8238 -1.1031 -0.8142
  167SAPE   C2318822   0.671   1.534   6.891  0.4144  0.4406 -0.1041
  167SAPE   H3R18823   0.754   1.514   6.821 -0.9082 -0.8054 -1.4051
  167SAPE   H3S18824   0.671   1.444   6.956 -0.7737  1.0232  0.7657
  167SAPE   C2418825   0.703   1.653   6.987 -0.0480  0.1341  0.4558
  167SAPE   H4R18826   0.609   1.691   7.032 -0.2158 -1.0774  1.1842
  167SAPE   H4S18827   0.728   1.739   6.921  0.0351 -0.7746 -0.7497
  167SAPE   C2518828   0.810   1.622   7.087 -0.0269  0.2560 -0.4582
  167SAPE   H5R18829   0.914   1.623   7.049  0.6918  0.8822  1.3854
  167SAPE   C2618830   0.783   1.589   7.218 -0.3546 -0.3911  0.4220
  167SAPE   H6R18831   0.870   1.582   7.285  0.6013 -1.2760 -0.8758
  167SAPE   C2718832   0.651   1.568   7.287 -0.6287  0.0348 -0.1570
  167SAPE   H7R18833   0.572   1.579   7.210  0.7882 -0.4899 -1.7709
  167SAPE   H7S18834   0.636   1.642   7.368  1.0539  0.4251 -0.1587
  167SAPE   C2818835   0.635   1.424   7.319 -0.1433 -0.0995  0.5105
  167SAPE   H8R18836   0.651   1.364   7.229 -0.3445  1.9225 -0.9186
  167SAPE   C2918837   0.615   1.366   7.438  0.1076  0.0008  0.5059
  167SAPE   H9R18838   0.627   1.256   7.445  0.8803  0.0742  0.4586
  167SAPE  C21018839   0.605   1.434   7.568  0.8391  0.2885  0.1924
  167SAPE  H10R18840   0.502   1.417   7.606  1.1061  1.0251  1.2993
  167SAPE  H10S18841   0.615   1.543   7.551  1.8023  0.4282  1.4539
  167SAPE  C21118842   0.695   1.392   7.683  0.3842  0.4649  0.4783
  167SAPE  H11R18843   0.793   1.355   7.651  0.1898  1.7236 -1.7716
  167SAPE  C21218844   0.668   1.391   7.812 -0.6831 -0.5875  0.3695
  167SAPE  H12R18845   0.742   1.353   7.884 -0.2469 -3.7570 -1.5348
  167SAPE  C21318846   0.533   1.446   7.865 -0.3625 -0.6460  0.1114
  167SAPE  H13R18847   0.456   1.370   7.842 -2.1596  1.4926 -1.4108
  167SAPE  H13S18848   0.500   1.537   7.810  0.0028 -1.2622 -1.1649
  167SAPE  C21418849   0.529   1.479   8.012  0.2632  0.0456 -0.7087
  167SAPE  H14R18850   0.562   1.581   8.035  0.2720  0.1905 -1.3229
  167SAPE  C21518851   0.507   1.409   8.123  0.3722  0.8203 -0.1851
  167SAPE  H15R18852   0.535   1.454   8.219  1.2814  0.4433 -0.2560
  167SAPE  C21618853   0.479   1.259   8.119  0.0266  0.4036 -1.0898
  167SAPE  H16R18854   0.563   1.217   8.178 -1.4849 -0.5680  0.4463
  167SAPE  H16S18855   0.496   1.218   8.017  1.9424 -0.3907 -0.4895
  167SAPE  C21718856   0.343   1.220   8.176 -0.4789  0.0522 -0.1461
  167SAPE  H17R18857   0.269   1.255   8.101  0.8203  1.5095 -0.8074
  167SAPE  H17S18858   0.319   1.271   8.272 -0.7979  1.0243 -0.7282
  167SAPE  C21818859   0.322   1.076   8.188 -0.3315 -0.0926 -0.2803
  167SAPE  H18R18860   0.359   1.023   8.098  0.6278 -0.8189  0.5182
  167SAPE  H18S18861   0.218   1.036   8.178  0.4603 -2.3377 -0.2255
  167SAPE  C21918862   0.402   1.010   8.309 -0.0848 -0.3346  0.2214
  167SAPE  H19R18863   0.372   1.066   8.401  1.9883  1.1082  0.0699
  167SAPE  H19S18864   0.509   1.020   8.285  0.8764  0.5344  4.0809
  167SAPE  C22018865   0.360   0.866   8.308 -0.0217 -0.4009 -0.2203
  167SAPE  H20R18866   0.372   0.817   8.210  0.2226 -3.3651  1.1812
  167SAPE  H20S18867   0.253   0.845   8.326 -0.0887 -0.2922 -0.4872
  167SAPE  H20T18868   0.412   0.806   8.386  0.3829  0.7978  0.4641
  167SAPE   C3318869   0.224   2.164   6.765 -0.1464  0.1422 -0.2803
  167SAPE   H3X18870   0.323   2.208   6.744 -0.6962  2.3905  1.4548
  167SAPE   H3Y18871   0.238   2.113   6.863 -0.0071  0.8220  0.0597
  167SAPE   C3418872   0.122   2.268   6.784  0.4596 -0.7505  0.7792
  167SAPE   H4X18873   0.021   2.223   6.774 -0.2566  1.1349 -0.9767
  167SAPE   H4Y18874   0.132   2.343   6.703 -4.8364  0.8334  1.2165
  167SAPE   C3518875   0.106   2.353   6.911  0.6272 -0.3947 -1.4078
  167SAPE   H5X18876   0.024   2.422   6.880  1.0510 -0.5431 -2.9321
  167SAPE   H5Y18877   0.192   2.421   6.932 -1.3991  1.7370  0.6013
  167SAPE   C3618878   0.081   2.292   7.047  0.4354  0.2845  0.0930
  167SAPE   H6X18879   0.176   2.241   7.075 -0.0516 -0.9364 -0.4095
  167SAPE   H6Y18880  -0.007   2.223   7.047 -1.0634  2.0984  1.3931
  167SAPE   C3718881   0.055   2.404   7.158 -0.1894  0.9159  1.2191
  167SAPE   H7X18882  -0.026   2.468   7.116 -0.5618 -0.0394  0.4405
  167SAPE   H7Y18883   0.149   2.456   7.185  2.1339 -3.0539  1.6084
  167SAPE   C3818884   0.009   2.338   7.287  0.3169 -0.3902  0.4960
  167SAPE   H8X18885   0.085   2.264   7.319  0.5718 -2.5580 -4.2226
  167SAPE   H8Y18886  -0.084   2.284   7.259  1.4003 -1.9557 -0.2060
  167SAPE   C3918887  -0.005   2.447   7.388  0.1875 -0.6288 -0.2172
  167SAPE   H9X18888  -0.083   2.519   7.355 -0.6325 -1.3972  0.0276
  167SAPE   H9Y18889   0.087   2.507   7.408 -0.6245  0.1855  1.2520
  167SAPE  C31018890  -0.038   2.387   7.523 -0.6707  0.0426 -0.1728
  167SAPE  H10X18891   0.041   2.315   7.552  0.9739  1.7451 -0.2733
  167SAPE  H10Y18892  -0.128   2.321   7.517  0.4434 -1.4625 -0.9245
  167SAPE  C31118893  -0.058   2.504   7.620 -0.2418 -0.3177 -0.5027
  167SAPE  H11X18894  -0.142   2.567   7.581  0.9584  1.2956 -0.5798
  167SAPE  H11Y18895   0.029   2.573   7.618 -1.2235  0.9813 -0.3751
  167SAPE  C31218896  -0.090   2.450   7.762 -0.6233 -0.6376 -0.7971
  167SAPE  H12X18897  -0.016   2.376   7.796  0.5425  1.1510  0.7332
  167SAPE  H12Y18898  -0.191   2.403   7.756 -2.5966  2.8296  1.5229
  167SAPE  C31318899  -0.101   2.567   7.868 -0.4639 -0.6733 -0.0314
  167SAPE  H13X18900  -0.183   2.638   7.845 -0.7251 -0.7968  0.4859
  167SAPE  H13Y18901  -0.011   2.628   7.849 -2.2774  1.8411 -1.1949
  167SAPE  C31418902  -0.106   2.513   8.018  0.1807 -0.1312  0.3208
  167SAPE  H14X18903  -0.031   2.430   8.013  1.5407  1.0814  0.0705
  167SAPE  H14Y18904  -0.202   2.463   8.042  0.9518 -2.2210 -0.6658
  167SAPE  C31518905  -0.080   2.620   8.120 -0.8219 -0.8278  0.0232
  167SAPE  H15X18906  -0.141   2.710   8.098  0.7010  0.3713  0.5368
  167SAPE  H15Y18907   0.019   2.662   8.093 -0.9176 -0.9116 -0.4744
  167SAPE  C31618908  -0.068   2.591   8.261 -0.2027 -0.2005 -0.1284
  167SAPE  H16X18909  -0.027   2.673   8.324 -1.1807  1.1505 -1.1925
  167SAPE  H16Y18910   0.002   2.506   8.273 -0.3164 -0.1271  1.2905
  167SAPE  C31718911  -0.198   2.532   8.318  0.4555 -0.7719 -0.2269
  167SAPE  H17X18912  -0.216   2.431   8.275  0.9329 -0.0986 -2.0736
  167SAPE  H17Y18913  -0.278   2.601   8.283  0.8677  0.2462  0.7776
  167SAPE  C31818914  -0.214   2.514   8.469 -0.8140  0.1018 -0.0786
  167SAPE  H18X18915  -0.128   2.459   8.512 -1.4121  1.0506  2.5249
  167SAPE  H18Y18916  -0.304   2.459   8.503 -1.0079  1.5507  1.9490
  167SAPE  H18Z18917  -0.219   2.609   8.527  1.1562  0.2157 -0.0087
  168SAPE     N18918   2.034   3.517   6.293  0.0553  0.5503  0.9037
  168SAPE   HN118919   2.082   3.437   6.248 -3.7040 -0.7223 -1.3654
  168SAPE   HN218920   1.945   3.485   6.337 -1.2157  1.3356 -0.9866
  168SAPE   HN318921   1.997   3.585   6.224  1.1520  0.0176 -0.2420
  168SAPE   C1218922   2.112   3.583   6.401  0.3190 -0.2319 -0.0184
  168SAPE  H12A18923   2.200   3.635   6.357 -0.1546  1.5934  1.0734
  168SAPE  H12B18924   2.142   3.503   6.472  1.1702  1.0585  1.1298
  168SAPE   C1118925   2.026   3.682   6.489 -0.9033  0.0992 -0.0012
  168SAPE  H11A18926   2.099   3.739   6.550 -1.3450  1.5714 -0.7776
  168SAPE  H11B18927   1.961   3.628   6.561  3.2896 -1.9548  2.6497
  168SAPE     P18928   1.940   3.916   6.437  0.5939 -0.0324  0.2286
  168SAPE   O1318929   2.068   3.982   6.404  0.3561  0.1247 -0.6262
  168SAPE   O1418930   1.822   3.979   6.375 -0.5572 -0.1232  0.0093
  168SAPE   O1218931   1.954   3.760   6.401  0.1456  0.0056  0.3176
  168SAPE   O1118932   1.906   3.913   6.586  0.1370 -0.4802  0.2072
  168SAPE    C118933   1.991   3.987   6.671 -0.2211 -0.2630  0.0777
  168SAPE    HA18934   2.096   3.951   6.660 -0.4987 -2.1439  2.6397
  168SAPE    HB18935   1.987   4.096   6.653 -0.8615 -0.3170 -0.1288
  168SAPE    C218936   1.950   3.967   6.817  0.0056 -0.0305  0.0045
  168SAPE    HS18937   1.848   4.010   6.821  0.0565 -0.0258  1.8593
  168SAPE   O2118938   2.036   4.045   6.902  0.1499 -0.0516 -0.4521
  168SAPE   C2118939   1.999   4.169   6.931 -0.0986 -0.3464  0.5205
  168SAPE   O2218940   1.916   4.238   6.870 -0.7119  0.4180 -0.5196
  168SAPE   C2218941   2.068   4.215   7.056  0.4319 -0.1992  0.0506
  168SAPE   H2R18942   2.144   4.138   7.082  1.8240  0.1885 -2.5297
  168SAPE   H2S18943   2.137   4.297   7.028  2.2664 -1.0180  1.9725
  168SAPE    C318944   1.944   3.809   6.855  0.0623  0.1805 -0.2609
  168SAPE    HX18945   2.043   3.768   6.826 -0.1850 -0.0379 -0.7961
  168SAPE    HY18946   1.865   3.765   6.791  1.0023 -0.3513 -1.0744
  168SAPE   O3118947   1.930   3.785   6.997  0.1033  0.0132  0.0348
  168SAPE   C3118948   1.809   3.798   7.049  0.3638 -0.0068 -0.1226
  168SAPE   O3218949   1.705   3.795   6.985 -0.2221 -0.0048 -0.5093
  168SAPE   C3218950   1.824   3.827   7.193  0.3558  0.4441 -0.1849
  168SAPE   H2X18951   1.895   3.912   7.195  0.6709  0.2588 -2.0800
  168SAPE   H2Y18952   1.869   3.736   7.238 -1.3182 -0.6547 -0.6350
  168SAPE   C2318953   1.970   4.236   7.173  0.2600  0.0095 -1.0100
  168SAPE   H3R18954   1.901   4.151   7.160  1.0761 -0.6595 -1.0971
  168SAPE   H3S18955   1.896   4.316   7.154 -1.5240 -1.4590 -0.5314
  168SAPE   C2418956   2.042   4.237   7.310  0.2333 -0.2946 -0.0043
  168SAPE   H4R18957   2.101   4.331   7.316 -0.0084  0.1371 -2.9633
  168SAPE   H4S18958   2.110   4.149   7.310 -1.2767 -1.4907  0.0012
  168SAPE   C2518959   1.950   4.243   7.432 -0.3673 -0.1495 -0.2081
  168SAPE   H5R18960   1.899   4.339   7.451  0.3098  0.1454  0.1680
  168SAPE   C2618961   1.955   4.154   7.528 -0.3639  0.2048  0.6678
  168SAPE   H6R18962   1.890   4.165   7.617  0.3661  1.5118  1.0541
  168SAPE   C2718963   2.030   4.020   7.534  0.8706 -0.0705 -0.6961
  168SAPE   H7R18964   2.112   4.034   7.607 -0.4427  0.3600  0.7646
  168SAPE   H7S18965   2.077   4.002   7.436  0.5660  3.2480 -1.5723
  168SAPE   C2818966   1.936   3.906   7.576 -0.3395  0.6788  0.0981
  168SAPE   H8R18967   1.920   3.827   7.501  0.0887  1.6395 -1.0469
  168SAPE   C2918968   1.884   3.890   7.698 -0.5517  0.4203 -0.6753
  168SAPE   H9R18969   1.819   3.804   7.717  0.9174 -0.3502  1.1269
  168SAPE  C21018970   1.915   3.981   7.816  0.0094 -0.0226  0.5995
  168SAPE  H10R18971   1.981   4.062   7.779 -0.8251  0.1123 -0.6613
  168SAPE  H10S18972   1.974   3.926   7.892  2.0480 -0.7178 -1.3523
  168SAPE  C21118973   1.791   4.039   7.886 -0.2146  0.2397  0.7873
  168SAPE  H11R18974   1.690   4.027   7.846 -0.3496  1.5322  0.6701
  168SAPE  C21218975   1.798   4.107   8.005 -0.5868 -0.7018  0.2570
  168SAPE  H12R18976   1.701   4.120   8.056 -0.7932 -0.3019 -0.2273
  168SAPE  C21318977   1.922   4.133   8.089  0.0817 -0.1174  0.3439
  168SAPE  H13R18978   2.015   4.130   8.028  0.0650  0.0365  0.3124
  168SAPE  H13S18979   1.928   4.048   8.161  0.3207 -1.3244 -1.0387
  168SAPE  C21418980   1.912   4.267   8.159  0.1736  1.2647  0.0047
  168SAPE  H14R18981   1.957   4.350   8.102  0.0717  1.1152 -0.2950
  168SAPE  C21518982   1.866   4.287   8.284  0.0741 -0.3465 -0.0330
  168SAPE  H15R18983   1.885   4.386   8.328 -0.0815 -1.3819  2.5541
  168SAPE  C21618984   1.803   4.193   8.382  0.4592  0.4631 -0.6253
  168SAPE  H16R18985   1.773   4.102   8.325  1.2009  0.2036 -0.6119
  168SAPE  H16S18986   1.706   4.231   8.419  0.6771 -0.2158  0.6711
  168SAPE  C21718987   1.893   4.153   8.499  0.2729 -0.0092 -0.1632
  168SAPE  H17R18988   1.996   4.124   8.467 -0.5902 -2.5639 -0.8397
  168SAPE  H17S18989   1.844   4.062   8.538 -0.1229 -0.1264 -0.9294
  168SAPE  C21818990   1.890   4.247   8.623 -0.1856  0.1282  0.4756
  168SAPE  H18R18991   1.946   4.341   8.606 -2.6966  1.1440 -3.6817
  168SAPE  H18S18992   1.939   4.192   8.706 -0.0566  0.0133  0.3241
  168SAPE  C21918993   1.752   4.290   8.673 -0.3846 -0.1401 -0.3921
  168SAPE  H19R18994   1.678   4.211   8.645 -0.0961 -0.6399  0.2510
  168SAPE  H19S18995   1.724   4.382   8.619 -0.6518  0.5041  0.8169
  168SAPE  C22018996   1.748   4.306   8.825  0.5140 -0.5645 -1.1181
  168SAPE  H20R18997   1.646   4.342   8.851  0.8262 -0.0870 -0.5305
  168SAPE  H20S18998   1.817   4.388   8.855  0.8704 -1.5590  0.9456
  168SAPE  H20T18999   1.766   4.208   8.874 -0.9730 -0.3324 -0.0516
  168SAPE   C3319000   1.697   3.854   7.275 -0.2724 -0.9950  0.1177
  168SAPE   H3X19001   1.645   3.936   7.222  0.4614 -1.3003 -1.1114
  168SAPE   H3Y19002   1.736   3.888   7.374  1.3372 -1.4535 -0.3201
  168SAPE   C3419003   1.606   3.730   7.273  0.1779 -0.7846 -0.0773
  168SAPE   H4X19004   1.660   3.639   7.305  0.0887 -0.9996 -0.5310
  168SAPE   H4Y19005   1.564   3.726   7.171 -0.4380  3.5194 -0.1805
  168SAPE   C3519006   1.482   3.745   7.367  0.0522  0.1899  0.3385
  168SAPE   H5X19007   1.419   3.654   7.383 -2.1637  1.9398  2.3329
  168SAPE   H5Y19008   1.414   3.819   7.321  1.2375  1.3489  0.4021
  168SAPE   C3619009   1.528   3.778   7.510 -0.0627 -0.7347 -0.8598
  168SAPE   H6X19010   1.555   3.885   7.517 -1.7625 -0.3646  0.9254
  168SAPE   H6Y19011   1.614   3.718   7.548 -0.2154 -0.3476  0.1249
  168SAPE   C3719012   1.404   3.754   7.602 -0.5211 -0.5333 -0.4058
  168SAPE   H7X19013   1.374   3.647   7.598 -1.1399 -0.3446 -0.8580
  168SAPE   H7Y19014   1.321   3.820   7.569  0.1176  1.4616  1.7511
  168SAPE   C3819015   1.442   3.775   7.758 -0.3740  0.0122  0.7280
  168SAPE   H8X19016   1.489   3.875   7.761  0.0004  0.1790 -3.7321
  168SAPE   H8Y19017   1.514   3.700   7.796  1.5178  0.9313 -0.8664
  168SAPE   C3919018   1.316   3.763   7.842  0.5013 -0.3321  0.7401
  168SAPE   H9X19019   1.277   3.660   7.854 -1.3568  0.2429  0.0175
  168SAPE   H9Y19020   1.238   3.816   7.783  2.0692 -0.6918 -1.8558
  168SAPE  C31019021   1.333   3.842   7.973 -0.3073 -0.1676  0.3851
  168SAPE  H10X19022   1.239   3.828   8.031 -1.5088  0.6214 -1.2731
  168SAPE  H10Y19023   1.344   3.950   7.949  1.5313 -0.3281  0.4048
  168SAPE  C31119024   1.449   3.789   8.049 -0.0591 -0.8664 -0.0599
  168SAPE  H11X19025   1.545   3.817   7.998 -0.4911 -1.5640 -1.3062
  168SAPE  H11Y19026   1.433   3.679   8.053  0.0113 -0.8463  0.8216
  168SAPE  C31219027   1.454   3.841   8.195 -0.3184  0.0626 -0.0049
  168SAPE  H12X19028   1.356   3.822   8.243  0.5280 -0.1153  1.7314
  168SAPE  H12Y19029   1.479   3.949   8.195  0.3375 -0.0651 -1.3384
  168SAPE  C31319030   1.564   3.758   8.272 -0.5911 -0.4801 -0.4439
  168SAPE  H13X19031   1.556   3.649   8.254  2.5700 -0.9043  0.0787
  168SAPE  H13Y19032   1.548   3.769   8.382  1.3254  2.8013 -0.3505
  168SAPE  C31419033   1.713   3.808   8.251  0.2545 -0.5586  0.3175
  168SAPE  H14X19034   1.719   3.913   8.288  1.1941 -0.4504 -0.1154
  168SAPE  H14Y19035   1.739   3.812   8.143 -0.7790 -1.6851  0.0149
  168SAPE  C31519036   1.826   3.740   8.336  0.3973  0.2189 -0.0463
  168SAPE  H15X19037   1.824   3.778   8.440  3.1114  1.1489 -0.2582
  168SAPE  H15Y19038   1.923   3.763   8.288  0.4532 -1.6903 -0.9418
  168SAPE  C31619039   1.811   3.585   8.327 -0.0180 -0.4315  0.2000
  168SAPE  H16X19040   1.787   3.555   8.224 -0.1338 -0.2466  0.1726
  168SAPE  H16Y19041   1.724   3.555   8.390  0.6476 -1.7165  0.5295
  168SAPE  C31719042   1.933   3.501   8.378  0.4950  0.3128  0.1570
  168SAPE  H17X19043   1.928   3.509   8.488  1.8952  2.8106  0.1267
  168SAPE  H17Y19044   2.033   3.544   8.357  1.9588 -1.3245  3.2418
  168SAPE  C31819045   1.929   3.345   8.350 -0.7688 -0.0376 -0.3026
  168SAPE  H18X19046   1.879   3.281   8.425  0.3550 -1.3369 -0.6314
  168SAPE  H18Y19047   2.028   3.296   8.344 -1.0490 -0.5759 -0.6215
  168SAPE  H18Z19048   1.883   3.321   8.252  0.3272  0.5227 -0.9778
  169SAPE     N19049   1.577   6.630   6.537  0.3206 -0.6451  0.2709
  169SAPE   HN119050   1.604   6.552   6.474 -0.1724  1.8938 -3.4146
  169SAPE   HN219051   1.654   6.699   6.527  0.6349 -1.1038 -0.6464
  169SAPE   HN319052   1.559   6.604   6.636  0.4722  0.7823  0.6885
  169SAPE   C1219053   1.454   6.691   6.472 -0.3507 -0.0057 -0.2236
  169SAPE  H12A19054   1.464   6.686   6.362  1.8075  1.0402 -0.1206
  169SAPE  H12B19055   1.434   6.794   6.508  1.6869 -0.3932  2.3275
  169SAPE   C1119056   1.324   6.608   6.504 -0.7904 -0.3259 -0.3539
  169SAPE  H11A19057   1.247   6.661   6.444 -1.9868  1.0687  2.2482
  169SAPE  H11B19058   1.302   6.613   6.612  0.8762 -0.6512  0.0270
  169SAPE     P19059   1.265   6.397   6.355 -0.3150  0.2766  0.3254
  169SAPE   O1319060   1.226   6.497   6.253  0.4860 -0.3275 -0.2734
  169SAPE   O1419061   1.345   6.293   6.302 -0.1598  0.3164  0.1644
  169SAPE   O1219062   1.345   6.472   6.472 -0.2639  0.1149 -0.0179
  169SAPE   O1119063   1.134   6.336   6.424 -0.2306  0.1960 -0.0786
  169SAPE    C119064   1.055   6.426   6.503 -0.5066 -0.0358  0.0717
  169SAPE    HA19065   1.057   6.531   6.465  0.5299  0.2230  0.8096
  169SAPE    HB19066   0.949   6.396   6.491 -1.1581  2.7198 -2.5306
  169SAPE    C219067   1.078   6.417   6.657  0.5066  0.4966 -0.1437
  169SAPE    HS19068   1.170   6.466   6.695 -0.2917  1.0108  1.1916
  169SAPE   O2119069   1.076   6.281   6.700 -0.6269 -0.0964  0.0496
  169SAPE   C2119070   1.147   6.254   6.802  0.9319  0.8490  0.0347
  169SAPE   O2219071   1.224   6.325   6.865  0.2917 -0.4199 -0.6226
  169SAPE   C2219072   1.121   6.107   6.836 -0.1216  1.6737  0.5669
  169SAPE   H2R19073   1.037   6.066   6.776  1.9541  0.6908 -1.8741
  169SAPE   H2S19074   1.207   6.041   6.813 -1.8200 -0.1487 -0.9138
  169SAPE    C319075   0.955   6.495   6.721 -1.2912  0.2268 -0.2322
  169SAPE    HX19076   0.862   6.440   6.693 -1.0641  0.1939 -0.9372
  169SAPE    HY19077   0.963   6.601   6.688  2.7078 -0.7015 -2.9660
  169SAPE   O3119078   0.972   6.483   6.866  0.5248  0.1091 -0.4300
  169SAPE   C3119079   1.040   6.581   6.923 -0.2246  0.3303 -0.3234
  169SAPE   O3219080   1.123   6.648   6.863  0.2146 -0.1590  0.3145
  169SAPE   C3219081   1.015   6.585   7.080 -0.2278  0.4165 -0.1290
  169SAPE   H2X19082   1.070   6.498   7.120  3.1042  3.3300  2.2118
  169SAPE   H2Y19083   0.907   6.571   7.103 -0.9844 -0.8359 -3.7740
  169SAPE   C2319084   1.080   6.080   6.985  0.0132  0.1030  0.0674
  169SAPE   H3R19085   1.155   6.116   7.058 -2.0454  0.2540  2.2224
  169SAPE   H3S19086   1.068   5.971   7.002  1.6733 -0.0306  0.5304
  169SAPE   C2419087   0.953   6.160   7.021 -0.3104 -0.3628  0.3689
  169SAPE   H4R19088   0.879   6.148   6.939 -0.6231  0.7723  0.4696
  169SAPE   H4S19089   0.978   6.267   7.036 -0.7104  0.0346 -1.5058
  169SAPE   C2519090   0.880   6.109   7.145  0.2153 -0.0158  0.4021
  169SAPE   H5R19091   0.811   6.027   7.121  1.4610 -1.0840  0.3970
  169SAPE   C2619092   0.889   6.151   7.271 -0.1524  0.3844 -0.4074
  169SAPE   H6R19093   0.824   6.101   7.344  0.3531 -0.7160 -0.6915
  169SAPE   C2719094   0.970   6.267   7.323 -0.7825  0.4007 -0.7263
  169SAPE   H7R19095   0.913   6.362   7.311  1.5865  2.3662  2.0679
  169SAPE   H7S19096   1.070   6.283   7.277  1.2649 -1.1236  2.7855
  169SAPE   C2819097   0.994   6.246   7.471 -0.2276 -0.2754  0.2459
  169SAPE   H8R19098   1.079   6.181   7.496 -0.7994 -0.7025  1.1364
  169SAPE   C2919099   0.926   6.304   7.571  0.9474 -0.0513 -0.1622
  169SAPE   H9R19100   0.958   6.275   7.672 -3.2605 -1.4998  0.9729
  169SAPE  C21019101   0.807   6.398   7.572  0.2875 -0.6849  0.2648
  169SAPE  H10R19102   0.719   6.359   7.627 -2.3310  1.0028 -2.4048
  169SAPE  H10S19103   0.761   6.423   7.474  0.4225 -0.5017  0.2464
  169SAPE  C21119104   0.842   6.536   7.626  0.0296  0.8751  0.2333
  169SAPE  H11R19105   0.950   6.558   7.627 -0.2617  2.3436  0.5671
  169SAPE  C21219106   0.763   6.623   7.697 -0.6973 -0.2106  0.2747
  169SAPE  H12R19107   0.813   6.708   7.744  2.2537 -0.9216 -1.3602
  169SAPE  C21319108   0.615   6.603   7.719 -0.3982  0.1234  0.5449
  169SAPE  H13R19109   0.561   6.522   7.665  0.2470  0.6495 -0.9381
  169SAPE  H13S19110   0.577   6.698   7.675 -3.0841 -1.3535 -0.5759
  169SAPE  C21419111   0.578   6.583   7.867 -0.0108 -0.3307 -0.7029
  169SAPE  H14R19112   0.632   6.506   7.925  1.3978  0.5262 -0.8221
  169SAPE  C21519113   0.482   6.652   7.933 -0.0942 -0.4825 -0.8103
  169SAPE  H15R19114   0.462   6.632   8.039 -1.1557  0.4132 -0.8161
  169SAPE  C21619115   0.383   6.760   7.881 -0.6553  0.4492 -0.0659
  169SAPE  H16R19116   0.373   6.743   7.771  2.0940  2.6101 -0.7493
  169SAPE  H16S19117   0.428   6.861   7.891 -3.1962  1.5987  0.8024
  169SAPE  C21719118   0.249   6.769   7.951 -0.2251 -0.0763  0.9961
  169SAPE  H17R19119   0.202   6.668   7.950  2.0666 -1.2093  0.8564
  169SAPE  H17S19120   0.176   6.840   7.907  0.6993  0.0991 -0.2933
  169SAPE  C21819121   0.248   6.825   8.098 -0.0492 -0.0217 -0.1479
  169SAPE  H18R19122   0.222   6.933   8.098  1.2977  0.3252  0.1278
  169SAPE  H18S19123   0.349   6.808   8.141  0.5014  2.1844 -0.4546
  169SAPE  C21919124   0.146   6.754   8.195  0.6162 -0.1551  0.2868
  169SAPE  H19R19125   0.152   6.643   8.206  1.1798  0.0233  1.9600
  169SAPE  H19S19126   0.045   6.759   8.148  0.2896 -0.7016  0.9099
  169SAPE  C22019127   0.128   6.810   8.331  0.0975 -0.1038 -0.0742
  169SAPE  H20R19128   0.072   6.906   8.328  1.0266  0.4786  0.6664
  169SAPE  H20S19129   0.226   6.831   8.377  0.4770  0.2250 -1.0218
  169SAPE  H20T19130   0.074   6.745   8.404 -2.2519  1.6828 -0.0973
  169SAPE   C3319131   1.061   6.710   7.162  1.0043 -0.2222 -0.0152
  169SAPE   H3X19132   1.004   6.801   7.130  1.7160 -0.3377 -1.7448
  169SAPE   H3Y19133   1.170   6.725   7.144  1.0396 -0.7583 -0.2631
  169SAPE   C3419134   1.040   6.684   7.310 -0.2905 -0.1559  0.2050
  169SAPE   H4X19135   1.096   6.591   7.333  0.8576  0.0415 -1.6082
  169SAPE   H4Y19136   0.930   6.677   7.323 -0.4279 -0.6192 -1.0844
  169SAPE   C3519137   1.105   6.796   7.391  0.6451  0.1585  0.1201
  169SAPE   H5X19138   1.037   6.884   7.392 -0.7914 -0.8962  1.9891
  169SAPE   H5Y19139   1.202   6.830   7.349  1.8399  0.2681  2.7652
  169SAPE   C3619140   1.127   6.755   7.535 -0.1324  1.1669 -1.0295
  169SAPE   H6X19141   1.164   6.650   7.533  1.0427  1.4264  2.0714
  169SAPE   H6Y19142   1.032   6.755   7.593 -0.6029 -0.9203 -1.7220
  169SAPE   C3719143   1.239   6.835   7.614  0.0347  0.3596 -0.5969
  169SAPE   H7X19144   1.221   6.943   7.631 -1.5030 -0.0271  0.4938
  169SAPE   H7Y19145   1.327   6.830   7.547  2.0809  3.6443  1.5675
  169SAPE   C3819146   1.281   6.757   7.741  0.2529  0.3252  0.4435
  169SAPE   H8X19147   1.374   6.804   7.781 -1.3417  0.7707  3.9656
  169SAPE   H8Y19148   1.317   6.656   7.711 -1.4418 -0.2147  0.1160
  169SAPE   C3919149   1.180   6.761   7.858  0.2642  0.2091 -0.5163
  169SAPE   H9X19150   1.078   6.725   7.833 -0.1475  2.1747 -1.9708
  169SAPE   H9Y19151   1.151   6.866   7.881 -0.4331 -0.5604  2.4665
  169SAPE  C31019152   1.240   6.687   7.976  0.5083 -0.1399 -0.9018
  169SAPE  H10X19153   1.311   6.753   8.029 -0.3475 -0.7119  1.0579
  169SAPE  H10Y19154   1.291   6.590   7.953  1.6477  0.1560  0.2340
  169SAPE  C31119155   1.134   6.659   8.084  0.9137 -0.7507 -0.4989
  169SAPE  H11X19156   1.062   6.743   8.086 -0.4930 -1.9408  0.7968
  169SAPE  H11Y19157   1.179   6.653   8.186 -1.0167 -0.4783  0.4083
  169SAPE  C31219158   1.076   6.522   8.050  0.1000 -0.2161 -0.0348
  169SAPE  H12X19159   1.149   6.444   8.080  0.0780 -0.2945 -0.1845
  169SAPE  H12Y19160   1.039   6.509   7.946 -0.0231 -0.0222 -0.0167
  169SAPE  C31319161   0.941   6.500   8.126  0.4696 -0.5758 -0.1395
  169SAPE  H13X19162   0.859   6.567   8.094 -0.2130  0.1297  2.7899
  169SAPE  H13Y19163   0.960   6.533   8.231  0.3813 -2.2335  0.4389
  169SAPE  C31419164   0.895   6.356   8.117 -0.0379 -0.5838  0.1079
  169SAPE  H14X19165   0.987   6.300   8.144  0.6144  0.4201  0.0043
  169SAPE  H14Y19166   0.855   6.329   8.017 -0.4691 -2.3845  0.7312
  169SAPE  C31519167   0.777   6.342   8.216 -0.0842  0.2252  0.0682
  169SAPE  H15X19168   0.681   6.377   8.174  0.1670  1.1919  0.2604
  169SAPE  H15Y19169   0.799   6.399   8.309 -2.1609 -0.0746  0.7830
  169SAPE  C31619170   0.757   6.194   8.262 -0.6854 -0.0487  0.5721
  169SAPE  H16X19171   0.842   6.168   8.328  1.3974 -0.6333 -2.1672
  169SAPE  H16Y19172   0.745   6.126   8.175  0.5238 -0.6570  0.8694
  169SAPE  C31719173   0.618   6.178   8.335 -0.5486  0.3325 -0.5623
  169SAPE  H17X19174   0.533   6.181   8.264 -0.2503 -0.6922 -0.9750
  169SAPE  H17Y19175   0.618   6.263   8.407 -0.4422 -1.1593  1.2497
  169SAPE  C31819176   0.609   6.041   8.405 -0.3898  0.4381  0.2650
  169SAPE  H18X19177   0.625   5.957   8.334 -3.5252  1.9192 -2.4355
  169SAPE  H18Y19178   0.506   6.036   8.446 -0.8641  0.3088 -0.9121
  169SAPE  H18Z19179   0.677   6.028   8.492  1.4514  1.5588 -0.9457
  170SAPE     N19180   0.759   3.918   6.120 -0.2501 -0.2716  0.0489
  170SAPE   HN119181   0.826   3.950   6.047  0.6652  0.7179  1.2775
  170SAPE   HN219182   0.705   3.835   6.086 -0.4157 -0.4255  0.6699
  170SAPE   HN319183   0.695   3.999   6.134  0.2636  0.4452 -1.5784
  170SAPE   C1219184   0.841   3.887   6.250  0.9280  0.3808 -0.2103
  170SAPE  H12A19185   0.919   3.967   6.253  0.2811  1.0632 -1.0942
  170SAPE  H12B19186   0.890   3.787   6.247  0.6051  0.2150  0.0622
  170SAPE   C1119187   0.751   3.872   6.377 -0.1921 -1.2031 -0.6770
  170SAPE  H11A19188   0.708   3.973   6.395  0.1149 -0.8997 -1.5687
  170SAPE  H11B19189   0.815   3.838   6.460 -0.6738 -0.9487 -0.1955
  170SAPE     P19190   0.502   3.781   6.392 -0.1408  0.0957  0.4467
  170SAPE   O1319191   0.434   3.868   6.296  1.1447  0.6387  0.4835
  170SAPE   O1419192   0.442   3.645   6.396 -0.1768  0.4457  0.0181
  170SAPE   O1219193   0.649   3.769   6.352  0.1689 -0.4792  0.4059
  170SAPE   O1119194   0.512   3.853   6.530  0.3838  0.3788  0.6156
  170SAPE    C119195   0.532   3.767   6.643 -0.5761  0.2377 -0.6124
  170SAPE    HA19196   0.440   3.712   6.671  0.0735 -0.5493  0.0515
  170SAPE    HB19197   0.618   3.697   6.634 -2.3955 -2.1510 -0.2569
  170SAPE    C219198   0.562   3.858   6.766 -0.0304  0.4360  0.1300
  170SAPE    HS19199   0.622   3.943   6.727  0.3498 -0.7200 -2.0101
  170SAPE   O2119200   0.633   3.770   6.857  0.3030  0.3494 -0.3262
  170SAPE   C2119201   0.708   3.827   6.944  0.2166 -0.1647 -0.1142
  170SAPE   O2219202   0.733   3.947   6.946 -0.3400  0.6297  0.2001
  170SAPE   C2219203   0.772   3.722   7.035 -0.0642  0.0316 -0.2937
  170SAPE   H2R19204   0.788   3.629   6.976  3.3743 -0.1630  0.6799
  170SAPE   H2S19205   0.867   3.763   7.077  0.6321 -2.8787  1.2465
  170SAPE    C319206   0.430   3.911   6.826 -0.7287  0.8724 -0.0581
  170SAPE    HX19207   0.372   3.960   6.745 -0.7036 -0.4320 -0.8881
  170SAPE    HY19208   0.460   3.981   6.907  0.5452  0.5325 -0.2095
  170SAPE   O3119209   0.345   3.804   6.875 -0.6647 -0.3531 -0.5230
  170SAPE   C3119210   0.239   3.849   6.943  0.0039 -0.4048 -0.2696
  170SAPE   O3219211   0.232   3.969   6.973 -0.2458 -0.0318 -0.5850
  170SAPE   C3219212   0.146   3.740   6.980 -0.0938  0.4018 -0.2673
  170SAPE   H2X19213   0.204   3.662   7.034 -2.4982 -1.7121 -0.5380
  170SAPE   H2Y19214   0.109   3.686   6.891 -0.8399 -0.0694  0.3096
  170SAPE   C2319215   0.683   3.686   7.150  0.5710  0.2704  0.1338
  170SAPE   H3R19216   0.729   3.604   7.209 -0.5550 -0.2427  0.3279
  170SAPE   H3S19217   0.584   3.655   7.109  0.3954  0.4815  0.3946
  170SAPE   C2419218   0.663   3.797   7.259 -0.1951 -0.0621  0.0773
  170SAPE   H4R19219   0.751   3.863   7.271 -0.2133  0.4427 -2.1977
  170SAPE   H4S19220   0.659   3.750   7.360  0.1460  0.1439  0.1868
  170SAPE   C2519221   0.531   3.873   7.225 -0.8013 -0.1543  0.4553
  170SAPE   H5R19222   0.441   3.811   7.213  0.1642 -1.9768  1.9524
  170SAPE   C2619223   0.529   4.013   7.222  0.2960 -0.5089 -0.5920
  170SAPE   H6R19224   0.431   4.061   7.234 -0.2652 -1.9697  1.2773
  170SAPE   C2719225   0.653   4.095   7.258  0.6070 -0.4122 -0.1792
  170SAPE   H7R19226   0.733   4.047   7.199 -1.3622 -1.3035 -2.2388
  170SAPE   H7S19227   0.666   4.074   7.367 -0.5687 -0.3523 -0.0172
  170SAPE   C2819228   0.637   4.244   7.239 -0.1622 -0.0128  0.1036
  170SAPE   H8R19229   0.680   4.278   7.143  0.4644  0.5747  0.5875
  170SAPE   C2919230   0.602   4.332   7.333  0.8298 -0.3810 -0.5311
  170SAPE   H9R19231   0.584   4.439   7.315 -0.3486 -0.2887  0.9882
  170SAPE  C21019232   0.562   4.296   7.475 -0.1218  0.7911 -0.6990
  170SAPE  H10R19233   0.586   4.382   7.541 -1.4234 -1.3175  2.8452
  170SAPE  H10S19234   0.629   4.218   7.517 -1.3538  0.8338  1.4977
  170SAPE  C21119235   0.419   4.254   7.513  0.0498 -0.1841  0.0945
  170SAPE  H11R19236   0.392   4.147   7.518 -1.4548  0.1646 -0.1076
  170SAPE  C21219237   0.320   4.340   7.541 -0.7495  0.4044  0.4654
  170SAPE  H12R19238   0.217   4.315   7.572 -2.5283  2.2657 -3.2033
  170SAPE  C21319239   0.347   4.486   7.527  0.0401  0.1538 -0.1085
  170SAPE  H13R19240   0.409   4.513   7.439  0.9011  0.1650  0.4901
  170SAPE  H13S19241   0.417   4.512   7.609  0.3282 -2.2118  0.4533
  170SAPE  C21419242   0.225   4.573   7.548 -0.3639  0.0535 -0.7296
  170SAPE  H14R19243   0.193   4.634   7.462  0.7007  0.1627 -1.0643
  170SAPE  C21519244   0.159   4.595   7.662 -0.7859 -0.3967 -0.1572
  170SAPE  H15R19245   0.079   4.670   7.650 -0.4345 -0.1813 -1.2563
  170SAPE  C21619246   0.182   4.529   7.794 -0.2918  0.6051 -0.2768
  170SAPE  H16R19247   0.230   4.586   7.876 -1.8284 -1.0663  1.8912
  170SAPE  H16S19248   0.244   4.438   7.778 -1.1274 -0.0053 -0.1477
  170SAPE  C21719249   0.045   4.467   7.844 -0.4158 -0.0357 -0.4232
  170SAPE  H17R19250   0.071   4.394   7.924 -1.7462 -1.6389 -1.3858
  170SAPE  H17S19251  -0.002   4.416   7.757  2.7418 -0.3574 -2.1012
  170SAPE  C21819252  -0.058   4.568   7.908 -0.4133  0.4588  0.6081
  170SAPE  H18R19253  -0.067   4.656   7.841  1.5791  0.3589  0.1250
  170SAPE  H18S19254  -0.018   4.591   8.009  0.9819  2.6158 -0.3596
  170SAPE  C21919255  -0.197   4.507   7.922  0.0867  0.0954 -0.2653
  170SAPE  H19R19256  -0.183   4.403   7.957  1.7023  0.5880  0.6614
  170SAPE  H19S19257  -0.243   4.507   7.821  0.9931 -0.2207 -0.6900
  170SAPE  C22019258  -0.297   4.579   8.011 -0.3529  0.0610 -0.2180
  170SAPE  H20R19259  -0.398   4.532   8.010  0.0675 -0.8849 -1.1384
  170SAPE  H20S19260  -0.321   4.673   7.957 -0.2028  0.1482 -0.1323
  170SAPE  H20T19261  -0.275   4.584   8.120 -2.1206 -0.0647  0.1707
  170SAPE   C3319262   0.019   3.779   7.055  0.2343  0.0225 -0.1131
  170SAPE   H3X19263  -0.044   3.688   7.061  2.0745 -1.2377  1.7367
  170SAPE   H3Y19264  -0.041   3.853   6.997  0.4242  0.0532 -0.2726
  170SAPE   C3419265   0.033   3.847   7.196 -0.6843  0.6939  0.3085
  170SAPE   H4X19266  -0.062   3.844   7.254 -1.8902 -0.4112 -1.6264
  170SAPE   H4Y19267   0.061   3.954   7.186 -0.4914  0.7376  1.1959
  170SAPE   C3519268   0.140   3.770   7.268  0.5848 -0.2171  0.2661
  170SAPE   H5X19269   0.238   3.791   7.220  0.0945  1.3407 -0.1254
  170SAPE   H5Y19270   0.110   3.663   7.272  1.0464 -0.3616 -0.0384
  170SAPE   C3619271   0.170   3.814   7.412  0.1033 -0.0846  0.1033
  170SAPE   H6X19272   0.077   3.811   7.473  1.3587  2.5496  2.3956
  170SAPE   H6Y19273   0.183   3.924   7.422 -0.0957  0.0067 -0.5538
  170SAPE   C3719274   0.282   3.725   7.472 -0.6210 -0.0336 -0.0348
  170SAPE   H7X19275   0.367   3.714   7.402  0.0801 -3.5406  1.1571
  170SAPE   H7Y19276   0.236   3.624   7.479 -0.2260 -0.1324  1.7328
  170SAPE   C3819277   0.335   3.777   7.610 -0.5784 -0.2171  0.3157
  170SAPE   H8X19278   0.377   3.879   7.603  1.7296 -1.1171  0.3024
  170SAPE   H8Y19279   0.419   3.712   7.640  0.4070  0.3958 -1.0125
  170SAPE   C3919280   0.226   3.774   7.721  0.1268  0.7247  0.3099
  170SAPE   H9X19281   0.204   3.668   7.744  0.8224  0.2285 -1.1548
  170SAPE   H9Y19282   0.132   3.819   7.682 -0.3212 -1.7678 -1.7166
  170SAPE  C31019283   0.267   3.857   7.846 -0.2297 -0.3077  0.2894
  170SAPE  H10X19284   0.362   3.815   7.886 -0.3614  2.0514  3.5137
  170SAPE  H10Y19285   0.191   3.839   7.925  1.2621  1.5103  2.2551
  170SAPE  C31119286   0.270   4.010   7.822  0.1095 -0.0948 -0.5449
  170SAPE  H11X19287   0.176   4.059   7.791 -0.3110 -0.4374  0.1690
  170SAPE  H11Y19288   0.348   4.047   7.751  0.3239  1.3970  0.4240
  170SAPE  C31219289   0.302   4.090   7.954 -0.3005  0.0955 -0.8708
  170SAPE  H12X19290   0.315   4.197   7.928  0.5369  0.2649  0.1775
  170SAPE  H12Y19291   0.403   4.056   7.985 -0.6159  1.2118  1.6239
  170SAPE  C31319292   0.203   4.058   8.069  0.1819 -0.8078 -0.3803
  170SAPE  H13X19293   0.222   3.953   8.100 -0.5329 -0.5855  0.9141
  170SAPE  H13Y19294   0.102   4.076   8.026  0.3104  2.1322  0.3408
  170SAPE  C31419295   0.249   4.147   8.188 -0.0891  0.1572 -0.4515
  170SAPE  H14X19296   0.258   4.256   8.168  0.6466  0.2983  0.5496
  170SAPE  H14Y19297   0.351   4.117   8.219 -0.4676  0.7570  1.5355
  170SAPE  C31519298   0.169   4.120   8.315  0.0464  0.4031 -0.5636
  170SAPE  H15X19299   0.210   4.174   8.403  1.8890 -1.5184 -0.1408
  170SAPE  H15Y19300   0.183   4.011   8.334 -0.3246  0.3943 -0.3368
  170SAPE  C31619301   0.017   4.153   8.293 -0.2622 -0.5772 -0.7247
  170SAPE  H16X19302  -0.038   4.142   8.389  1.9366 -0.8459  0.5804
  170SAPE  H16Y19303  -0.023   4.085   8.215 -0.0141 -0.2103 -1.1725
  170SAPE  C31719304  -0.006   4.293   8.231 -0.0020  0.0428 -0.2381
  170SAPE  H17X19305   0.034   4.294   8.128  3.2998 -2.0871  0.8252
  170SAPE  H17Y19306   0.062   4.355   8.295  1.0355 -0.7286 -0.5611
  170SAPE  C31819307  -0.151   4.341   8.250 -0.5544 -0.0913  0.2534
  170SAPE  H18X19308  -0.205   4.288   8.168 -1.6726 -0.0308  0.9324
  170SAPE  H18Y19309  -0.160   4.452   8.250  3.4809  0.3914  0.4085
  170SAPE  H18Z19310  -0.200   4.300   8.341  0.0405 -1.1366  0.1175
  171SAPE     N19311   2.920   3.529   6.440  0.8670 -0.1027  0.2927
  171SAPE   HN119312   2.967   3.449   6.487  0.3975  0.2429  1.3956
  171SAPE   HN219313   2.825   3.496   6.415  1.0442  0.0977 -0.6656
  171SAPE   HN319314   2.968   3.545   6.349 -2.1863  0.0097 -1.4087
  171SAPE   C1219315   2.920   3.645   6.538  0.4795  0.3509  0.8454
  171SAPE  H12A19316   3.025   3.683   6.535  1.8015 -2.9422  1.0946
  171SAPE  H12B19317   2.899   3.608   6.641  1.0548  2.3881  1.7466
  171SAPE   C1119318   2.809   3.748   6.506 -0.3246  0.9020  0.4418
  171SAPE  H11A19319   2.802   3.811   6.597  1.8474 -1.5270  2.4397
  171SAPE  H11B19320   2.706   3.706   6.497  0.2172 -1.3506  3.3221
  171SAPE     P19321   2.898   3.977   6.407 -0.3059  0.1422  0.3074
  171SAPE   O1319322   3.013   3.981   6.497 -0.2557  0.0704 -0.5124
  171SAPE   O1419323   2.928   4.038   6.273  0.4885  0.4872  0.2738
  171SAPE   O1219324   2.848   3.827   6.387 -0.0470 -0.2197  0.2619
  171SAPE   O1119325   2.772   4.050   6.473 -0.0733 -0.3489 -0.2624
  171SAPE    C119326   2.762   4.155   6.570 -0.4701 -0.1939 -0.0222
  171SAPE    HA19327   2.859   4.210   6.573 -0.4646 -0.2344  1.7972
  171SAPE    HB19328   2.685   4.228   6.536 -1.7680  0.1648  3.2870
  171SAPE    C219329   2.712   4.111   6.716 -0.7072  0.2020 -0.5065
  171SAPE    HS19330   2.719   4.188   6.796  2.6759 -1.5688  1.1297
  171SAPE   O2119331   2.801   4.008   6.776  0.1628 -0.0466  0.0850
  171SAPE   C2119332   2.930   4.051   6.790  1.2797  0.0838  0.6396
  171SAPE   O2219333   2.967   4.166   6.783  0.6697  0.6742 -0.2325
  171SAPE   C2219334   3.005   3.924   6.832  0.0214 -0.1292 -0.5447
  171SAPE   H2R19335   2.933   3.840   6.823 -0.4873  0.3008 -0.5273
  171SAPE   H2S19336   3.071   3.901   6.746 -0.1750 -0.2638 -0.6610
  171SAPE    C319337   2.568   4.061   6.695  0.9780 -0.2037  0.9040
  171SAPE    HX19338   2.572   3.959   6.649 -1.3431 -0.2180  0.6080
  171SAPE    HY19339   2.517   4.138   6.634 -1.3895 -0.7555  2.0790
  171SAPE   O3119340   2.511   4.057   6.830 -0.2636 -0.3917  0.0137
  171SAPE   C3119341   2.400   3.978   6.837  0.3114  0.3155 -0.1182
  171SAPE   O3219342   2.338   3.934   6.741 -0.1767  0.6265  0.1245
  171SAPE   C3219343   2.369   3.952   6.986  0.4710 -0.5812  1.0061
  171SAPE   H2X19344   2.262   3.980   7.001  1.1270  3.1268 -0.1320
  171SAPE   H2Y19345   2.428   4.028   7.042  1.1315 -0.2654 -0.0909
  171SAPE   C2319346   3.074   3.926   6.970  0.5687  0.1703  0.4563
  171SAPE   H3R19347   3.009   3.985   7.038 -2.6225 -1.2193 -1.2049
  171SAPE   H3S19348   3.173   3.977   6.966  1.8889 -2.3172 -2.0622
  171SAPE   C2419349   3.101   3.785   7.030 -0.5527 -0.1917 -0.0370
  171SAPE   H4R19350   3.157   3.811   7.122  1.3289  1.5868 -1.5950
  171SAPE   H4S19351   3.166   3.714   6.974 -3.0151 -1.1867 -1.8404
  171SAPE   C2519352   2.972   3.712   7.068 -0.7331 -0.2761  0.8538
  171SAPE   H5R19353   2.946   3.634   6.995 -0.7890  1.6351 -1.2919
  171SAPE   C2619354   2.896   3.728   7.175  0.5478 -0.2693 -0.0805
  171SAPE   H6R19355   2.805   3.667   7.179  1.6946 -2.2652 -2.1699
  171SAPE   C2719356   2.917   3.812   7.303 -0.1372 -0.0966 -0.7038
  171SAPE   H7R19357   3.026   3.819   7.324 -0.3016 -2.4287  1.3015
  171SAPE   H7S19358   2.880   3.765   7.396  0.9406  2.4231  1.0860
  171SAPE   C2819359   2.848   3.946   7.295  0.3814 -1.1517  0.4070
  171SAPE   H8R19360   2.885   4.019   7.221 -3.1458 -0.0184 -0.4220
  171SAPE   C2919361   2.752   3.989   7.376 -0.4230 -0.4239 -0.9503
  171SAPE   H9R19362   2.707   4.087   7.354  1.5907  0.9790  0.8321
  171SAPE  C21019363   2.681   3.913   7.490 -0.6970  1.0978  0.0717
  171SAPE  H10R19364   2.680   3.806   7.460  0.9149  0.4244  2.2187
  171SAPE  H10S19365   2.576   3.951   7.492 -1.3935 -0.7540  0.8333
  171SAPE  C21119366   2.745   3.943   7.624  0.9306 -0.2318  0.3545
  171SAPE  H11R19367   2.776   4.046   7.651 -0.2669 -0.1128  1.4339
  171SAPE  C21219368   2.772   3.857   7.722  0.0986 -0.2924 -0.3078
  171SAPE  H12R19369   2.839   3.885   7.805  0.4137 -2.3454  0.1896
  171SAPE  C21319370   2.762   3.706   7.707  0.0321  0.2999  0.1177
  171SAPE  H13R19371   2.857   3.665   7.668  0.5873  0.9307  0.7860
  171SAPE  H13S19372   2.683   3.697   7.629  1.5015  3.0261 -1.8302
  171SAPE  C21419373   2.716   3.629   7.829  0.1252  0.9212 -0.6919
  171SAPE  H14R19374   2.608   3.610   7.817  0.2780  0.2277 -0.9796
  171SAPE  C21519375   2.784   3.591   7.935  0.7805  0.7851 -0.6422
  171SAPE  H15R19376   2.734   3.533   8.014  0.1133 -0.8620 -2.1794
  171SAPE  C21619377   2.928   3.621   7.967  0.0505 -0.5885 -0.1807
  171SAPE  H16R19378   2.933   3.732   7.977 -0.6848 -0.7170  2.3385
  171SAPE  H16S19379   2.994   3.607   7.879 -2.0213 -2.9211 -1.4645
  171SAPE  C21719380   2.971   3.553   8.086 -0.1727 -0.2050  0.0346
  171SAPE  H17R19381   2.956   3.443   8.077  0.8580 -0.1695 -3.4535
  171SAPE  H17S19382   2.916   3.595   8.173  0.6098  1.8989 -0.4349
  171SAPE  C21819383   3.117   3.588   8.126  0.2504  0.8763 -0.2897
  171SAPE  H18R19384   3.148   3.692   8.148  1.9149  0.5150 -0.7410
  171SAPE  H18S19385   3.180   3.561   8.038 -1.0753 -0.2926 -0.9172
  171SAPE  C21919386   3.164   3.485   8.227  0.7419  0.7762  0.0019
  171SAPE  H19R19387   3.273   3.483   8.250  0.4324 -3.7286  2.1459
  171SAPE  H19S19388   3.147   3.384   8.184  2.4497  0.3515  0.2348
  171SAPE  C22019389   3.091   3.489   8.361  0.3140 -0.0169 -0.1177
  171SAPE  H20R19390   2.981   3.496   8.355  0.1458  1.2602  2.6566
  171SAPE  H20S19391   3.128   3.569   8.429  1.0550  2.3779 -3.1013
  171SAPE  H20T19392   3.112   3.397   8.419  2.5921  1.6666  1.9718
  171SAPE   C3319393   2.404   3.807   7.023  1.2706  0.2459  0.6598
  171SAPE   H3X19394   2.514   3.790   7.024  1.2337 -0.3831 -1.0453
  171SAPE   H3Y19395   2.351   3.737   6.955  0.4180  1.5997 -0.1357
  171SAPE   C3419396   2.332   3.773   7.158  0.4207 -0.3288 -0.6417
  171SAPE   H4X19397   2.342   3.665   7.185  0.9000 -0.0763  0.2200
  171SAPE   H4Y19398   2.225   3.795   7.138  0.7547  0.8936 -1.1764
  171SAPE   C3519399   2.387   3.853   7.276 -0.6095  0.3019 -0.1345
  171SAPE   H5X19400   2.348   3.957   7.266  0.9994  0.9539  0.0845
  171SAPE   H5Y19401   2.495   3.864   7.250 -0.8763 -0.6514 -1.7574
  171SAPE   C3619402   2.353   3.776   7.411 -0.2022 -1.0382 -0.6044
  171SAPE   H6X19403   2.243   3.770   7.426 -0.1101 -0.7808  0.1972
  171SAPE   H6Y19404   2.388   3.844   7.491 -1.8933 -2.8364  1.7977
  171SAPE   C3719405   2.417   3.640   7.426  0.2654  0.3373 -0.2996
  171SAPE   H7X19406   2.518   3.638   7.380 -0.6795  1.7499 -2.6581
  171SAPE   H7Y19407   2.357   3.577   7.357  0.8549 -0.7292  0.1442
  171SAPE   C3819408   2.399   3.566   7.567 -0.1638  0.0874 -0.4250
  171SAPE   H8X19409   2.452   3.639   7.631  0.5765 -1.8159  1.2700
  171SAPE   H8Y19410   2.454   3.469   7.565 -1.5490 -0.7503  0.0777
  171SAPE   C3919411   2.266   3.566   7.631 -0.1183 -0.6656  0.2385
  171SAPE   H9X19412   2.240   3.468   7.675  1.4880 -0.7560  1.0383
  171SAPE   H9Y19413   2.186   3.579   7.554 -1.8767  0.3045  2.1323
  171SAPE  C31019414   2.233   3.681   7.729  0.4905  0.1654 -0.1836
  171SAPE  H10X19415   2.123   3.698   7.729 -0.1557 -3.2175  0.5143
  171SAPE  H10Y19416   2.272   3.779   7.695  0.6473 -0.0668 -0.6770
  171SAPE  C31119417   2.278   3.657   7.873  0.3977  0.7438 -0.5290
  171SAPE  H11X19418   2.378   3.609   7.864  1.5716  3.0794 -0.9634
  171SAPE  H11Y19419   2.199   3.597   7.923  0.9718  0.7128  0.3827
  171SAPE  C31219420   2.301   3.788   7.955 -0.4476  0.2143  1.1742
  171SAPE  H12X19421   2.198   3.829   7.948 -1.0813 -1.3400  0.9946
  171SAPE  H12Y19422   2.384   3.844   7.907 -1.7234  1.4787  0.3976
  171SAPE  C31319423   2.343   3.759   8.100  0.9343 -0.1346 -0.0575
  171SAPE  H13X19424   2.309   3.655   8.117  1.1902 -0.5958 -2.1192
  171SAPE  H13Y19425   2.295   3.831   8.171  0.2738  0.3486 -0.9756
  171SAPE  C31419426   2.493   3.774   8.116 -0.7210 -0.5511  0.6277
  171SAPE  H14X19427   2.520   3.879   8.090 -1.6654  0.2879  2.8398
  171SAPE  H14Y19428   2.544   3.705   8.045 -0.5071  1.2669 -1.0937
  171SAPE  C31519429   2.544   3.742   8.261 -0.6082  0.1669 -0.2236
  171SAPE  H15X19430   2.525   3.634   8.277 -0.9714  0.0658 -1.2593
  171SAPE  H15Y19431   2.482   3.804   8.329 -0.2517  0.1437  0.1247
  171SAPE  C31619432   2.688   3.775   8.289  0.6897 -0.3106  0.2263
  171SAPE  H16X19433   2.698   3.885   8.300 -0.7436 -0.3104  1.7965
  171SAPE  H16Y19434   2.748   3.754   8.197 -1.7206  0.1940 -1.5528
  171SAPE  C31719435   2.751   3.713   8.417  0.1351 -0.4560  0.2416
  171SAPE  H17X19436   2.745   3.602   8.408  1.7479 -0.4032 -2.5741
  171SAPE  H17Y19437   2.692   3.754   8.501 -1.0126  2.0700 -1.6555
  171SAPE  C31819438   2.902   3.757   8.434  0.9865  0.5338 -0.3537
  171SAPE  H18X19439   2.953   3.680   8.497 -0.4119 -0.0064  0.1524
  171SAPE  H18Y19440   2.925   3.852   8.487 -2.7332  1.8742 -0.8994
  171SAPE  H18Z19441   2.953   3.750   8.336 -0.2772  1.4007 -1.0917
  172SAPE     N19442   1.868   2.723   6.048  0.4119  1.2285  0.4595
  172SAPE   HN119443   1.828   2.640   6.095  1.0830  1.7004  1.9167
  172SAPE   HN219444   1.887   2.708   5.947  0.1797  0.4682  0.5277
  172SAPE   HN319445   1.964   2.712   6.086 -0.0098 -2.9903  0.7506
  172SAPE   C1219446   1.813   2.857   6.100 -0.5447  0.6946 -0.0017
  172SAPE  H12A19447   1.703   2.860   6.086 -0.7835  0.8913  1.6827
  172SAPE  H12B19448   1.851   2.942   6.040 -0.9238  0.8517 -0.0155
  172SAPE   C1119449   1.836   2.870   6.254 -0.2720 -0.6761  0.5369
  172SAPE  H11A19450   1.805   2.975   6.271 -2.3237 -1.3901  1.6334
  172SAPE  H11B19451   1.943   2.867   6.283 -0.4268 -0.7123  1.1180
  172SAPE     P19452   1.809   2.660   6.404 -0.5116 -0.1482 -0.0249
  172SAPE   O1319453   1.694   2.588   6.464  0.0611 -0.3344  0.2813
  172SAPE   O1419454   1.889   2.585   6.303 -0.3400  0.1471 -0.0497
  172SAPE   O1219455   1.746   2.784   6.327  0.2730  0.3110  1.0602
  172SAPE   O1119456   1.907   2.712   6.515 -0.6443  0.2464 -0.4527
  172SAPE    C119457   1.865   2.822   6.599  0.1742 -0.0496  0.3132
  172SAPE    HA19458   1.913   2.911   6.552 -0.7249 -0.1790 -0.9201
  172SAPE    HB19459   1.756   2.838   6.605  0.4175  1.3054  1.7756
  172SAPE    C219460   1.914   2.820   6.746 -0.6199 -0.8288  0.4427
  172SAPE    HS19461   1.906   2.925   6.780  1.1083 -0.8615  1.0606
  172SAPE   O2119462   2.050   2.774   6.760  0.3060  0.1386  0.1066
  172SAPE   C2119463   2.124   2.841   6.848  1.2437 -0.9011  0.3993
  172SAPE   O2219464   2.084   2.931   6.921 -0.8175  0.2351  0.0286
  172SAPE   C2219465   2.265   2.786   6.835 -0.8188 -0.0239  0.0612
  172SAPE   H2R19466   2.257   2.675   6.833  1.0010 -0.1683 -0.1664
  172SAPE   H2S19467   2.307   2.821   6.739  0.4608  2.4331  1.4293
  172SAPE    C319468   1.832   2.728   6.844 -0.5432  0.3291 -0.1722
  172SAPE    HX19469   1.852   2.625   6.807  1.4176  1.5674 -2.9538
  172SAPE    HY19470   1.727   2.760   6.828  0.0075  2.9468  0.9067
  172SAPE   O3119471   1.859   2.743   6.991 -0.4429 -0.6295  0.6841
  172SAPE   C3119472   1.794   2.845   7.043 -0.1608  0.4921  0.2603
  172SAPE   O3219473   1.741   2.938   6.984  0.1306  0.3993  0.2086
  172SAPE   C3219474   1.799   2.837   7.192  0.1697 -0.5225 -0.0351
  172SAPE   H2X19475   1.902   2.860   7.225  0.8510 -1.6292 -1.2916
  172SAPE   H2Y19476   1.785   2.730   7.220 -2.0415 -0.0688  0.8326
  172SAPE   C2319477   2.362   2.826   6.945 -1.0619  0.8968 -0.9510
  172SAPE   H3R19478   2.389   2.933   6.940  2.4160  0.1593 -0.6197
  172SAPE   H3S19479   2.461   2.774   6.940  0.5168  3.8168 -2.0336
  172SAPE   C2419480   2.310   2.774   7.084 -0.7787  0.0870 -0.2973
  172SAPE   H4R19481   2.289   2.666   7.071  1.7333 -0.7022  1.3689
  172SAPE   H4S19482   2.214   2.823   7.111 -1.5239 -0.2861 -2.1782
  172SAPE   C2519483   2.409   2.784   7.195 -0.0072 -0.2902 -0.9520
  172SAPE   H5R19484   2.508   2.819   7.163  1.7508 -2.3140  1.8209
  172SAPE   C2619485   2.383   2.753   7.323  0.8197 -0.4739  0.1166
  172SAPE   H6R19486   2.465   2.748   7.396  1.0984 -1.8932 -0.2635
  172SAPE   C2719487   2.249   2.722   7.378 -0.0513 -0.7519 -0.2907
  172SAPE   H7R19488   2.169   2.762   7.311  1.7175 -1.6252 -3.1265
  172SAPE   H7S19489   2.240   2.789   7.466  1.9572 -0.8965  0.0707
  172SAPE   C2819490   2.228   2.580   7.415  0.1447  0.0711  0.6833
  172SAPE   H8R19491   2.226   2.518   7.323 -0.7867  0.1310  0.6514
  172SAPE   C2919492   2.211   2.517   7.534  0.3670 -0.6084 -0.3046
  172SAPE   H9R19493   2.189   2.409   7.545 -1.0497 -0.2657  0.4951
  172SAPE  C21019494   2.217   2.587   7.669  0.8588  0.0693  0.4251
  172SAPE  H10R19495   2.296   2.666   7.663  2.0926 -1.0779  0.9882
  172SAPE  H10S19496   2.249   2.511   7.743 -0.8025 -0.7060  0.3803
  172SAPE  C21119497   2.088   2.647   7.712 -0.4575  0.6149 -0.0402
  172SAPE  H11R19498   2.050   2.723   7.642 -0.1978  0.9998  0.2301
  172SAPE  C21219499   2.027   2.618   7.835 -0.0941 -0.0388  0.5889
  172SAPE  H12R19500   1.934   2.670   7.861  0.2723 -0.0191  1.9301
  172SAPE  C21319501   2.075   2.517   7.936 -0.5223  0.0016  0.4837
  172SAPE  H13R19502   2.133   2.436   7.887 -1.2446  1.5291 -3.1635
  172SAPE  H13S19503   1.986   2.459   7.968 -0.8409 -1.0252 -2.0754
  172SAPE  C21419504   2.147   2.562   8.057  0.3780 -0.1942 -0.5536
  172SAPE  H14R19505   2.248   2.598   8.033  1.3312 -2.1609  0.3231
  172SAPE  C21519506   2.109   2.570   8.186 -1.1563  0.0941  0.3484
  172SAPE  H15R19507   2.183   2.606   8.260 -1.0290 -0.0882  0.3105
  172SAPE  C21619508   1.985   2.521   8.245  0.3643  0.6346 -0.4339
  172SAPE  H16R19509   1.949   2.420   8.218  0.0267  0.6114  0.1005
  172SAPE  H16S19510   1.903   2.587   8.209  0.0029 -1.4626 -3.8517
  172SAPE  C21719511   2.000   2.515   8.395 -0.4152 -0.1588 -0.1035
  172SAPE  H17R19512   1.898   2.485   8.429 -0.3697 -1.0216 -0.6972
  172SAPE  H17S19513   2.021   2.617   8.433  0.6426 -0.4376  0.1128
  172SAPE  C21819514   2.089   2.419   8.466  0.0996 -0.1912  0.6632
  172SAPE  H18R19515   2.194   2.423   8.430 -0.6685  0.2826 -1.7036
  172SAPE  H18S19516   2.070   2.317   8.426  0.2893 -0.1461  0.4509
  172SAPE  C21919517   2.066   2.427   8.615  0.2205  0.5089 -0.1449
  172SAPE  H19R19518   1.967   2.381   8.635 -0.0806  1.5391  0.8395
  172SAPE  H19S19519   2.078   2.528   8.661 -1.5702 -1.0471  4.2723
  172SAPE  C22019520   2.177   2.343   8.683  0.6051  0.6575 -0.2632
  172SAPE  H20R19521   2.275   2.391   8.661 -0.2763  3.0192  0.6626
  172SAPE  H20S19522   2.192   2.238   8.649 -0.4367  0.0285  1.1396
  172SAPE  H20T19523   2.178   2.336   8.794 -0.0552 -0.7137 -0.3236
  172SAPE   C3319524   1.689   2.924   7.257  0.0377  0.0819 -0.3785
  172SAPE   H3X19525   1.599   2.929   7.192  0.0642  0.8537 -0.3723
  172SAPE   H3Y19526   1.732   3.019   7.297 -1.3522 -0.9498  4.0999
  172SAPE   C3419527   1.639   2.858   7.389 -0.0276 -0.0346  0.1159
  172SAPE   H4X19528   1.623   2.751   7.366  2.4723 -0.3990 -0.1863
  172SAPE   H4Y19529   1.544   2.903   7.425  0.4021  0.6517  0.4228
  172SAPE   C3519530   1.741   2.880   7.495  0.0322 -0.2573 -0.3838
  172SAPE   H5X19531   1.774   2.985   7.484 -0.6837 -0.0378 -0.4903
  172SAPE   H5Y19532   1.834   2.825   7.469  0.5393 -0.2410  1.2835
  172SAPE   C3619533   1.690   2.847   7.640  0.7833 -0.0951  0.2495
  172SAPE   H6X19534   1.658   2.740   7.632 -0.6617  0.3891 -0.9450
  172SAPE   H6Y19535   1.597   2.907   7.648  0.9763  0.5121 -1.5958
  172SAPE   C3719536   1.780   2.879   7.762  0.8364  0.6095 -0.4999
  172SAPE   H7X19537   1.804   2.988   7.754  2.0943  0.4586  0.9056
  172SAPE   H7Y19538   1.876   2.825   7.756  1.1206  0.6986  2.2203
  172SAPE   C3819539   1.704   2.868   7.896  0.1647  0.1618 -0.1352
  172SAPE   H8X19540   1.709   2.768   7.944  2.4251  0.4894  0.4046
  172SAPE   H8Y19541   1.595   2.889   7.899  0.4469  1.6474  2.1541
  172SAPE   C3919542   1.764   2.951   8.016  0.7085  0.2354  0.1967
  172SAPE   H9X19543   1.671   2.957   8.076  0.2016  1.4301 -0.6694
  172SAPE   H9Y19544   1.788   3.050   7.973  1.0591 -0.4945 -1.3857
  172SAPE  C31019545   1.887   2.892   8.084  0.1581  0.1934 -0.7423
  172SAPE  H10X19546   1.965   2.873   8.007  0.0130  0.0029 -0.8415
  172SAPE  H10Y19547   1.842   2.797   8.119  2.2827 -2.5072 -4.5147
  172SAPE  C31119548   1.940   2.987   8.194 -0.5021 -0.3008  0.6745
  172SAPE  H11X19549   1.853   3.027   8.251 -2.3393 -1.9167 -0.8569
  172SAPE  H11Y19550   1.995   3.068   8.142 -0.6833  0.2782  1.3691
  172SAPE  C31219551   2.040   2.912   8.294 -0.5014  0.3283  0.2884
  172SAPE  H12X19552   2.089   2.830   8.237  0.2164 -0.1573  1.5479
  172SAPE  H12Y19553   1.971   2.854   8.359  1.2603 -1.6437  0.5234
  172SAPE  C31319554   2.139   3.005   8.368  0.1358 -0.1401  0.3392
  172SAPE  H13X19555   2.094   3.086   8.429  0.1331 -1.3228  1.9775
  172SAPE  H13Y19556   2.195   3.060   8.289 -0.1668 -2.0300 -1.2618
  172SAPE  C31419557   2.249   2.932   8.448 -0.0617 -0.6353  0.6803
  172SAPE  H14X19558   2.331   3.007   8.460  0.2233 -0.7899 -0.2849
  172SAPE  H14Y19559   2.297   2.859   8.380 -0.8598  1.0410 -1.8098
  172SAPE  C31519560   2.207   2.877   8.586 -0.1842 -0.7396 -0.1138
  172SAPE  H15X19561   2.291   2.840   8.648 -0.1674  1.6419  1.4281
  172SAPE  H15Y19562   2.138   2.792   8.567  0.5375 -1.0001 -1.7584
  172SAPE  C31619563   2.115   2.969   8.669  0.4306 -0.4533  0.2320
  172SAPE  H16X19564   2.020   2.993   8.616  1.7241  1.1880 -1.4489
  172SAPE  H16Y19565   2.164   3.065   8.696  0.7084 -0.6159  0.3114
  172SAPE  C31719566   2.072   2.912   8.800 -0.3610 -0.1592 -0.3652
  172SAPE  H17X19567   2.167   2.904   8.857 -0.4427 -0.6302 -0.2889
  172SAPE  H17Y19568   2.028   2.810   8.804  0.1430 -0.3524  2.0759
  172SAPE  C31819569   1.983   2.999   8.887 -0.4898  0.3130 -0.0353
  172SAPE  H18X19570   1.879   3.001   8.846 -1.1528  0.8214  1.5953
  172SAPE  H18Y19571   2.015   3.104   8.896  0.2239  0.2208 -1.2689
  172SAPE  H18Z19572   1.982   2.971   8.995  2.0342  1.0755  0.2347
  173SOPE     N19573   3.655   2.775  10.889 -0.4151  0.6959  1.0454
  173SOPE   HN119574   3.663   2.810  10.987  2.4213  0.5194  0.9507
  173SOPE   HN219575   3.714   2.690  10.891  0.9795  1.6260  0.6618
  173SOPE   HN319576   3.699   2.835  10.817 -0.3086 -0.7720 -0.1636
  173SOPE   C1219577   3.515   2.753  10.859  0.0203  0.7014  0.1017
  173SOPE  H12A19578   3.473   2.853  10.833 -1.0618  0.3898  0.5710
  173SOPE  H12B19579   3.478   2.727  10.961  3.2354 -0.6952  1.0421
  173SOPE   C1119580   3.501   2.644  10.750 -0.1861  0.3441  0.2626
  173SOPE  H11A19581   3.550   2.672  10.655  1.2830 -0.0787  0.8741
  173SOPE  H11B19582   3.393   2.627  10.730 -0.2024 -0.7768  1.1850
  173SOPE     P19583   3.483   2.430  10.897 -0.3897  0.0186  0.0040
  173SOPE   O1319584   3.336   2.437  10.890 -0.2926 -0.0870 -0.1499
  173SOPE   O1419585   3.531   2.484  11.027  0.2242  0.1364 -0.8928
  173SOPE   O1219586   3.543   2.512  10.783  0.1630 -0.1465 -0.0536
  173SOPE   O1119587   3.542   2.286  10.880  0.1532  0.1009  0.4675
  173SOPE    C119588   3.476   2.176  10.810  0.2943  0.3401 -0.5788
  173SOPE    HA19589   3.367   2.172  10.831  0.6729  2.3808  2.5301
  173SOPE    HB19590   3.512   2.088  10.867 -1.0457 -0.1437 -0.4314
  173SOPE    C219591   3.511   2.175  10.661 -0.2495 -0.9761 -0.8001
  173SOPE    HS19592   3.622   2.181  10.657 -0.0619  4.1104  3.0787
  173SOPE   O2119593   3.450   2.293  10.603 -0.0385 -0.9306 -0.6677
  173SOPE   C2119594   3.511   2.331  10.495 -0.2858  0.5335 -0.1669
  173SOPE   O2219595   3.613   2.287  10.448  0.0579 -0.1544  0.6602
  173SOPE   C2219596   3.438   2.454  10.432  0.2131 -0.0091  0.0242
  173SOPE   H2R19597   3.497   2.541  10.469  0.4363 -0.8955  1.9204
  173SOPE   H2S19598   3.331   2.442  10.458 -0.5823 -0.3820 -3.1197
  173SOPE    C319599   3.457   2.047  10.593  0.4426 -0.5200 -0.4051
  173SOPE    HX19600   3.348   2.043  10.615  0.3625  0.3346 -0.5791
  173SOPE    HY19601   3.499   1.966  10.656 -0.2346  0.0592  0.8380
  173SOPE   O3119602   3.489   2.058  10.458 -0.1311 -0.2254  0.0594
  173SOPE   C3119603   3.584   1.977  10.421  0.4045  0.1107 -0.2371
  173SOPE   O3219604   3.642   1.895  10.493  0.5269 -0.2042  0.1974
  173SOPE   C3219605   3.618   1.997  10.268 -1.1784 -0.5787 -0.7796
  173SOPE   H2X19606   3.701   1.928  10.243 -1.7184 -2.6081  2.5255
  173SOPE   H2Y19607   3.642   2.105  10.260 -3.1695  0.1497  1.7078
  173SOPE   C2319608   3.459   2.460  10.274  0.0935  0.2581 -0.5724
  173SOPE   H3R19609   3.565   2.436  10.256  0.1982  0.2337  0.0390
  173SOPE   H3S19610   3.439   2.558  10.226  1.1056  0.1385 -1.2690
  173SOPE   C2419611   3.367   2.365  10.201 -0.4155 -0.3454  0.2868
  173SOPE   H4R19612   3.394   2.258  10.212  2.6825  0.2426 -0.7113
  173SOPE   H4S19613   3.269   2.378  10.252  0.4562 -0.4651  2.0628
  173SOPE   C2519614   3.374   2.400  10.050  0.5994 -0.1623  0.0381
  173SOPE   H5R19615   3.377   2.508  10.027 -0.4549 -0.0453  0.3771
  173SOPE   H5S19616   3.479   2.368  10.036  0.2743 -0.8222 -1.0038
  173SOPE   C2619617   3.261   2.321   9.972  0.1375 -0.3115 -0.2587
  173SOPE   H6R19618   3.258   2.214  10.003 -1.1677 -0.4891 -0.9048
  173SOPE   H6S19619   3.170   2.379   9.998  0.9529  0.8215  0.1655
  173SOPE   C2719620   3.268   2.334   9.822  0.1659 -0.7925  0.1445
  173SOPE   H7R19621   3.238   2.435   9.787 -0.8428 -1.0248  0.3185
  173SOPE   H7S19622   3.376   2.320   9.798 -0.1293 -0.8682 -1.1977
  173SOPE   C2819623   3.183   2.231   9.739  0.0209 -0.0545 -0.1265
  173SOPE   H8R19624   3.086   2.229   9.794  1.4812 -0.0657  2.6034
  173SOPE   H8S19625   3.167   2.285   9.643  1.8097  0.8772  0.0717
  173SOPE   C2919626   3.247   2.095   9.728 -0.0123  0.1293  0.3213
  173SOPE   H9119627   3.236   2.028   9.814 -2.4507  0.1876  0.1139
  173SOPE  C21019628   3.320   2.045   9.628 -0.1222 -0.1207 -0.4602
  173SOPE  H10119629   3.369   1.949   9.650  1.3173  0.9733  1.3800
  173SOPE  C21119630   3.361   2.117   9.502  0.2175 -0.3409 -0.1064
  173SOPE  H11R19631   3.468   2.095   9.484  0.1213 -0.9902  0.0873
  173SOPE  H11S19632   3.342   2.226   9.511 -1.6802 -0.6341 -0.0970
  173SOPE  C21219633   3.265   2.070   9.387  0.4183 -0.7299 -0.3219
  173SOPE  H12R19634   3.159   2.080   9.419  0.7366  0.6428  0.4084
  173SOPE  H12S19635   3.284   1.965   9.355 -3.0782 -1.7399  0.5715
  173SOPE  C21319636   3.279   2.165   9.269 -0.0907  0.3257  0.0030
  173SOPE  H13R19637   3.269   2.272   9.300 -3.0842 -0.0748  0.8270
  173SOPE  H13S19638   3.195   2.138   9.201 -0.7463  0.5764  0.6887
  173SOPE  C21419639   3.405   2.152   9.181  0.0382 -0.2331  0.6016
  173SOPE  H14R19640   3.406   2.055   9.127  0.3141 -0.3555  0.8206
  173SOPE  H14S19641   3.493   2.147   9.248  1.2083 -1.0054 -0.9249
  173SOPE  C21519642   3.415   2.273   9.081 -0.2803  0.2762  0.0589
  173SOPE  H15R19643   3.431   2.368   9.136  0.4824 -1.2671  2.6614
  173SOPE  H15S19644   3.312   2.272   9.040 -0.1418 -0.9210 -0.3248
  173SOPE  C21619645   3.519   2.242   8.968 -0.5946  0.0190 -0.5543
  173SOPE  H16R19646   3.500   2.142   8.923  1.0142 -0.3905 -0.3814
  173SOPE  H16S19647   3.615   2.244   9.023 -0.8985 -2.4848  0.2197
  173SOPE  C21719648   3.523   2.346   8.853  0.2411  0.6774 -0.1001
  173SOPE  H17R19649   3.630   2.348   8.823 -0.2976  0.8762 -2.1906
  173SOPE  H17S19650   3.493   2.440   8.902 -2.2929 -0.2684  0.2995
  173SOPE  C21819651   3.428   2.321   8.737 -0.5450 -0.5694  0.2949
  173SOPE  H18R19652   3.325   2.354   8.762  0.3308  1.3263  1.6388
  173SOPE  H18S19653   3.428   2.213   8.711 -1.7102 -0.2229 -1.2894
  173SOPE  H18T19654   3.461   2.391   8.657 -1.2182  1.8346  1.9781
  173SOPE   C3319655   3.491   1.972  10.187 -0.3383 -0.2782 -0.0582
  173SOPE   H3X19656   3.411   2.039  10.226 -0.6249 -0.9593  0.5416
  173SOPE   H3Y19657   3.456   1.867  10.189  1.0005 -0.7579 -0.6204
  173SOPE   C3419658   3.505   2.021  10.043  0.4024 -0.0451 -0.7062
  173SOPE   H4X19659   3.513   2.132  10.044 -3.3997  0.3711 -1.6193
  173SOPE   H4Y19660   3.404   2.009   9.999  0.4507 -0.2064 -0.7735
  173SOPE   C3519661   3.630   1.961   9.966  0.0531 -0.3007 -0.3549
  173SOPE   H5X19662   3.612   1.855   9.937  1.8808 -0.6805 -0.2265
  173SOPE   H5Y19663   3.719   1.976  10.031  0.4394  1.2982 -1.1962
  173SOPE   C3619664   3.656   2.042   9.838  0.3143 -0.0248  0.5333
  173SOPE   H6X19665   3.687   2.148   9.853 -0.8801  0.5702 -0.8874
  173SOPE   H6Y19666   3.559   2.046   9.784  0.4145 -0.4908  0.3186
  173SOPE   C3719667   3.753   1.967   9.747  0.3396  0.4536 -0.0149
  173SOPE   H7X19668   3.837   1.944   9.815  0.0508 -0.7750 -0.0565
  173SOPE   H7Y19669   3.785   2.043   9.673 -2.1700  2.9327  1.2508
  173SOPE   C3819670   3.691   1.837   9.691 -0.0628 -0.3232 -0.8097
  173SOPE   H8X19671   3.581   1.845   9.687 -0.0892  3.0801  1.6271
  173SOPE   H8Y19672   3.728   1.761   9.763  1.9330  0.2585 -1.1446
  173SOPE   C3919673   3.746   1.801   9.553 -0.3646  0.0490  0.0391
  173SOPE   H9X19674   3.740   1.690   9.551 -0.5016  0.0493  0.3226
  173SOPE   H9Y19675   3.851   1.834   9.545 -0.1352 -0.8076 -0.6440
  173SOPE  C31019676   3.656   1.860   9.437 -0.2362  0.6288 -0.3551
  173SOPE  H10X19677   3.653   1.971   9.445 -2.0604  0.6690 -1.0516
  173SOPE  H10Y19678   3.551   1.823   9.445 -0.1730 -0.6339 -3.6627
  173SOPE  C31119679   3.716   1.818   9.301 -0.2538 -0.7068 -0.3356
  173SOPE  H11X19680   3.709   1.708   9.284  0.9623 -1.1263  1.5608
  173SOPE  H11Y19681   3.826   1.833   9.297  0.0150 -2.4212  0.0032
  173SOPE  C31219682   3.649   1.895   9.182  0.2123  0.4714  0.0043
  173SOPE  H12X19683   3.682   2.001   9.182  1.4980  0.1404 -2.3263
  173SOPE  H12Y19684   3.539   1.894   9.192  0.3180 -0.0084  1.2989
  173SOPE  C31319685   3.704   1.826   9.052  0.0278  0.1795 -0.1557
  173SOPE  H13X19686   3.633   1.741   9.039 -0.4005  0.5888 -0.4993
  173SOPE  H13Y19687   3.806   1.785   9.073  0.4204  0.6435 -1.0916
  173SOPE  C31419688   3.689   1.923   8.937  0.6544 -0.3947  0.4408
  173SOPE  H14X19689   3.743   2.019   8.951  2.3939 -0.8042 -2.7448
  173SOPE  H14Y19690   3.580   1.948   8.940  0.9864  1.0711  2.2754
  173SOPE  C31519691   3.728   1.854   8.810  0.2289 -0.2151 -0.2290
  173SOPE  H15X19692   3.671   1.759   8.804 -3.6289  1.8785 -0.1618
  173SOPE  H15Y19693   3.831   1.815   8.817  0.2238 -0.4563 -1.3254
  173SOPE  C31619694   3.692   1.931   8.679 -0.2228 -0.1647  0.4345
  173SOPE  H16X19695   3.761   2.018   8.679 -0.5627  0.1180 -0.6407
  173SOPE  H16Y19696   3.584   1.955   8.681 -0.6336 -1.2678 -2.8212
  173SOPE  C31719697   3.718   1.844   8.552 -0.2933  0.4837  0.3945
  173SOPE  H17X19698   3.666   1.887   8.465  0.7104  1.7437  0.3882
  173SOPE  H17Y19699   3.663   1.748   8.564  0.9179 -0.2481  0.2257
  173SOPE  C31819700   3.871   1.829   8.523 -0.9765 -0.7201 -0.2079
  173SOPE  H18X19701   3.929   1.771   8.597 -0.4542 -0.6189 -0.5316
  173SOPE  H18Y19702   3.915   1.931   8.527 -0.6948 -0.8770  1.7676
  173SOPE  H18Z19703   3.894   1.787   8.423  2.5770 -1.7582  0.8858
  174SOPE     N19704   2.665   0.582  10.812 -0.7104  0.1721  0.0422
  174SOPE   HN119705   2.617   0.568  10.720 -0.7068  1.3225 -0.1417
  174SOPE   HN219706   2.767   0.577  10.791 -0.1487 -1.6314  2.6941
  174SOPE   HN319707   2.642   0.502  10.874  1.3596  0.2553  1.0021
  174SOPE   C1219708   2.642   0.718  10.869  0.3371 -0.1148  0.2000
  174SOPE  H12A19709   2.650   0.794  10.788 -4.2574  0.2225 -0.2246
  174SOPE  H12B19710   2.723   0.735  10.943  0.7907  0.3223 -0.3873
  174SOPE   C1119711   2.506   0.728  10.942  0.4070  0.4338  0.0783
  174SOPE  H11A19712   2.498   0.834  10.974  0.5248  0.3334  0.4463
  174SOPE  H11B19713   2.515   0.647  11.018  2.3641 -1.7163 -2.2445
  174SOPE     P19714   2.253   0.699  10.884 -0.3950 -0.0097  0.2923
  174SOPE   O1319715   2.186   0.805  10.807 -0.2092 -0.9222  0.2542
  174SOPE   O1419716   2.233   0.701  11.026  0.1445  0.1895 -0.2400
  174SOPE   O1219717   2.406   0.697  10.850  0.1162 -0.3476 -0.2681
  174SOPE   O1119718   2.209   0.560  10.826 -0.1322 -0.1915 -0.3149
  174SOPE    C119719   2.281   0.478  10.732  0.9047  0.5452 -0.2718
  174SOPE    HA19720   2.224   0.382  10.733  0.6087  0.6982 -1.3430
  174SOPE    HB19721   2.388   0.463  10.759  0.8965  0.2865 -0.3732
  174SOPE    C219722   2.264   0.517  10.585  0.3797  0.0017 -0.4098
  174SOPE    HS19723   2.314   0.433  10.532 -1.7901 -0.1567 -2.4061
  174SOPE   O2119724   2.317   0.653  10.568 -0.1873 -0.3184  0.9603
  174SOPE   C2119725   2.451   0.658  10.562  0.1875  0.2493 -0.0725
  174SOPE   O2219726   2.524   0.561  10.576 -0.0521 -0.4326 -0.0677
  174SOPE   C2219727   2.501   0.796  10.529 -0.8254 -0.8545  0.1614
  174SOPE   H2R19728   2.501   0.854  10.623 -0.3522  2.7484 -1.8658
  174SOPE   H2S19729   2.430   0.858  10.470  2.1666  1.6964 -1.0973
  174SOPE    C319730   2.120   0.521  10.542  0.3153  0.3953  0.3611
  174SOPE    HX19731   2.060   0.612  10.563 -1.5796 -0.1272 -2.2488
  174SOPE    HY19732   2.054   0.450  10.597 -0.1314  0.3060 -0.2791
  174SOPE   O3119733   2.107   0.492  10.400 -0.4951 -0.0769  0.7214
  174SOPE   C3119734   2.116   0.366  10.363  0.5989  0.1391  0.3625
  174SOPE   O3219735   2.145   0.270  10.438 -0.1380 -0.0648 -0.6973
  174SOPE   C3219736   2.094   0.348  10.210 -0.1677  0.0638 -0.0843
  174SOPE   H2X19737   2.050   0.441  10.170 -0.6568 -0.3032 -0.4155
  174SOPE   H2Y19738   2.025   0.262  10.194 -0.7066  0.3270  0.7341
  174SOPE   C2319739   2.641   0.789  10.455  0.0403 -0.3579 -0.4187
  174SOPE   H3R19740   2.716   0.738  10.520  0.5055  2.7237  1.7036
  174SOPE   H3S19741   2.672   0.896  10.452  2.3855 -0.8393  2.0933
  174SOPE   C2419742   2.633   0.747  10.308  0.1880 -0.2028  0.5292
  174SOPE   H4R19743   2.549   0.790  10.250 -0.3543 -1.5025  0.2988
  174SOPE   H4S19744   2.727   0.786  10.264 -1.4796  1.9249 -1.4303
  174SOPE   C2519745   2.640   0.595  10.276 -0.4572 -0.3453 -0.2983
  174SOPE   H5R19746   2.724   0.553  10.335  0.7102  0.3715 -1.4001
  174SOPE   H5S19747   2.541   0.554  10.306 -0.1775  0.0225  1.2512
  174SOPE   C2619748   2.648   0.579  10.123 -0.1531 -0.0148  0.2185
  174SOPE   H6R19749   2.565   0.630  10.069  0.8609 -0.3767 -1.7892
  174SOPE   H6S19750   2.744   0.619  10.085 -0.8515  1.2613 -0.2719
  174SOPE   C2719751   2.637   0.431  10.087  0.3726  0.5868  0.6191
  174SOPE   H7R19752   2.720   0.374  10.135  0.7480 -0.4156 -1.1264
  174SOPE   H7S19753   2.544   0.402  10.139  1.1067  0.8508  2.1331
  174SOPE   C2819754   2.658   0.409   9.940  0.8487  0.2425  0.2003
  174SOPE   H8R19755   2.743   0.472   9.909 -0.6083  3.4166  2.1318
  174SOPE   H8S19756   2.671   0.300   9.921 -0.0413  0.2089 -0.2891
  174SOPE   C2919757   2.537   0.452   9.860 -0.4912 -0.0456  0.3035
  174SOPE   H9119758   2.448   0.486   9.917 -0.1505  2.1898 -0.4072
  174SOPE  C21019759   2.537   0.455   9.723 -0.0958 -0.3012 -0.3870
  174SOPE  H10119760   2.444   0.479   9.669  0.5949  0.0535 -1.4681
  174SOPE  C21119761   2.666   0.427   9.651 -0.2433 -0.0968 -0.1347
  174SOPE  H11R19762   2.676   0.317   9.636 -4.3490 -0.5792 -0.2842
  174SOPE  H11S19763   2.759   0.472   9.694  0.1190 -1.4829  0.5998
  174SOPE  C21219764   2.656   0.493   9.513 -0.3863  0.9931 -0.2413
  174SOPE  H12R19765   2.621   0.598   9.513 -0.1535  1.0863  0.8864
  174SOPE  H12S19766   2.581   0.438   9.452 -0.5806 -1.2349  1.8470
  174SOPE  C21319767   2.790   0.496   9.442  0.3053 -0.2623  0.7834
  174SOPE  H13R19768   2.814   0.390   9.422  1.7213  0.2807 -0.5917
  174SOPE  H13S19769   2.876   0.512   9.511  1.4453 -2.0175 -0.1402
  174SOPE  C21419770   2.796   0.590   9.319  0.1054 -0.7205  0.4518
  174SOPE  H14R19771   2.898   0.594   9.275 -0.2603 -0.3194 -0.3872
  174SOPE  H14S19772   2.786   0.694   9.357  0.1126 -0.6266  0.2027
  174SOPE  C21519773   2.683   0.581   9.214 -0.3240  0.1340 -0.1727
  174SOPE  H15R19774   2.587   0.616   9.257 -0.9118 -0.9677 -0.5399
  174SOPE  H15S19775   2.679   0.472   9.190 -0.2475  0.5185 -2.1402
  174SOPE  C21619776   2.701   0.673   9.096  0.0370 -0.9100  0.5845
  174SOPE  H16R19777   2.800   0.659   9.047  0.1677  2.8648 -0.5414
  174SOPE  H16S19778   2.691   0.780   9.124 -0.2818 -0.4712 -1.1024
  174SOPE  C21719779   2.583   0.645   9.010  0.1195 -0.1544 -0.4229
  174SOPE  H17R19780   2.581   0.736   8.946  0.8119  0.3118  0.2068
  174SOPE  H17S19781   2.490   0.644   9.071  0.2114 -1.1968 -0.2878
  174SOPE  C21819782   2.587   0.516   8.922 -0.8553  0.2967  0.3122
  174SOPE  H18R19783   2.485   0.503   8.880 -0.5184  0.4168 -0.5643
  174SOPE  H18S19784   2.615   0.424   8.977  1.5418 -0.5547 -2.0929
  174SOPE  H18T19785   2.651   0.525   8.832 -1.3806 -0.9809 -0.2128
  174SOPE   C3319786   2.223   0.311  10.139 -1.2620  0.5341 -0.2108
  174SOPE   H3X19787   2.272   0.216  10.170 -0.8336  1.1840  1.1981
  174SOPE   H3Y19788   2.307   0.384  10.136  0.6203 -1.5654 -2.1174
  174SOPE   C3419789   2.192   0.281   9.984 -0.0824 -0.6129 -0.2494
  174SOPE   H4X19790   2.117   0.199   9.979 -0.6982 -0.0371 -0.6808
  174SOPE   H4Y19791   2.278   0.236   9.930  0.1099  0.3243 -0.7484
  174SOPE   C3519792   2.129   0.398   9.909  0.3600 -0.1409  0.6351
  174SOPE   H5X19793   2.169   0.490   9.958 -0.6382  0.3645  0.5216
  174SOPE   H5Y19794   2.020   0.390   9.930  0.1075 -0.9189 -0.8752
  174SOPE   C3619795   2.164   0.405   9.758 -0.8524  0.9122 -0.5051
  174SOPE   H6X19796   2.127   0.310   9.715  0.9746  0.2523 -0.7412
  174SOPE   H6Y19797   2.275   0.401   9.750 -0.6492 -0.4499  2.1260
  174SOPE   C3719798   2.099   0.527   9.693  0.3699  0.1640  0.3099
  174SOPE   H7X19799   2.102   0.617   9.757  1.4911 -0.8897  1.7964
  174SOPE   H7Y19800   1.991   0.506   9.678  0.7054 -0.7686 -1.1027
  174SOPE   C3819801   2.160   0.560   9.561 -0.2319  0.0865  0.7596
  174SOPE   H8X19802   2.266   0.585   9.579 -0.3263  1.5703 -0.4578
  174SOPE   H8Y19803   2.113   0.648   9.511  2.1770 -0.4877 -2.9174
  174SOPE   C3919804   2.151   0.443   9.458 -0.4403  0.5128  0.1355
  174SOPE   H9X19805   2.045   0.415   9.443 -0.4267 -0.1351  1.1884
  174SOPE   H9Y19806   2.212   0.355   9.492  0.8378  0.1836 -2.6991
  174SOPE  C31019807   2.209   0.471   9.319  0.2097  0.6494 -0.0953
  174SOPE  H10X19808   2.305   0.525   9.308 -0.1404  1.0746 -1.2591
  174SOPE  H10Y19809   2.129   0.534   9.274 -2.3749 -0.8058  2.1303
  174SOPE  C31119810   2.217   0.335   9.238  0.7107  0.5402  0.6424
  174SOPE  H11X19811   2.129   0.272   9.264 -0.4594  2.1645  0.7541
  174SOPE  H11Y19812   2.310   0.289   9.279  0.9618 -2.3410 -2.6835
  174SOPE  C31219813   2.218   0.345   9.084 -0.0731  0.0525  0.1789
  174SOPE  H12X19814   2.270   0.440   9.058 -0.6580  0.1568 -0.6430
  174SOPE  H12Y19815   2.115   0.356   9.045  0.0922  0.4538 -0.1614
  174SOPE  C31319816   2.286   0.224   9.021  0.5037  0.6233  0.4754
  174SOPE  H13X19817   2.246   0.133   9.069 -0.4808  1.2450  0.8637
  174SOPE  H13Y19818   2.397   0.229   9.030  0.7464  0.5146 -1.7619
  174SOPE  C31419819   2.264   0.224   8.872 -0.3663 -0.4640  0.5252
  174SOPE  H14X19820   2.273   0.326   8.830 -1.0265 -0.8195 -0.5501
  174SOPE  H14Y19821   2.158   0.200   8.850 -0.4284  0.4521 -0.2484
  174SOPE  C31519822   2.372   0.145   8.784 -0.6276 -0.0321  0.6468
  174SOPE  H15X19823   2.329   0.132   8.683 -1.6784  0.6951  0.9825
  174SOPE  H15Y19824   2.402   0.045   8.823 -1.5368 -1.5899 -2.3664
  174SOPE  C31619825   2.511   0.212   8.766 -0.1988 -0.3117  0.2126
  174SOPE  H16X19826   2.573   0.209   8.858  0.7482  0.4150 -0.3865
  174SOPE  H16Y19827   2.499   0.322   8.752 -1.8848 -0.2827  1.5735
  174SOPE  C31719828   2.596   0.149   8.654  0.4856  0.0003 -0.1154
  174SOPE  H17X19829   2.540   0.116   8.564 -0.4367 -0.5737  0.6478
  174SOPE  H17Y19830   2.643   0.052   8.684  0.1329 -0.4145 -0.8730
  174SOPE  C31819831   2.722   0.234   8.626  0.7132 -0.5368 -0.9880
  174SOPE  H18X19832   2.807   0.227   8.697  0.7235 -0.3286 -0.9799
  174SOPE  H18Y19833   2.692   0.340   8.619  1.2747 -0.3503 -0.6191
  174SOPE  H18Z19834   2.768   0.194   8.533  3.2230 -0.5690  0.1791
  175SOPE     N19835   5.921   1.226  10.880  0.5106  0.1761 -0.4456
  175SOPE   HN119836   5.992   1.168  10.929  0.1201 -0.5972 -0.7726
  175SOPE   HN219837   5.933   1.328  10.891  2.1979 -0.0368 -0.0490
  175SOPE   HN319838   5.826   1.200  10.913  0.8078 -2.3567 -1.3267
  175SOPE   C1219839   5.909   1.211  10.734 -0.4576  0.5044  0.1548
  175SOPE  H12A19840   6.010   1.175  10.702 -0.6966  0.6958 -0.8409
  175SOPE  H12B19841   5.879   1.308  10.689 -0.9342 -1.0610 -3.2492
  175SOPE   C1119842   5.803   1.103  10.699 -0.2665  0.7829  0.0608
  175SOPE  H11A19843   5.821   1.012  10.760 -1.7173 -0.3441 -1.1034
  175SOPE  H11B19844   5.807   1.067  10.594 -0.2054  0.8566  0.0373
  175SOPE     P19845   5.588   1.110  10.844 -0.2246 -0.3668 -0.0999
  175SOPE   O1319846   5.449   1.163  10.843  0.3553  0.3378  0.0209
  175SOPE   O1419847   5.670   1.159  10.960 -0.0695 -0.1040  0.1864
  175SOPE   O1219848   5.673   1.160  10.719 -0.4372  0.3785  0.3366
  175SOPE   O1119849   5.593   0.955  10.842 -0.1673 -0.1120  0.4521
  175SOPE    C119850   5.485   0.880  10.783  0.5543  0.1436 -0.2989
  175SOPE    HA19851   5.388   0.935  10.778  0.2085 -0.1710  2.0401
  175SOPE    HB19852   5.463   0.794  10.850  1.2518 -0.7631 -1.1994
  175SOPE    C219853   5.515   0.824  10.651 -0.2006  0.0032  0.4620
  175SOPE    HS19854   5.621   0.791  10.662  1.1661  2.0631 -4.1504
  175SOPE   O2119855   5.501   0.925  10.548 -0.3522  0.0245 -0.0439
  175SOPE   C2119856   5.601   0.945  10.462 -0.4812 -0.7198  0.7069
  175SOPE   O2219857   5.708   0.891  10.457 -0.6793 -0.6089  0.3244
  175SOPE   C2219858   5.551   1.047  10.360  0.0514  0.2850 -0.5333
  175SOPE   H2R19859   5.546   1.135  10.427  1.9345 -2.1504  3.1566
  175SOPE   H2S19860   5.454   1.011  10.319  1.3025 -0.7003 -2.7773
  175SOPE    C319861   5.435   0.696  10.601  0.5031  0.0701  0.5817
  175SOPE    HX19862   5.332   0.734  10.584 -0.0333 -0.7186  1.9130
  175SOPE    HY19863   5.407   0.622  10.679 -1.0788  1.0765  1.0161
  175SOPE   O3119864   5.477   0.640  10.478 -0.2696 -0.4919 -0.1280
  175SOPE   C3119865   5.582   0.572  10.495  0.6536  0.0525  0.3639
  175SOPE   O3219866   5.645   0.551  10.599 -0.2855  0.2411 -0.7125
  175SOPE   C3219867   5.624   0.519  10.356 -0.1072 -0.4128  0.0413
  175SOPE   H2X19868   5.557   0.435  10.330  1.7033 -1.8740 -0.0885
  175SOPE   H2Y19869   5.716   0.461  10.377 -0.2649 -0.7477 -0.1926
  175SOPE   C2319870   5.643   1.070  10.245 -0.1204  0.0185 -0.0313
  175SOPE   H3R19871   5.653   0.976  10.186  0.0546  1.6377 -2.7532
  175SOPE   H3S19872   5.748   1.091  10.275 -0.6896  1.5517  1.0192
  175SOPE   C2419873   5.592   1.172  10.148 -0.0800 -0.0196 -0.4944
  175SOPE   H4R19874   5.486   1.143  10.136  0.2455 -2.3607  1.5057
  175SOPE   H4S19875   5.580   1.267  10.204 -3.5971 -1.0992  0.8282
  175SOPE   C2519876   5.659   1.191  10.014 -0.0980  0.0695  0.5194
  175SOPE   H5R19877   5.729   1.277  10.026 -0.3104  0.0647  1.9003
  175SOPE   H5S19878   5.712   1.097   9.988  0.7289  0.5939  0.2553
  175SOPE   C2619879   5.552   1.223   9.910  0.4327 -0.0099 -0.0257
  175SOPE   H6R19880   5.473   1.146   9.904  2.3933 -2.0793 -0.9139
  175SOPE   H6S19881   5.504   1.321   9.931 -0.2177 -0.5620  1.1413
  175SOPE   C2719882   5.627   1.230   9.776 -0.0143 -0.3311 -0.6971
  175SOPE   H7R19883   5.699   1.315   9.773 -1.9127  1.4760  1.3688
  175SOPE   H7S19884   5.692   1.143   9.756  1.1996 -0.0244  1.5614
  175SOPE   C2819885   5.533   1.250   9.664  0.5087  0.3319  0.0251
  175SOPE   H8R19886   5.446   1.315   9.686 -0.8330 -0.8909 -1.4313
  175SOPE   H8S19887   5.590   1.290   9.577 -0.8499  0.5929 -0.7752
  175SOPE   C2919888   5.481   1.115   9.624  0.2993 -0.0232 -0.3366
  175SOPE   H9119889   5.419   1.058   9.695  1.7693 -1.3830 -0.1178
  175SOPE  C21019890   5.495   1.059   9.503  0.1226  0.3992 -0.1765
  175SOPE  H10119891   5.478   0.951   9.493  1.6569  0.1487 -0.1943
  175SOPE  C21119892   5.565   1.126   9.385  0.4005  0.1727 -0.7433
  175SOPE  H11R19893   5.601   1.056   9.307  1.5825  0.1740 -0.2226
  175SOPE  H11S19894   5.659   1.177   9.415 -0.6254  2.3824 -1.1344
  175SOPE  C21219895   5.469   1.223   9.316  0.1561  0.6566 -0.1487
  175SOPE  H12R19896   5.466   1.305   9.390 -0.3991 -1.4781  2.3550
  175SOPE  H12S19897   5.372   1.177   9.286  0.5092  0.8852 -1.7360
  175SOPE  C21319898   5.529   1.266   9.173  0.6290  0.0871 -0.0258
  175SOPE  H13R19899   5.512   1.183   9.101  3.8890 -0.2922 -0.4901
  175SOPE  H13S19900   5.638   1.287   9.175  0.5717  0.7156 -2.1078
  175SOPE  C21419901   5.443   1.377   9.126  0.8430 -0.3142 -0.0552
  175SOPE  H14R19902   5.443   1.464   9.195  0.0543  0.6265 -1.1957
  175SOPE  H14S19903   5.337   1.346   9.111  0.8825 -0.0075 -1.0727
  175SOPE  C21519904   5.488   1.430   8.988  0.0446 -0.2680  0.3372
  175SOPE  H15R19905   5.491   1.345   8.917 -0.7193  0.2794 -0.3614
  175SOPE  H15S19906   5.590   1.473   9.001 -0.2375  0.4912  0.1010
  175SOPE  C21619907   5.394   1.541   8.932 -0.2709 -0.0543  0.5262
  175SOPE  H16R19908   5.391   1.625   9.005  0.5298 -0.2332  0.7733
  175SOPE  H16S19909   5.290   1.503   8.926 -0.2062 -0.3203  1.0525
  175SOPE  C21719910   5.442   1.587   8.789 -0.2334 -0.0309 -0.3568
  175SOPE  H17R19911   5.549   1.617   8.792 -0.2380  0.1145 -1.3664
  175SOPE  H17S19912   5.386   1.679   8.763 -0.8552 -0.7262 -1.5941
  175SOPE  C21819913   5.441   1.488   8.668  0.4638  0.3109 -0.1278
  175SOPE  H18R19914   5.342   1.443   8.648  0.4615  0.4142 -0.3498
  175SOPE  H18S19915   5.494   1.394   8.694 -0.0889 -0.2462 -0.9585
  175SOPE  H18T19916   5.473   1.529   8.570 -0.7704 -1.5137 -1.3581
  175SOPE   C3319917   5.648   0.624  10.250 -0.3819  0.3794 -0.0573
  175SOPE   H3X19918   5.702   0.571  10.169 -1.6454  0.7777 -1.1921
  175SOPE   H3Y19919   5.712   0.709  10.283  1.6072 -0.8661 -0.6054
  175SOPE   C3419920   5.516   0.670  10.202 -0.1435 -0.3805  0.2719
  175SOPE   H4X19921   5.472   0.747  10.270 -1.5473 -0.6910 -0.2509
  175SOPE   H4Y19922   5.435   0.594  10.206  0.4469 -1.0031  0.5758
  175SOPE   C3519923   5.510   0.713  10.055 -0.8924 -0.0048  0.0960
  175SOPE   H5X19924   5.524   0.622   9.993  0.3999 -0.3218  0.8161
  175SOPE   H5Y19925   5.594   0.779  10.024  1.1149 -1.8007  1.4305
  175SOPE   C3619926   5.373   0.775  10.005 -0.2954  0.1972 -0.5208
  175SOPE   H6X19927   5.350   0.868  10.061 -2.2260 -1.1987  1.1690
  175SOPE   H6Y19928   5.287   0.711  10.034 -1.7113  1.1354 -2.4760
  175SOPE   C3719929   5.368   0.806   9.859 -0.2490 -0.1180 -0.5009
  175SOPE   H7X19930   5.437   0.746   9.795 -3.1360 -1.9987 -2.0882
  175SOPE   H7Y19931   5.394   0.913   9.848 -0.4386  0.3730  2.9340
  175SOPE   C3819932   5.237   0.774   9.783 -0.3425  0.3888  1.0162
  175SOPE   H8X19933   5.163   0.853   9.807  0.5429  0.2749  4.5777
  175SOPE   H8Y19934   5.208   0.672   9.817 -1.3848 -0.3913 -1.8572
  175SOPE   C3919935   5.254   0.771   9.626  0.6021  0.2416 -0.3597
  175SOPE   H9X19936   5.330   0.695   9.600 -0.2882 -0.5013 -0.8366
  175SOPE   H9Y19937   5.288   0.867   9.581 -0.0952  0.2824 -0.8151
  175SOPE  C31019938   5.113   0.746   9.561 -0.0602 -0.3966  0.2902
  175SOPE  H10X19939   5.053   0.838   9.575 -1.0613 -1.1867  1.4759
  175SOPE  H10Y19940   5.067   0.656   9.608 -1.0138 -0.8324 -1.4040
  175SOPE  C31119941   5.134   0.726   9.404 -0.3357  0.2298 -0.1403
  175SOPE  H11X19942   5.033   0.687   9.377 -0.9832  0.7589  1.4254
  175SOPE  H11Y19943   5.217   0.656   9.385 -0.6699 -0.4707  0.9058
  175SOPE  C31219944   5.181   0.864   9.343  0.0179  0.5223  0.1830
  175SOPE  H12X19945   5.291   0.874   9.356  0.3390 -0.9565 -1.1693
  175SOPE  H12Y19946   5.133   0.944   9.404  1.2754  0.4752  1.2954
  175SOPE  C31319947   5.143   0.879   9.192 -0.5249  0.7355  0.2334
  175SOPE  H13X19948   5.042   0.833   9.179  0.2033 -1.3143  1.3501
  175SOPE  H13Y19949   5.208   0.817   9.127 -0.7543  0.2379  0.4708
  175SOPE  C31419950   5.124   1.021   9.141 -0.3442 -0.7082 -0.4779
  175SOPE  H14X19951   5.217   1.077   9.166 -2.4311  1.9273  1.9877
  175SOPE  H14Y19952   5.043   1.056   9.208 -1.1870 -1.2759 -1.1714
  175SOPE  C31519953   5.093   1.025   8.993 -0.4710  0.0189  0.7107
  175SOPE  H15X19954   5.007   0.960   8.965 -0.5696  1.6312 -3.4588
  175SOPE  H15Y19955   5.173   0.976   8.933 -0.1159 -0.6056  1.6713
  175SOPE  C31619956   5.054   1.157   8.932  0.2029  0.7634 -0.2113
  175SOPE  H16X19957   5.155   1.198   8.909  1.3959 -1.5508  0.5716
  175SOPE  H16Y19958   5.003   1.203   9.019  1.0016  0.8446  0.2236
  175SOPE  C31719959   4.959   1.151   8.802 -0.4640 -0.6371  0.2226
  175SOPE  H17X19960   4.941   1.255   8.768 -1.2618 -1.1776 -1.1148
  175SOPE  H17Y19961   4.863   1.100   8.821 -0.7431 -0.1537  0.1266
  175SOPE  C31819962   5.023   1.071   8.687  0.0442 -0.5307 -0.0523
  175SOPE  H18X19963   5.035   0.966   8.719  1.1740 -0.9683 -1.7782
  175SOPE  H18Y19964   5.127   1.102   8.665  0.7691 -1.5413  1.7971
  175SOPE  H18Z19965   4.960   1.078   8.595  1.1098  2.0981 -0.6940
  176SOPE     N19966   5.706   0.600  11.039  0.2169  0.2886  0.5528
  176SOPE   HN119967   5.758   0.678  10.993  0.6177 -0.8205 -0.9223
  176SOPE   HN219968   5.703   0.527  10.965  1.5276  1.5022 -0.7700
  176SOPE   HN319969   5.610   0.640  11.048 -0.3856 -1.2203  1.1887
  176SOPE   C1219970   5.766   0.545  11.165 -0.6115  0.0968 -0.0866
  176SOPE  H12A19971   5.687   0.497  11.228 -0.0851 -0.9634 -0.2190
  176SOPE  H12B19972   5.820   0.624  11.222 -0.9979 -0.5766  1.2590
  176SOPE   C1119973   5.854   0.426  11.133 -0.2473  0.7205 -0.3103
  176SOPE  H11A19974   5.802   0.341  11.084 -1.3133  1.2612 -0.1594
  176SOPE  H11B19975   5.883   0.391  11.234  1.0155  0.6210 -0.6959
  176SOPE     P19976   6.083   0.358  11.030  0.1033  0.2259 -0.3704
  176SOPE   O1319977   6.042   0.220  11.033  0.2069  0.1843 -0.7532
  176SOPE   O1419978   6.197   0.393  11.117  0.2722 -0.4252  0.0315
  176SOPE   O1219979   5.970   0.466  11.052 -0.4166  0.4310  0.2939
  176SOPE   O1119980   6.123   0.393  10.882 -0.8748  0.1706 -0.1659
  176SOPE    C119981   6.057   0.486  10.793 -0.4313  0.4718 -0.1693
  176SOPE    HA19982   6.086   0.590  10.821 -0.0846  0.2398  0.3665
  176SOPE    HB19983   5.948   0.487  10.809 -0.8432  3.2421 -2.3829
  176SOPE    C219984   6.084   0.467  10.638 -0.4044  0.0844  0.8070
  176SOPE    HS19985   5.999   0.523  10.593  0.9582  1.8951  0.3948
  176SOPE   O2119986   6.090   0.334  10.598 -0.1715 -0.0581 -0.3317
  176SOPE   C2119987   5.968   0.264  10.616  0.0545  0.0722  0.1647
  176SOPE   O2219988   5.869   0.316  10.664  0.4401  0.1597 -0.0588
  176SOPE   C2219989   5.967   0.126  10.557 -0.0248  0.7985  0.1058
  176SOPE   H2R19990   5.914   0.062  10.631 -0.9257  0.8555 -0.4847
  176SOPE   H2S19991   6.069   0.082  10.551 -0.7904 -1.0621  0.0716
  176SOPE    C319992   6.213   0.526  10.594 -0.2839 -0.0412  0.6914
  176SOPE    HX19993   6.295   0.467  10.640  1.3354  0.7415 -1.0489
  176SOPE    HY19994   6.207   0.631  10.630 -0.1316 -0.8814  3.3566
  176SOPE   O3119995   6.214   0.526  10.451 -0.1691  0.1211 -0.3590
  176SOPE   C3119996   6.275   0.421  10.386  0.2226 -0.4807 -0.1290
  176SOPE   O3219997   6.330   0.331  10.451  0.9251 -0.2410  0.5190
  176SOPE   C3219998   6.275   0.444  10.230 -0.0990  0.0176  0.5066
  176SOPE   H2X19999   6.290   0.552  10.210  1.3447 -0.1215  0.6700
  176SOPE   H2Y20000   6.176   0.408  10.196  0.0923 -1.1230  1.0947
  176SOPE   C2320001   5.892   0.123  10.430  0.3585 -0.6215  0.0172
  176SOPE   H3R20002   5.796   0.179  10.445  0.9324 -0.2648  3.1520
  176SOPE   H3S20003   5.868   0.019  10.399 -1.5934  0.3748 -2.1082
  176SOPE   C2420004   5.971   0.190  10.317  0.3206  0.3696 -0.5586
  176SOPE   H4R20005   5.998   0.290  10.356  0.5362 -0.5635  1.8719
  176SOPE   H4S20006   6.070   0.144  10.296 -0.4798 -1.2173 -1.0011
  176SOPE   C2520007   5.879   0.227  10.194 -0.0310  0.0034 -0.3385
  176SOPE   H5R20008   5.823   0.317  10.228  0.2639 -0.1205  0.5134
  176SOPE   H5S20009   5.950   0.272  10.120 -0.4250  2.3402  0.6014
  176SOPE   C2620010   5.794   0.105  10.135  0.5392  0.0593  0.1377
  176SOPE   H6R20011   5.859   0.014  10.144 -1.3893 -1.3534  0.3804
  176SOPE   H6S20012   5.704   0.082  10.196 -0.1407  1.1957 -0.4193
  176SOPE   C2720013   5.748   0.128   9.993  0.8624 -0.6551  0.2101
  176SOPE   H7R20014   5.677   0.213   9.984  0.2209 -1.0403  1.3654
  176SOPE   H7S20015   5.834   0.152   9.927 -0.4024  0.0378 -1.2707
  176SOPE   C2820016   5.676   0.005   9.926 -0.9186 -0.1693  0.4839
  176SOPE   H8R20017   5.578  -0.022   9.970 -1.0501  0.9186  0.9064
  176SOPE   H8S20018   5.639   0.038   9.827 -1.6135  0.3577  0.9083
  176SOPE   C2920019   5.768  -0.112   9.903  0.5594 -0.3499 -0.0172
  176SOPE   H9120020   5.874  -0.082   9.908  0.4015  0.9484 -2.6346
  176SOPE  C21020021   5.728  -0.234   9.869  0.2434 -0.8393  0.2364
  176SOPE  H10120022   5.804  -0.310   9.844  0.1053 -2.0095  2.9987
  176SOPE  C21120023   5.585  -0.280   9.844  0.1992 -0.0182 -0.5318
  176SOPE  H11R20024   5.588  -0.359   9.766 -4.4265 -1.3151  0.2739
  176SOPE  H11S20025   5.529  -0.202   9.788 -2.9092 -0.6977  1.3707
  176SOPE  C21220026   5.511  -0.345   9.964 -0.2318 -0.5966  0.5435
  176SOPE  H12R20027   5.437  -0.413   9.916 -0.8510 -1.9197  3.1518
  176SOPE  H12S20028   5.457  -0.268  10.023  1.9353  1.4007  0.0767
  176SOPE  C21320029   5.594  -0.424  10.062  0.2750  0.2189  0.1632
  176SOPE  H13R20030   5.670  -0.361  10.113  2.1028 -1.7879  0.0422
  176SOPE  H13S20031   5.650  -0.495   9.998 -2.2921 -2.1161  0.3235
  176SOPE  C21420032   5.513  -0.513  10.157 -0.4366  0.1735  0.7254
  176SOPE  H14R20033   5.432  -0.566  10.102 -0.5277  0.2762  0.7587
  176SOPE  H14S20034   5.452  -0.450  10.225 -0.9977 -1.5878  1.9334
  176SOPE  C21520035   5.594  -0.619  10.237 -0.1337  0.4971  0.8723
  176SOPE  H15R20036   5.693  -0.578  10.268  0.5081 -0.0096 -0.4265
  176SOPE  H15S20037   5.622  -0.702  10.169 -0.5819 -0.6344  2.0371
  176SOPE  C21620038   5.525  -0.653  10.365  0.2252  0.0351 -0.7226
  176SOPE  H16R20039   5.539  -0.570  10.438 -1.7528 -1.3508  1.3592
  176SOPE  H16S20040   5.569  -0.742  10.416 -3.1478 -0.6303  1.3643
  176SOPE  C21720041   5.385  -0.691  10.347  0.1824  0.1298  0.6202
  176SOPE  H17R20042   5.382  -0.786  10.290 -0.0947  0.9631 -0.8122
  176SOPE  H17S20043   5.328  -0.616  10.288 -1.7266 -1.2174  0.6750
  176SOPE  C21820044   5.322  -0.722  10.482 -0.2728 -0.3914 -0.5323
  176SOPE  H18R20045   5.250  -0.642  10.510  2.1130  0.9324  2.3963
  176SOPE  H18S20046   5.400  -0.734  10.561  0.6512 -0.7313 -1.4811
  176SOPE  H18T20047   5.265  -0.816  10.467 -0.9217 -0.3243  1.2763
  176SOPE   C3320048   6.388   0.356  10.157 -0.2587 -0.4253  0.0479
  176SOPE   H3X20049   6.400   0.249  10.185 -1.0916 -0.9344 -1.3933
  176SOPE   H3Y20050   6.476   0.410  10.197 -1.8301  3.0825 -0.8260
  176SOPE   C3420051   6.393   0.381  10.013 -0.2104  0.1679 -0.3209
  176SOPE   H4X20052   6.476   0.321   9.969  2.0361  1.4929  1.8755
  176SOPE   H4Y20053   6.410   0.487   9.984 -0.8071  1.2707  3.0204
  176SOPE   C3520054   6.269   0.327   9.931  0.5893  0.2417 -0.8418
  176SOPE   H5X20055   6.186   0.392   9.966  1.9394  1.9421 -0.7269
  176SOPE   H5Y20056   6.262   0.221   9.966  1.5528 -0.1283 -1.7211
  176SOPE   C3620057   6.267   0.344   9.783 -0.1001  0.6156 -0.1093
  176SOPE   H6X20058   6.333   0.260   9.754 -0.8402 -0.7104  1.8243
  176SOPE   H6Y20059   6.299   0.447   9.756 -0.3975  1.2888  1.9662
  176SOPE   C3720060   6.129   0.303   9.733  0.2290  0.9112  0.4043
  176SOPE   H7X20061   6.051   0.362   9.785  0.6102  1.5648  0.2469
  176SOPE   H7Y20062   6.111   0.194   9.736  0.9182  0.7151 -1.4083
  176SOPE   C3820063   6.119   0.334   9.577  0.3024  0.4272 -0.0331
  176SOPE   H8X20064   6.153   0.440   9.574  2.1434 -0.1511 -0.7558
  176SOPE   H8Y20065   6.011   0.340   9.551 -0.4518 -0.7231  2.4556
  176SOPE   C3920066   6.201   0.240   9.490  0.2865 -0.0412 -0.2547
  176SOPE   H9X20067   6.178   0.137   9.526 -0.2751  0.1174 -0.1490
  176SOPE   H9Y20068   6.307   0.256   9.516 -0.0763  1.8094  0.2046
  176SOPE  C31020069   6.170   0.261   9.341  0.5292  0.5355 -0.2971
  176SOPE  H10X20070   6.254   0.223   9.280  0.2390  0.9638 -0.9799
  176SOPE  H10Y20071   6.161   0.367   9.309 -1.8823 -0.1186 -2.0123
  176SOPE  C31120072   6.040   0.188   9.284  0.0619  0.7910  0.2572
  176SOPE  H11X20073   5.949   0.222   9.337 -1.1526 -0.2639 -1.0795
  176SOPE  H11Y20074   6.049   0.081   9.311 -1.5940  0.5771  0.0689
  176SOPE  C31220075   6.003   0.199   9.135 -0.2288  0.4504 -0.1931
  176SOPE  H12X20076   6.089   0.180   9.068  1.6780  4.3139  0.8691
  176SOPE  H12Y20077   5.981   0.307   9.125 -0.0217  0.4752 -0.3949
  176SOPE  C31320078   5.880   0.121   9.107 -0.0917 -0.0402  0.3108
  176SOPE  H13X20079   5.811   0.145   9.191 -0.4313  1.0338 -0.2568
  176SOPE  H13Y20080   5.909   0.017   9.134 -1.5662 -0.7944 -0.8978
  176SOPE  C31420081   5.815   0.153   8.972  0.9574 -0.9578  0.0548
  176SOPE  H14X20082   5.890   0.135   8.893  2.7386 -0.3078  1.5428
  176SOPE  H14Y20083   5.795   0.262   8.969  1.7541 -0.7555  1.4210
  176SOPE  C31520084   5.685   0.071   8.956 -0.4032 -0.5005 -0.3094
  176SOPE  H15X20085   5.724  -0.032   8.972  1.8630  0.2380 -0.7695
  176SOPE  H15Y20086   5.642   0.077   8.854 -1.0154 -1.5788 -0.1359
  176SOPE  C31620087   5.561   0.098   9.049  0.6926  0.0625 -0.2863
  176SOPE  H16X20088   5.505   0.191   9.026 -0.3511  0.1711  2.3191
  176SOPE  H16Y20089   5.599   0.106   9.153 -1.0112  0.9391  0.3052
  176SOPE  C31720090   5.462  -0.018   9.048  0.7005 -0.3056 -0.2904
  176SOPE  H17X20091   5.522  -0.107   9.077  2.5200 -0.2213 -3.3739
  176SOPE  H17Y20092   5.420  -0.032   8.946 -2.2450 -0.3444  0.8424
  176SOPE  C31820093   5.344   0.014   9.140 -0.6448 -0.5092  0.3719
  176SOPE  H18X20094   5.311   0.117   9.113  0.7749 -0.3882 -1.0502
  176SOPE  H18Y20095   5.376   0.015   9.246  0.6123  0.4842  0.0109
  176SOPE  H18Z20096   5.263  -0.054   9.107 -0.3860  0.2481 -2.0188
  177SOPE     N20097   4.569   4.775  10.870  0.7330 -0.5816 -0.1363
  177SOPE   HN120098   4.649   4.832  10.904  2.0934 -2.1512 -0.5708
  177SOPE   HN220099   4.610   4.691  10.825 -1.3674 -2.4680  1.2120
  177SOPE   HN320100   4.509   4.819  10.798  0.5004  1.5606  1.2517
  177SOPE   C1220101   4.486   4.721  10.987  0.8046  0.3869 -0.1399
  177SOPE  H12A20102   4.557   4.689  11.067  0.4133 -0.6616 -0.1897
  177SOPE  H12B20103   4.436   4.624  10.964 -0.2262  1.2951 -1.9229
  177SOPE   C1120104   4.388   4.825  11.038  0.5769  0.6240  0.3469
  177SOPE  H11A20105   4.338   4.781  11.127 -0.7667 -0.0216 -0.6962
  177SOPE  H11B20106   4.306   4.830  10.963  0.0687 -2.9689  0.5034
  177SOPE     P20107   4.379   5.077  11.003  0.0225  0.2060 -0.1849
  177SOPE   O1320108   4.468   5.193  11.016  0.3619  0.0280  0.1172
  177SOPE   O1420109   4.246   5.079  11.074  0.1719  0.7696 -0.0795
  177SOPE   O1220110   4.453   4.951  11.060 -0.1574 -0.6890 -0.0374
  177SOPE   O1120111   4.369   5.034  10.852  0.7870 -0.0745 -0.1240
  177SOPE    C120112   4.252   5.057  10.778 -0.3370  0.2507 -0.4116
  177SOPE    HA20113   4.230   5.166  10.771  0.6661  0.5986  1.3386
  177SOPE    HB20114   4.166   5.009  10.829  1.7475 -2.6408  0.6448
  177SOPE    C220115   4.252   5.001  10.633 -0.3435 -0.4459  0.2099
  177SOPE    HS20116   4.263   4.891  10.636  0.0851 -0.3835  1.5540
  177SOPE   O2120117   4.364   5.070  10.555  0.4188  0.8045 -0.4786
  177SOPE   C2120118   4.476   5.007  10.565 -0.3476 -0.1777  0.2516
  177SOPE   O2220119   4.499   4.898  10.620 -0.2383  0.1208 -1.1349
  177SOPE   C2220120   4.566   5.061  10.458  0.4832  0.5276  0.3232
  177SOPE   H2R20121   4.660   5.004  10.465 -0.2919 -0.6151  2.0252
  177SOPE   H2S20122   4.580   5.169  10.478  0.8697  0.8151 -1.3528
  177SOPE    C320123   4.120   5.027  10.562 -0.4879 -0.3888  0.0103
  177SOPE    HX20124   4.104   5.137  10.562  2.4859  0.1299 -1.7224
  177SOPE    HY20125   4.042   4.980  10.626 -1.9774 -0.1465 -1.5263
  177SOPE   O3120126   4.112   4.978  10.433 -0.3550 -0.4005  0.7615
  177SOPE   C3120127   4.078   4.853  10.408 -0.1904 -0.2534 -0.0102
  177SOPE   O3220128   4.052   4.774  10.494 -0.1872 -0.0143 -0.3740
  177SOPE   C3220129   4.090   4.815  10.265  0.0852 -0.1056  0.1424
  177SOPE   H2X20130   4.187   4.768  10.240  0.2997 -0.5788  1.7032
  177SOPE   H2Y20131   4.084   4.914  10.215 -1.3048  0.2091  0.8700
  177SOPE   C2320132   4.532   5.060  10.306 -0.1376  0.2109  0.8123
  177SOPE   H3R20133   4.593   5.136  10.253  1.6487 -1.7974 -0.1518
  177SOPE   H3S20134   4.423   5.078  10.297  0.3270  3.0358 -0.2681
  177SOPE   C2420135   4.563   4.924  10.235  0.5814 -0.0338  0.3703
  177SOPE   H4R20136   4.670   4.893  10.242  0.1957 -2.0927 -1.6018
  177SOPE   H4S20137   4.493   4.850  10.278  1.0116 -0.3408  0.5534
  177SOPE   C2520138   4.537   4.923  10.084  0.1976 -0.3892 -0.1788
  177SOPE   H5R20139   4.437   4.966  10.062  0.3666  0.0577 -0.0667
  177SOPE   H5S20140   4.617   4.980  10.032 -2.2382  2.2348 -1.2844
  177SOPE   C2620141   4.522   4.775  10.029  0.0626 -1.0819 -0.7604
  177SOPE   H6R20142   4.615   4.713  10.028 -0.6742 -2.2645  0.4888
  177SOPE   H6S20143   4.454   4.725  10.102 -0.3828  1.1509  0.4483
  177SOPE   C2720144   4.454   4.766   9.893  0.1470  0.1360 -0.5894
  177SOPE   H7R20145   4.477   4.666   9.848  1.0008 -0.7418  1.6637
  177SOPE   H7S20146   4.346   4.794   9.893  0.9815  3.8657 -1.2061
  177SOPE   C2820147   4.511   4.879   9.802 -0.0844  0.6793  0.2432
  177SOPE   H8R20148   4.435   4.885   9.720 -1.8032  0.6913  1.7760
  177SOPE   H8S20149   4.493   4.979   9.846 -0.7713  0.7676 -0.2096
  177SOPE   C2920150   4.646   4.847   9.756 -0.8631 -0.3331  0.0891
  177SOPE   H9120151   4.725   4.868   9.829  0.7221 -1.5889 -1.1723
  177SOPE  C21020152   4.684   4.811   9.633  0.5013  0.4894  0.7743
  177SOPE  H10120153   4.792   4.798   9.619  0.6566  0.8410  1.5887
  177SOPE  C21120154   4.587   4.788   9.513 -0.8039 -0.4987 -0.5204
  177SOPE  H11R20155   4.505   4.863   9.509 -1.3561 -0.9364  1.6232
  177SOPE  H11S20156   4.544   4.688   9.536 -1.1651 -0.0277  0.9502
  177SOPE  C21220157   4.652   4.784   9.370  0.4581 -0.1353 -0.3330
  177SOPE  H12R20158   4.567   4.752   9.307 -0.2980  1.7411 -0.3309
  177SOPE  H12S20159   4.737   4.712   9.373  0.1684 -0.4473  1.6057
  177SOPE  C21320160   4.703   4.919   9.340 -0.1696 -0.3868 -0.0228
  177SOPE  H13R20161   4.775   4.953   9.418 -0.9841  0.0712  0.5394
  177SOPE  H13S20162   4.622   4.994   9.349 -1.3637 -1.6591  0.1127
  177SOPE  C21420163   4.775   4.931   9.202 -0.1093 -0.3224  0.1922
  177SOPE  H14R20164   4.809   5.036   9.193 -1.1356 -0.0631 -1.0783
  177SOPE  H14S20165   4.692   4.918   9.129 -1.5005  2.5898  1.0760
  177SOPE  C21520166   4.879   4.831   9.160 -0.2979  0.1124 -0.1848
  177SOPE  H15R20167   4.854   4.724   9.175  1.2599 -0.2186  0.2200
  177SOPE  H15S20168   4.973   4.842   9.218 -0.4000 -2.8533  0.6917
  177SOPE  C21620169   4.916   4.841   9.014 -0.4486 -0.1754 -0.0715
  177SOPE  H16R20170   4.939   4.946   8.989  2.2102 -0.2962  1.5591
  177SOPE  H16S20171   4.823   4.820   8.955  0.6528  0.3308 -2.0954
  177SOPE  C21720172   5.033   4.759   8.967 -0.5872  0.1009  0.4810
  177SOPE  H17R20173   5.006   4.652   8.975  0.9452 -0.3076  0.5103
  177SOPE  H17S20174   5.119   4.786   9.031 -0.6036  1.7570 -0.1388
  177SOPE  C21820175   5.066   4.792   8.821 -0.5986  0.1218  0.2887
  177SOPE  H18R20176   5.154   4.728   8.796 -1.7377 -1.6914  0.7173
  177SOPE  H18S20177   5.101   4.897   8.808  0.8241  0.0833  3.0195
  177SOPE  H18T20178   4.989   4.774   8.743 -1.7208  3.9840  0.3528
  177SOPE   C3320179   3.984   4.709  10.223 -0.2513  0.3584  0.1638
  177SOPE   H3X20180   3.886   4.713  10.276  0.9140  1.4872  2.3225
  177SOPE   H3Y20181   4.018   4.605  10.241 -1.1185  0.0410  0.0146
  177SOPE   C3420182   3.947   4.726  10.070  0.5004 -0.6295 -0.7266
  177SOPE   H4X20183   4.039   4.722  10.009  0.6935  1.1085 -0.5813
  177SOPE   H4Y20184   3.897   4.824  10.058 -0.3341 -0.9325  0.1373
  177SOPE   C3520185   3.866   4.604  10.032  0.0975 -0.9186 -0.1050
  177SOPE   H5X20186   3.767   4.608  10.080  0.0128  0.6859 -0.3399
  177SOPE   H5Y20187   3.914   4.507  10.059 -0.8284 -0.8163  2.0947
  177SOPE   C3620188   3.838   4.606   9.881  0.3174  0.1450  0.3778
  177SOPE   H6X20189   3.801   4.705   9.847 -0.6247  1.1569  3.9377
  177SOPE   H6Y20190   3.754   4.533   9.875 -0.9549  1.6319 -0.8901
  177SOPE   C3720191   3.947   4.554   9.785 -0.2150  0.3671 -0.8729
  177SOPE   H7X20192   3.968   4.455   9.832  1.0628  1.1266  0.2316
  177SOPE   H7Y20193   4.039   4.615   9.779  1.1562 -1.6279 -0.9878
  177SOPE   C3820194   3.884   4.541   9.645  0.1896 -0.6634  0.0539
  177SOPE   H8X20195   3.779   4.507   9.656 -0.1886  0.3678 -0.2964
  177SOPE   H8Y20196   3.933   4.451   9.602  4.6621  1.1280  0.8668
  177SOPE   C3920197   3.909   4.662   9.553 -0.1485  0.0341 -0.2736
  177SOPE   H9X20198   4.016   4.691   9.565 -0.0051 -0.4268 -0.4325
  177SOPE   H9Y20199   3.849   4.753   9.574  0.7178  1.0826 -2.0436
  177SOPE  C31020200   3.892   4.624   9.401 -0.0611 -0.1868  0.1222
  177SOPE  H10X20201   3.976   4.561   9.366 -2.2393 -3.0865 -0.2802
  177SOPE  H10Y20202   3.901   4.721   9.347  0.1110  0.5385  1.3949
  177SOPE  C31120203   3.758   4.562   9.376  0.0624 -0.2695 -0.3915
  177SOPE  H11X20204   3.675   4.631   9.401  1.6578  1.6079  0.0280
  177SOPE  H11Y20205   3.756   4.468   9.434  0.1391  1.3396  2.3971
  177SOPE  C31220206   3.736   4.524   9.233 -0.2232  0.1893 -0.1480
  177SOPE  H12X20207   3.639   4.469   9.226 -0.1483  0.0828 -0.3727
  177SOPE  H12Y20208   3.827   4.474   9.194 -0.4341  2.7088 -4.5748
  177SOPE  C31320209   3.721   4.642   9.139 -0.3397  0.7125  0.4509
  177SOPE  H13X20210   3.813   4.704   9.131 -0.8711  1.3895 -0.6212
  177SOPE  H13Y20211   3.641   4.708   9.178  0.6432  1.9895  0.3679
  177SOPE  C31420212   3.673   4.602   8.994  0.3991  0.7169 -0.9202
  177SOPE  H14X20213   3.683   4.691   8.929  2.3321  0.5654 -0.8999
  177SOPE  H14Y20214   3.569   4.565   9.005  0.8717 -1.3161 -2.5104
  177SOPE  C31520215   3.761   4.495   8.945  0.0275  0.3221 -0.3209
  177SOPE  H15X20216   3.737   4.405   9.005  0.0991 -0.5227 -1.5062
  177SOPE  H15Y20217   3.864   4.528   8.969  0.1623  2.5060 -3.2662
  177SOPE  C31620218   3.751   4.458   8.788 -0.0781 -0.2910  0.2076
  177SOPE  H16X20219   3.808   4.366   8.766  0.1470  0.1609 -1.2152
  177SOPE  H16Y20220   3.798   4.545   8.738 -3.6582  1.5456 -0.3522
  177SOPE  C31720221   3.606   4.442   8.735  0.4593 -0.3010 -0.6740
  177SOPE  H17X20222   3.553   4.535   8.766  2.3884  0.1830  1.3644
  177SOPE  H17Y20223   3.570   4.364   8.805 -1.8807  1.5230  0.3092
  177SOPE  C31820224   3.595   4.417   8.584 -0.4891  0.9968 -0.4581
  177SOPE  H18X20225   3.491   4.389   8.556  0.7999 -3.3313 -1.7233
  177SOPE  H18Y20226   3.660   4.330   8.562  0.3429  1.0979  1.4037
  177SOPE  H18Z20227   3.629   4.506   8.526  0.0573  0.0697 -1.5932
  178SOPE     N20228   0.652   3.939  11.093  0.0592 -0.2378  0.4863
  178SOPE   HN120229   0.667   4.023  11.034  2.6786  0.1259  1.5129
  178SOPE   HN220230   0.582   3.875  11.050  0.7853  0.2013 -1.4597
  178SOPE   HN320231   0.630   3.958  11.193  0.6394  0.0775  0.5615
  178SOPE   C1220232   0.777   3.844  11.086  0.7708  0.2195 -0.6955
  178SOPE  H12A20233   0.770   3.772  11.171 -2.4830  1.5722  0.3115
  178SOPE  H12B20234   0.865   3.907  11.109 -0.0766  1.8763 -1.7974
  178SOPE   C1120235   0.790   3.790  10.940  0.2026  0.4142  0.0487
  178SOPE  H11A20236   0.894   3.750  10.934  0.6637  1.6772 -0.8762
  178SOPE  H11B20237   0.782   3.875  10.869 -3.5421 -0.5002 -0.8348
  178SOPE     P20238   0.687   3.551  10.951  0.1333  0.3581  0.2203
  178SOPE   O1320239   0.551   3.519  11.001 -0.2945  0.9942  0.1897
  178SOPE   O1420240   0.804   3.518  11.038  0.0674 -0.1717  0.3740
  178SOPE   O1220241   0.685   3.702  10.904  0.5334  0.8935  0.3372
  178SOPE   O1120242   0.704   3.469  10.818 -0.0980  1.2191  0.6845
  178SOPE    C120243   0.610   3.473  10.713  0.0720 -0.5975  0.2955
  178SOPE    HA20244   0.574   3.577  10.701 -1.5989 -1.2455 -0.8081
  178SOPE    HB20245   0.521   3.413  10.744  1.1704 -1.5503  1.7038
  178SOPE    C220246   0.680   3.417  10.584  1.0445 -0.4231 -0.8704
  178SOPE    HS20247   0.603   3.443  10.508 -1.0509 -0.7809  1.0443
  178SOPE   O2120248   0.710   3.279  10.600  0.0496  0.3603 -0.0019
  178SOPE   C2120249   0.713   3.207  10.478  0.8641 -0.1147 -0.0508
  178SOPE   O2220250   0.695   3.252  10.366  0.6503  0.0047 -0.2764
  178SOPE   C2220251   0.760   3.064  10.524 -0.1983  0.3002  0.2840
  178SOPE   H2R20252   0.711   3.032  10.618  0.8068 -0.3598  0.5989
  178SOPE   H2S20253   0.870   3.069  10.543 -0.5380 -0.1000  2.6180
  178SOPE    C320254   0.816   3.498  10.547  0.2198 -0.1443  0.0064
  178SOPE    HX20255   0.860   3.467  10.450 -0.6088 -0.6811 -0.2063
  178SOPE    HY20256   0.885   3.478  10.632  2.3859  1.0362 -1.3881
  178SOPE   O3120257   0.796   3.648  10.541  0.0020  0.3347 -0.0451
  178SOPE   C3120258   0.907   3.714  10.511 -0.0766 -0.5371  0.6109
  178SOPE   O3220259   1.014   3.664  10.490  0.4380  0.2688 -0.1631
  178SOPE   C3220260   0.895   3.865  10.525  0.9632  0.1148 -0.5343
  178SOPE   H2X20261   0.998   3.903  10.512  1.5199  0.2849  3.2692
  178SOPE   H2Y20262   0.871   3.874  10.634 -3.2642 -3.8880 -0.8327
  178SOPE   C2320263   0.759   2.978  10.401  0.1088 -0.0027 -0.4482
  178SOPE   H3R20264   0.670   3.005  10.341 -0.4621 -0.5906  0.1188
  178SOPE   H3S20265   0.756   2.870  10.428 -1.4332  0.3501  0.9472
  178SOPE   C2420266   0.895   2.986  10.328 -0.1686 -0.6388 -0.4285
  178SOPE   H4R20267   0.913   3.092  10.303 -3.2109  0.3536  1.1131
  178SOPE   H4S20268   0.967   2.934  10.396 -0.1041  0.2942  0.2338
  178SOPE   C2520269   0.895   2.916  10.190  0.5922  0.5542  0.3407
  178SOPE   H5R20270   0.993   2.927  10.138  0.5573 -0.4457  0.0371
  178SOPE   H5S20271   0.884   2.807  10.211  2.4426  0.5306  1.4858
  178SOPE   C2620272   0.778   2.962  10.091 -0.6101 -0.4147  0.5218
  178SOPE   H6R20273   0.682   2.935  10.139 -0.7316  1.7665  1.6379
  178SOPE   H6S20274   0.779   3.071  10.070 -2.3450 -0.4968 -0.1484
  178SOPE   C2720275   0.780   2.881   9.965 -0.0876  0.3792  0.2599
  178SOPE   H7R20276   0.882   2.900   9.926 -1.3278  2.6163 -2.2993
  178SOPE   H7S20277   0.777   2.773   9.989 -1.4180  0.3010 -0.1776
  178SOPE   C2820278   0.680   2.910   9.849 -0.2430 -0.2635 -0.0300
  178SOPE   H8R20279   0.675   2.834   9.768  1.9069 -1.9341  1.2906
  178SOPE   H8S20280   0.575   2.918   9.886 -0.0306  0.3787  0.4504
  178SOPE   C2920281   0.709   3.044   9.791  0.0345 -0.0665 -0.1750
  178SOPE   H9120282   0.677   3.125   9.858  2.3541  2.0012 -1.4074
  178SOPE  C21020283   0.767   3.081   9.678 -0.2519  0.2831  0.4006
  178SOPE  H10120284   0.766   3.186   9.647  0.8478 -0.3211 -1.8902
  178SOPE  C21120285   0.827   2.986   9.574 -0.2926 -0.5027 -0.2966
  178SOPE  H11R20286   0.785   2.883   9.581 -1.5359 -0.0542 -1.0025
  178SOPE  H11S20287   0.937   2.971   9.579 -0.2687  0.0618  1.6212
  178SOPE  C21220288   0.788   3.024   9.430 -0.3196  0.3492 -0.6722
  178SOPE  H12R20289   0.830   3.123   9.400  0.8297  0.4945  1.2344
  178SOPE  H12S20290   0.678   3.037   9.423 -0.1674  1.2063 -1.8592
  178SOPE  C21320291   0.820   2.915   9.325 -0.3927  0.2158 -0.5622
  178SOPE  H13R20292   0.749   2.830   9.331 -0.1588  0.1335  1.5343
  178SOPE  H13S20293   0.920   2.879   9.354 -0.7451 -0.5860 -0.3188
  178SOPE  C21420294   0.809   2.960   9.179 -0.1090  0.1469 -0.3679
  178SOPE  H14R20295   0.894   3.027   9.156 -1.8342  2.6469  0.1547
  178SOPE  H14S20296   0.719   3.025   9.168 -0.8402 -1.1406 -2.6764
  178SOPE  C21520297   0.800   2.845   9.074 -0.2258 -0.4792  0.0937
  178SOPE  H15R20298   0.697   2.803   9.080 -0.3345 -0.2198  0.0811
  178SOPE  H15S20299   0.872   2.763   9.093  0.7019  0.1484 -0.6043
  178SOPE  C21620300   0.829   2.897   8.932  1.0710  0.4710 -0.2122
  178SOPE  H16R20301   0.938   2.917   8.924  1.0930  0.0979 -0.9545
  178SOPE  H16S20302   0.780   2.995   8.915  1.2142  0.8048  1.2489
  178SOPE  C21720303   0.780   2.791   8.837 -0.2826 -0.6666  0.0352
  178SOPE  H17R20304   0.674   2.763   8.857  0.5369 -3.4207  0.9538
  178SOPE  H17S20305   0.847   2.705   8.854 -0.7293 -0.9214  0.5415
  178SOPE  C21820306   0.798   2.835   8.689  0.0888  0.8579  0.2381
  178SOPE  H18R20307   0.908   2.835   8.675  0.2461  1.9697  1.3103
  178SOPE  H18S20308   0.749   2.931   8.664 -0.3640  0.4546 -0.4495
  178SOPE  H18T20309   0.752   2.760   8.621  2.1754 -0.9242  0.6638
  178SOPE   C3320310   0.787   3.927  10.436  0.3355 -0.2338 -0.2683
  178SOPE   H3X20311   0.768   4.036  10.450 -4.2166 -0.9087  0.1495
  178SOPE   H3Y20312   0.687   3.892  10.470 -0.2368  1.9068  0.4553
  178SOPE   C3420313   0.807   3.893  10.290 -0.1775  0.0694  0.5816
  178SOPE   H4X20314   0.814   3.782  10.283 -0.2706  0.1375 -0.8209
  178SOPE   H4Y20315   0.907   3.928  10.257 -0.9436 -0.3399 -2.3892
  178SOPE   C3520316   0.702   3.934  10.185 -0.1669  0.9012 -0.6233
  178SOPE   H5X20317   0.661   4.037  10.199 -0.0703  0.9078 -0.3713
  178SOPE   H5Y20318   0.617   3.863  10.195  2.3769 -2.2892 -0.2808
  178SOPE   C3620319   0.749   3.934  10.046 -0.3147 -0.5248 -0.1882
  178SOPE   H6X20320   0.784   3.829  10.029  1.1055 -0.4497  1.9077
  178SOPE   H6Y20321   0.845   3.989  10.037 -0.7726  0.0112 -2.3567
  178SOPE   C3720322   0.652   3.972   9.936  0.0012 -0.3406  0.4817
  178SOPE   H7X20323   0.622   4.078   9.954  0.8397 -0.1162  0.6074
  178SOPE   H7Y20324   0.559   3.911   9.945  0.4496 -1.2192 -0.6462
  178SOPE   C3820325   0.700   3.948   9.796  0.0857 -0.1235  0.6900
  178SOPE   H8X20326   0.782   4.022   9.788 -2.3373  2.5693 -1.1020
  178SOPE   H8Y20327   0.631   3.988   9.719  1.6047  1.4289  0.0799
  178SOPE   C3920328   0.741   3.799   9.768  0.0342  0.4960  0.6292
  178SOPE   H9X20329   0.662   3.733   9.810  1.6698 -0.1292  2.9422
  178SOPE   H9Y20330   0.836   3.768   9.816 -0.7813  0.0084  1.9948
  178SOPE  C31020331   0.771   3.779   9.616  0.0037 -0.5511  0.2587
  178SOPE  H10X20332   0.685   3.824   9.561  0.1290  0.9312  1.2223
  178SOPE  H10Y20333   0.758   3.671   9.592 -2.2512 -0.0876 -0.9805
  178SOPE  C31120334   0.915   3.834   9.578  0.9909  0.6421  0.0953
  178SOPE  H11X20335   0.979   3.757   9.625 -0.1653 -1.8674 -2.1911
  178SOPE  H11Y20336   0.933   3.933   9.625  1.7687 -1.0759  3.7910
  178SOPE  C31220337   0.947   3.826   9.424 -0.0977  0.0039 -0.6745
  178SOPE  H12X20338   0.857   3.787   9.371 -1.1137  0.7097  0.4652
  178SOPE  H12Y20339   1.026   3.750   9.407 -0.5531 -0.5022 -0.5632
  178SOPE  C31320340   0.986   3.962   9.370  0.1442 -0.5615 -0.6854
  178SOPE  H13X20341   1.090   3.997   9.389  0.4944 -0.6729 -2.2738
  178SOPE  H13Y20342   0.910   4.041   9.392  1.0856 -0.3337  2.0376
  178SOPE  C31420343   0.981   3.951   9.218  0.2898  0.0309  0.1357
  178SOPE  H14X20344   0.880   3.910   9.197  0.3628 -0.5045  0.8130
  178SOPE  H14Y20345   1.062   3.887   9.176  0.1097  1.8740 -3.4045
  178SOPE  C31520346   0.990   4.091   9.152 -0.4734  0.4492 -0.5746
  178SOPE  H15X20347   1.068   4.160   9.190 -0.6023  0.9194 -1.1623
  178SOPE  H15Y20348   0.890   4.126   9.185 -0.6321 -0.1451 -0.4020
  178SOPE  C31620349   0.996   4.089   9.001 -0.2842  0.2340 -0.4942
  178SOPE  H16X20350   0.925   4.010   8.970  2.1994 -2.0703 -0.7379
  178SOPE  H16Y20351   1.096   4.055   8.966 -0.2991  1.5553 -1.9088
  178SOPE  C31720352   0.964   4.224   8.944 -0.5472 -0.6383  0.3046
  178SOPE  H17X20353   1.021   4.302   8.998  0.3654 -0.1112 -1.3748
  178SOPE  H17Y20354   0.859   4.257   8.958 -1.1705 -1.9118 -1.0540
  178SOPE  C31820355   0.993   4.227   8.794 -0.2504 -0.0770 -0.6724
  178SOPE  H18X20356   0.979   4.332   8.761  3.6894  0.7634 -0.1598
  178SOPE  H18Y20357   0.920   4.162   8.741 -1.1228  1.5380 -1.5192
  178SOPE  H18Z20358   1.093   4.188   8.765 -0.4500 -0.3677 -0.9769
  179SOPE     N20359   1.404   6.025   6.355 -0.0470  0.0352  0.2428
  179SOPE   HN120360   1.341   5.963   6.299 -1.2778 -0.1430  1.7438
  179SOPE   HN220361   1.399   6.123   6.322  3.1710  0.3055  0.2331
  179SOPE   HN320362   1.500   5.993   6.332 -0.6044 -1.1388 -0.5943
  179SOPE   C1220363   1.351   6.013   6.496  0.0590 -0.2927 -0.6944
  179SOPE  H12A20364   1.361   5.909   6.533 -0.5710 -0.2632 -0.4306
  179SOPE  H12B20365   1.245   6.047   6.502 -0.2205 -0.7482 -2.5463
  179SOPE   C1120366   1.444   6.103   6.578  0.5877  0.1104 -0.1931
  179SOPE  H11A20367   1.413   6.097   6.685  0.4761  0.1355 -0.2243
  179SOPE  H11B20368   1.427   6.205   6.538 -1.9272 -0.4817 -0.8621
  179SOPE     P20369   1.655   5.959   6.632  0.5137  0.2732 -0.2968
  179SOPE   O1320370   1.793   5.953   6.577 -0.2612  0.1934 -0.0734
  179SOPE   O1420371   1.570   5.839   6.647  0.0674 -0.0307 -0.0330
  179SOPE   O1220372   1.578   6.073   6.553  0.3202 -0.9158 -0.2767
  179SOPE   O1120373   1.660   6.031   6.772  0.4133  0.1560 -0.3215
  179SOPE    C120374   1.731   6.156   6.788 -0.4090  0.5696 -0.4094
  179SOPE    HA20375   1.700   6.240   6.722  3.5057  2.1644 -0.4824
  179SOPE    HB20376   1.841   6.145   6.774 -0.3443 -0.5557  0.7974
  179SOPE    C220377   1.711   6.208   6.934  0.2962  0.1398 -0.7551
  179SOPE    HS20378   1.740   6.314   6.949 -0.8779 -0.0004  3.7063
  179SOPE   O2120379   1.782   6.125   7.030  0.6200 -0.2821 -0.0957
  179SOPE   C2120380   1.847   6.196   7.124 -0.7902  0.2072  0.6663
  179SOPE   O2220381   1.845   6.313   7.146  0.1445  0.6252  0.1398
  179SOPE   C2220382   1.932   6.097   7.200  0.2062  0.2833  0.0639
  179SOPE   H2R20383   2.007   6.147   7.264  1.0647 -0.7835 -0.0780
  179SOPE   H2S20384   1.986   6.042   7.121 -0.6327 -0.4359 -0.0284
  179SOPE    C320385   1.559   6.212   6.968  0.2705  0.1508  1.0474
  179SOPE    HX20386   1.502   6.119   6.947 -1.6575  1.0963  1.8640
  179SOPE    HY20387   1.505   6.275   6.894  0.4598 -1.0455 -0.1686
  179SOPE   O3120388   1.534   6.242   7.105 -0.3497  0.0700  0.1404
  179SOPE   C3120389   1.526   6.364   7.146 -0.7830  0.9523  0.0821
  179SOPE   O3220390   1.538   6.465   7.082 -0.0514 -0.3873  0.4853
  179SOPE   C3220391   1.488   6.357   7.293 -0.0122 -0.1132 -1.3096
  179SOPE   H2X20392   1.584   6.395   7.334  0.1530 -0.3191 -1.5083
  179SOPE   H2Y20393   1.491   6.251   7.325  0.6231  0.5166  0.8948
  179SOPE   C2320394   1.858   6.000   7.286  0.5088  0.1562  0.1552
  179SOPE   H3R20395   1.937   5.926   7.310  1.5129  1.6195  1.5134
  179SOPE   H3S20396   1.795   5.930   7.226  0.6382 -0.3353  0.5897
  179SOPE   C2420397   1.796   6.062   7.409  0.1792  0.2550 -0.5442
  179SOPE   H4R20398   1.880   6.107   7.467  1.2082 -0.5599 -1.3820
  179SOPE   H4S20399   1.722   6.138   7.375  0.9534  1.2979  0.0100
  179SOPE   C2520400   1.727   5.955   7.502  0.3118  0.2720 -0.4020
  179SOPE   H5R20401   1.634   5.919   7.452 -0.3038  0.0606  0.8570
  179SOPE   H5S20402   1.793   5.872   7.535  0.4558  0.5988  0.1391
  179SOPE   C2620403   1.694   6.024   7.638 -1.0687  0.3680  0.0529
  179SOPE   H6R20404   1.782   6.081   7.677  0.0481 -1.5235  0.4136
  179SOPE   H6S20405   1.617   6.101   7.615 -0.1063  1.4208  0.2494
  179SOPE   C2720406   1.662   5.923   7.745 -0.0400 -0.6865  0.8853
  179SOPE   H7R20407   1.594   5.864   7.680  0.8007 -0.9876  0.2650
  179SOPE   H7S20408   1.744   5.856   7.778  1.2912 -0.9093 -2.5021
  179SOPE   C2820409   1.599   6.004   7.851  0.3328  0.2375 -0.1748
  179SOPE   H8R20410   1.528   6.064   7.791 -0.4417 -1.3878 -0.9422
  179SOPE   H8S20411   1.530   5.939   7.910  0.5714 -0.5981 -0.8020
  179SOPE   C2920412   1.701   6.081   7.937 -0.2838 -0.0040  0.4722
  179SOPE   H9120413   1.748   6.163   7.881  0.8972  0.4778  2.0730
  179SOPE  C21020414   1.743   6.069   8.066 -0.7133  0.1014  0.0564
  179SOPE  H10120415   1.824   6.140   8.085  1.2053 -1.8770 -0.3513
  179SOPE  C21120416   1.697   5.969   8.170 -0.0871 -0.1441 -0.1868
  179SOPE  H11R20417   1.771   5.889   8.193 -0.6465 -1.1402 -1.7055
  179SOPE  H11S20418   1.611   5.913   8.126 -0.2502  0.0913 -0.1659
  179SOPE  C21220419   1.648   6.031   8.297 -0.2113  0.6160 -0.0668
  179SOPE  H12R20420   1.627   5.941   8.358 -2.4644  0.6165 -0.7213
  179SOPE  H12S20421   1.562   6.100   8.279  0.3805  0.9268 -1.9578
  179SOPE  C21320422   1.758   6.094   8.380 -0.9900 -0.3753 -0.4933
  179SOPE  H13R20423   1.757   6.197   8.338  1.2982 -0.6200 -1.3140
  179SOPE  H13S20424   1.862   6.063   8.357 -1.5569 -0.3519 -3.4343
  179SOPE  C21420425   1.719   6.117   8.528  0.1406 -0.1567  0.1772
  179SOPE  H14R20426   1.608   6.109   8.525  0.0315  1.3472 -0.5780
  179SOPE  H14S20427   1.753   6.220   8.554 -2.3581  0.5963  0.7964
  179SOPE  C21520428   1.770   6.018   8.631 -0.9104  0.4050  0.0734
  179SOPE  H15R20429   1.724   5.919   8.608 -0.2177  0.1906 -0.4077
  179SOPE  H15S20430   1.723   6.051   8.726  1.2419  0.6487  1.0961
  179SOPE  C21620431   1.922   5.994   8.631 -0.2436 -0.4481  0.1210
  179SOPE  H16R20432   1.978   6.090   8.635  0.7687 -1.0479  0.9930
  179SOPE  H16S20433   1.952   5.950   8.534 -0.6491 -1.9325  0.6522
  179SOPE  C21720434   1.966   5.905   8.742 -0.3238  0.0644 -0.0475
  179SOPE  H17R20435   1.935   5.798   8.744 -0.2658  0.0205 -1.1919
  179SOPE  H17S20436   1.931   5.940   8.842 -2.5580 -1.2579 -0.2939
  179SOPE  C21820437   2.117   5.906   8.751 -0.3945 -0.0845  0.1722
  179SOPE  H18R20438   2.166   5.911   8.652  2.0882 -1.3989  1.2507
  179SOPE  H18S20439   2.149   5.812   8.801 -0.5073 -2.2440 -3.4491
  179SOPE  H18T20440   2.147   5.992   8.815  0.2783  1.4282 -2.0674
  179SOPE   C3320441   1.367   6.441   7.342  0.1472 -0.3163  0.4283
  179SOPE   H3X20442   1.279   6.425   7.277  0.3751 -0.9994  0.2736
  179SOPE   H3Y20443   1.388   6.549   7.331  1.5001 -0.8106 -3.6463
  179SOPE   C3420444   1.331   6.391   7.484  0.5959 -0.1669  0.2750
  179SOPE   H4X20445   1.292   6.287   7.480  1.0176 -0.3889  1.6536
  179SOPE   H4Y20446   1.243   6.450   7.518  1.4036  0.8760  0.6191
  179SOPE   C3520447   1.448   6.397   7.578  0.3245 -0.0212  0.4323
  179SOPE   H5X20448   1.487   6.500   7.559  0.8019 -0.5907 -2.0330
  179SOPE   H5Y20449   1.531   6.330   7.547  2.3486  1.9528  1.2433
  179SOPE   C3620450   1.403   6.363   7.719  0.2157  0.2857 -0.6583
  179SOPE   H6X20451   1.389   6.253   7.715  0.0593  0.3248 -4.0602
  179SOPE   H6Y20452   1.302   6.405   7.741 -0.3946 -1.2500 -0.3972
  179SOPE   C3720453   1.503   6.410   7.822  0.1736 -0.1486 -0.7319
  179SOPE   H7X20454   1.503   6.520   7.806  0.5221 -0.0162  0.1353
  179SOPE   H7Y20455   1.607   6.373   7.802  0.5235  0.0680  0.5904
  179SOPE   C3820456   1.468   6.375   7.968  0.4335  0.6532 -0.5051
  179SOPE   H8X20457   1.479   6.266   7.982  0.4757  0.6707 -0.4013
  179SOPE   H8Y20458   1.362   6.406   7.983 -0.1631 -1.5622  0.1553
  179SOPE   C3920459   1.566   6.443   8.066 -0.9052  0.5593 -0.1478
  179SOPE   H9X20460   1.560   6.554   8.072 -1.1845  0.5513 -0.2852
  179SOPE   H9Y20461   1.668   6.412   8.038 -1.3378 -1.0987  0.0137
  179SOPE  C31020462   1.546   6.383   8.209  0.9408 -0.4542 -0.3297
  179SOPE  H10X20463   1.610   6.293   8.219  2.1972  0.4062 -0.3924
  179SOPE  H10Y20464   1.438   6.358   8.224  0.0005  2.0158 -2.2580
  179SOPE  C31120465   1.580   6.489   8.322 -0.2224  0.0298 -0.7014
  179SOPE  H11X20466   1.683   6.525   8.305  0.2086  0.6742  2.5870
  179SOPE  H11Y20467   1.588   6.431   8.416  1.7318  0.1028 -0.7915
  179SOPE  C31220468   1.483   6.611   8.335 -0.0238 -0.3171  0.3935
  179SOPE  H12X20469   1.392   6.569   8.383  1.4235 -2.2575  1.5803
  179SOPE  H12Y20470   1.453   6.643   8.233  2.4369 -0.5073 -0.4553
  179SOPE  C31320471   1.540   6.736   8.402  0.2829 -0.0845  0.9405
  179SOPE  H13X20472   1.497   6.832   8.364  0.8462 -0.1709  0.0802
  179SOPE  H13Y20473   1.649   6.731   8.381 -0.0044 -0.9358 -0.4260
  179SOPE  C31420474   1.519   6.731   8.554  0.6802  0.2479 -0.6693
  179SOPE  H14X20475   1.577   6.806   8.612  0.1014 -2.3226  3.6724
  179SOPE  H14Y20476   1.566   6.641   8.598 -1.0608 -0.4673 -0.1730
  179SOPE  C31520477   1.373   6.737   8.596 -0.1859 -0.2403 -0.8740
  179SOPE  H15X20478   1.374   6.737   8.707  1.0057 -0.3544 -0.8676
  179SOPE  H15Y20479   1.317   6.652   8.552 -0.3451 -1.3684  1.3534
  179SOPE  C31620480   1.293   6.866   8.555 -0.6164  0.3671  0.1673
  179SOPE  H16X20481   1.305   6.878   8.445 -1.4954  0.0122  0.0274
  179SOPE  H16Y20482   1.342   6.949   8.610 -2.7908  1.6847  0.2026
  179SOPE  C31720483   1.143   6.878   8.590  0.8071  0.5619 -0.4442
  179SOPE  H17X20484   1.100   6.968   8.542 -3.1252 -0.0725  1.4499
  179SOPE  H17Y20485   1.131   6.895   8.700  0.3654 -2.0379 -0.0215
  179SOPE  C31820486   1.060   6.756   8.560  0.4090 -0.5773  0.3506
  179SOPE  H18X20487   0.952   6.770   8.584  0.4406  0.5992 -0.1276
  179SOPE  H18Y20488   1.104   6.676   8.624  0.4472 -0.0240  1.0304
  179SOPE  H18Z20489   1.064   6.731   8.452 -1.3996  0.6928 -0.0403
  180SOPE     N20490   0.216   3.444   6.068 -0.1290  0.3513 -0.3898
  180SOPE   HN120491   0.193   3.356   6.018  0.7369  0.1553 -0.4688
  180SOPE   HN220492   0.152   3.509   6.018 -1.2234 -0.0466  0.4758
  180SOPE   HN320493   0.310   3.476   6.036 -0.7897  3.3437  0.2985
  180SOPE   C1220494   0.213   3.448   6.218 -0.0187 -0.3422  0.1640
  180SOPE  H12A20495   0.262   3.541   6.254 -0.8882 -0.2644  1.2104
  180SOPE  H12B20496   0.275   3.366   6.261  0.9537  0.4426  0.2872
  180SOPE   C1120497   0.072   3.448   6.278  0.1598 -0.0841  0.3656
  180SOPE  H11A20498   0.080   3.474   6.386  0.2069 -0.0037  0.3432
  180SOPE  H11B20499   0.023   3.348   6.275 -2.2706  1.0096  0.8193
  180SOPE     P20500  -0.058   3.691   6.250  0.0311  0.3193  0.0787
  180SOPE   O1320501  -0.186   3.723   6.194  0.6622 -0.0348 -0.3411
  180SOPE   O1420502   0.051   3.783   6.223 -0.0167 -0.2755 -0.2648
  180SOPE   O1220503  -0.009   3.543   6.205 -0.6797 -0.4492  0.1055
  180SOPE   O1120504  -0.084   3.678   6.400 -0.7417  0.1620  0.2703
  180SOPE    C120505  -0.200   3.615   6.458 -0.8673  0.5450 -0.0847
  180SOPE    HA20506  -0.170   3.558   6.549  0.7731 -0.0788 -0.9784
  180SOPE    HB20507  -0.242   3.532   6.397  0.5955 -1.2528  1.2677
  180SOPE    C220508  -0.328   3.708   6.488  0.2532 -0.5559 -0.0958
  180SOPE    HS20509  -0.378   3.730   6.391 -1.1275 -0.6721  0.5676
  180SOPE   O2120510  -0.288   3.831   6.558  0.6981  0.3812  0.2537
  180SOPE   C2120511  -0.385   3.918   6.556  0.2909 -0.4919 -0.3010
  180SOPE   O2220512  -0.492   3.906   6.505  0.0331  0.2726 -0.1946
  180SOPE   C2220513  -0.338   4.034   6.639  0.2379  0.0146 -0.0122
  180SOPE   H2R20514  -0.287   4.111   6.577  3.0285 -0.0442  1.9944
  180SOPE   H2S20515  -0.256   4.010   6.710  0.8403  1.0571 -0.3358
  180SOPE    C320516  -0.439   3.624   6.566 -0.2592  0.1316  0.2077
  180SOPE    HX20517  -0.434   3.521   6.526  1.0450  0.2233  0.0924
  180SOPE    HY20518  -0.542   3.657   6.540  0.3451  1.4542 -0.6677
  180SOPE   O3120519  -0.409   3.619   6.704  0.1010 -0.0491 -0.4455
  180SOPE   C3120520  -0.474   3.686   6.793  0.1020  0.1630  0.2386
  180SOPE   O3220521  -0.576   3.749   6.768  0.0888  0.2281 -0.1139
  180SOPE   C3220522  -0.417   3.670   6.932  0.0130  0.0144 -0.4378
  180SOPE   H2X20523  -0.312   3.636   6.925  0.0421  0.1375 -0.6230
  180SOPE   H2Y20524  -0.461   3.585   6.987  1.9697 -0.9682 -0.3225
  180SOPE   C2320525  -0.473   4.083   6.709 -0.9312  0.1838 -0.0112
  180SOPE   H3R20526  -0.502   4.010   6.788  0.5812 -0.1249  0.2777
  180SOPE   H3S20527  -0.558   4.084   6.637 -0.4491  1.3415 -0.5807
  180SOPE   C2420528  -0.461   4.222   6.770 -0.6864 -0.0341 -0.0178
  180SOPE   H4R20529  -0.355   4.223   6.803 -1.2244  1.5337  1.8745
  180SOPE   H4S20530  -0.474   4.298   6.690  0.8136 -0.1565 -0.3899
  180SOPE   C2520531  -0.555   4.252   6.888 -0.8582  0.3749  0.6951
  180SOPE   H5R20532  -0.561   4.362   6.901  0.6159  0.7440 -1.2487
  180SOPE   H5S20533  -0.648   4.212   6.844  0.4461 -0.2089 -1.7029
  180SOPE   C2620534  -0.525   4.171   7.007 -0.1882  0.4501  0.2677
  180SOPE   H6R20535  -0.543   4.062   6.996  0.0282  0.3532  0.8110
  180SOPE   H6S20536  -0.417   4.183   7.029 -0.3290  0.9113  0.7521
  180SOPE   C2720537  -0.582   4.215   7.147 -0.2988 -0.0966  0.6099
  180SOPE   H7R20538  -0.537   4.150   7.225  0.4393 -0.6130 -0.2203
  180SOPE   H7S20539  -0.540   4.318   7.152  0.4292 -0.3217 -0.4133
  180SOPE   C2820540  -0.732   4.206   7.167 -0.2748  0.0461 -0.4939
  180SOPE   H8R20541  -0.782   4.254   7.080  1.2339  0.2947 -1.2602
  180SOPE   H8S20542  -0.763   4.100   7.159  1.5342 -0.4291 -1.9136
  180SOPE   C2920543  -0.790   4.277   7.292  0.2452  0.0587  0.1695
  180SOPE   H9120544  -0.885   4.327   7.270 -1.4347 -3.3572 -1.0706
  180SOPE  C21020545  -0.765   4.248   7.420 -0.0908  0.0911 -0.2695
  180SOPE  H10120546  -0.808   4.317   7.493  0.0585  0.9940 -1.0104
  180SOPE  C21120547  -0.672   4.143   7.462 -0.1007  0.2852  0.1096
  180SOPE  H11R20548  -0.650   4.067   7.383  1.1775  0.0047  0.6968
  180SOPE  H11S20549  -0.720   4.089   7.546 -1.4446 -1.6224 -1.8021
  180SOPE  C21220550  -0.532   4.207   7.501 -0.7738 -0.0146 -0.1889
  180SOPE  H12R20551  -0.505   4.292   7.435  1.7941 -0.4469  0.2320
  180SOPE  H12S20552  -0.453   4.132   7.482  1.1136  1.5041  1.2106
  180SOPE  C21320553  -0.520   4.263   7.649  0.3784 -0.3443 -0.2378
  180SOPE  H13R20554  -0.583   4.354   7.638  0.1934 -0.5793 -1.2367
  180SOPE  H13S20555  -0.422   4.314   7.659 -0.2676  1.5559 -2.4386
  180SOPE  C21420556  -0.565   4.175   7.765  0.1136 -0.1595  0.6944
  180SOPE  H14R20557  -0.539   4.068   7.758  0.5730 -0.0128  0.0410
  180SOPE  H14S20558  -0.676   4.167   7.758 -0.1653  0.5137  3.3090
  180SOPE  C21520559  -0.533   4.225   7.909 -0.0102  0.0147 -0.3725
  180SOPE  H15R20560  -0.587   4.322   7.913 -1.5417 -0.8163 -0.2135
  180SOPE  H15S20561  -0.425   4.244   7.927 -0.2072  2.8836 -1.7372
  180SOPE  C21620562  -0.592   4.130   8.012 -0.2062 -0.9951  0.0400
  180SOPE  H16R20563  -0.550   4.028   8.005  2.4922  0.1093 -1.3973
  180SOPE  H16S20564  -0.701   4.118   7.992 -0.2754 -0.8565  0.3221
  180SOPE  C21720565  -0.577   4.184   8.153 -0.2328  0.1073 -0.7246
  180SOPE  H17R20566  -0.673   4.155   8.201 -1.4387  2.2121 -1.7672
  180SOPE  H17S20567  -0.589   4.293   8.142 -2.9370  0.0548  0.9846
  180SOPE  C21820568  -0.453   4.148   8.236 -0.0425 -0.3169 -0.1018
  180SOPE  H18R20569  -0.486   4.123   8.339  1.6464 -1.8706  0.1117
  180SOPE  H18S20570  -0.378   4.230   8.239  2.1523 -2.2320  0.0607
  180SOPE  H18T20571  -0.407   4.057   8.190 -2.2166 -0.2648 -2.6230
  180SOPE   C3320572  -0.419   3.802   7.006  0.1615  0.3389 -0.6428
  180SOPE   H3X20573  -0.524   3.838   7.018  0.5875  1.2724  0.5511
  180SOPE   H3Y20574  -0.367   3.881   6.949 -1.6105  1.8254 -0.3021
  180SOPE   C3420575  -0.357   3.785   7.144  0.5226 -0.2091  0.4723
  180SOPE   H4X20576  -0.330   3.886   7.182 -0.9982  0.5290 -0.3273
  180SOPE   H4Y20577  -0.274   3.711   7.143  3.5022  2.8921 -0.1593
  180SOPE   C3520578  -0.459   3.727   7.243  0.0815  0.3034  0.6072
  180SOPE   H5X20579  -0.474   3.629   7.192  0.6512  0.9251 -0.8102
  180SOPE   H5Y20580  -0.551   3.789   7.232 -1.4936 -2.0214 -0.1905
  180SOPE   C3620581  -0.414   3.703   7.385 -0.3408  0.0770 -0.2329
  180SOPE   H6X20582  -0.385   3.801   7.428 -2.2152  0.4674  0.2408
  180SOPE   H6Y20583  -0.328   3.635   7.369 -1.5475 -1.6265  0.2858
  180SOPE   C3720584  -0.521   3.636   7.482 -0.2553 -0.4612  0.2853
  180SOPE   H7X20585  -0.537   3.532   7.446  1.2647 -0.5549 -0.2235
  180SOPE   H7Y20586  -0.617   3.685   7.457 -0.2136 -0.2172  0.6006
  180SOPE   C3820587  -0.482   3.641   7.630  0.3788  0.6264  0.4748
  180SOPE   H8X20588  -0.430   3.739   7.635  0.3413  0.6732 -0.0124
  180SOPE   H8Y20589  -0.411   3.562   7.662 -1.1430 -0.6332  0.9208
  180SOPE   C3920590  -0.606   3.639   7.717  0.0554 -0.0906  1.0378
  180SOPE   H9X20591  -0.657   3.540   7.718 -1.5183  0.6985  0.4142
  180SOPE   H9Y20592  -0.687   3.707   7.684  0.5829  0.2175  0.3481
  180SOPE  C31020593  -0.575   3.681   7.863 -0.3159  0.0238  0.9649
  180SOPE  H10X20594  -0.562   3.791   7.871  0.8824  0.3569 -3.0867
  180SOPE  H10Y20595  -0.489   3.619   7.896 -0.2254 -0.1394  0.4448
  180SOPE  C31120596  -0.694   3.644   7.962  0.1843 -0.7724 -0.1576
  180SOPE  H11X20597  -0.702   3.533   7.965  0.7272 -0.7993  2.0052
  180SOPE  H11Y20598  -0.789   3.693   7.932  0.7855  1.1939  1.0022
  180SOPE  C31220599  -0.664   3.679   8.106 -0.2459  0.3534 -0.1007
  180SOPE  H12X20600  -0.617   3.779   8.116  0.5760 -0.0812  0.5060
  180SOPE  H12Y20601  -0.603   3.598   8.151  0.5091  0.6398 -0.5976
  180SOPE  C31320602  -0.804   3.665   8.180  0.6821 -0.6100 -0.4122
  180SOPE  H13X20603  -0.839   3.561   8.164 -1.1542  0.2206 -2.2889
  180SOPE  H13Y20604  -0.877   3.730   8.128  1.8620  0.8321 -0.3366
  180SOPE  C31420605  -0.799   3.703   8.328  0.2316 -0.0737  0.2065
  180SOPE  H14X20606  -0.733   3.619   8.359 -0.4818 -0.9260 -0.5494
  180SOPE  H14Y20607  -0.901   3.680   8.366 -0.1932  0.5974 -0.4867
  180SOPE  C31520608  -0.755   3.844   8.350  0.3501 -0.5803 -0.4141
  180SOPE  H15X20609  -0.809   3.908   8.277 -0.0764 -1.4315 -0.8713
  180SOPE  H15Y20610  -0.646   3.852   8.329  0.4510 -0.8594 -0.0212
  180SOPE  C31620611  -0.777   3.893   8.500  0.0703  0.0832 -0.8920
  180SOPE  H16X20612  -0.710   3.835   8.567 -1.2813 -0.2956  0.1613
  180SOPE  H16Y20613  -0.882   3.865   8.521 -0.2007  1.0155 -0.9826
  180SOPE  C31720614  -0.760   4.041   8.523 -0.3738  0.0293 -0.0974
  180SOPE  H17X20615  -0.657   4.074   8.500 -0.7600  0.9487 -0.5680
  180SOPE  H17Y20616  -0.780   4.045   8.632  4.8664  2.5746  1.0655
  180SOPE  C31820617  -0.855   4.134   8.443 -0.3208 -0.1895 -0.8532
  180SOPE  H18X20618  -0.850   4.241   8.473 -1.7041 -0.3786  0.1715
  180SOPE  H18Y20619  -0.961   4.100   8.448 -0.9069  1.5735 -0.6706
  180SOPE  H18Z20620  -0.853   4.138   8.332  0.2045 -3.5999 -1.0895
  181SOPE     N20621   4.569   4.154   5.858 -0.3283 -0.5577  0.1594
  181SOPE   HN120622   4.560   4.163   5.755  0.2497 -0.0331  0.1462
  181SOPE   HN220623   4.641   4.085   5.888 -0.7500 -1.4117 -0.7307
  181SOPE   HN320624   4.474   4.123   5.886  0.4930 -1.0576  2.6896
  181SOPE   C1220625   4.586   4.285   5.925 -0.4985  0.2653 -0.0917
  181SOPE  H12A20626   4.537   4.366   5.867  1.4599  0.9340 -0.8940
  181SOPE  H12B20627   4.693   4.312   5.914 -0.4424  0.5567  1.0243
  181SOPE   C1120628   4.544   4.290   6.075  0.1449 -0.3029 -0.0979
  181SOPE  H11A20629   4.440   4.328   6.081  0.8170  1.6554  0.2187
  181SOPE  H11B20630   4.605   4.374   6.116 -1.8017  1.4717 -0.6658
  181SOPE     P20631   4.503   4.138   6.277 -0.0987 -0.2906  0.1818
  181SOPE   O1320632   4.530   3.996   6.312 -0.3302  0.2727 -0.0149
  181SOPE   O1420633   4.356   4.170   6.273 -1.3657 -0.3598  0.3048
  181SOPE   O1220634   4.564   4.164   6.135 -0.0454  0.2050  0.2923
  181SOPE   O1120635   4.577   4.238   6.377 -1.0921  0.2469  0.2011
  181SOPE    C120636   4.531   4.383   6.397 -0.1780  0.0753 -0.3460
  181SOPE    HA20637   4.451   4.425   6.332  0.6831  1.5314 -0.5168
  181SOPE    HB20638   4.623   4.445   6.390 -0.8525  1.4146  1.6381
  181SOPE    C220639   4.473   4.405   6.546 -0.2071 -0.8254 -0.3266
  181SOPE    HS20640   4.365   4.379   6.541  0.0704 -1.8735 -1.3604
  181SOPE   O2120641   4.503   4.543   6.582  0.1363 -0.1775 -0.0773
  181SOPE   C2120642   4.418   4.611   6.656 -0.3518 -0.2451 -0.0263
  181SOPE   O2220643   4.317   4.570   6.714 -0.0356 -0.2166  0.3051
  181SOPE   C2220644   4.458   4.756   6.664  0.7393 -0.2814  0.9197
  181SOPE   H2R20645   4.372   4.816   6.700  0.3665 -1.3136  1.7988
  181SOPE   H2S20646   4.481   4.789   6.560 -2.4135 -3.4312 -0.9851
  181SOPE    C320647   4.536   4.303   6.644 -0.0291 -0.6363 -0.0186
  181SOPE    HX20648   4.647   4.312   6.651 -0.0254 -1.0633  0.5467
  181SOPE    HY20649   4.527   4.199   6.606  2.0345 -0.5447 -0.9180
  181SOPE   O3120650   4.477   4.315   6.775 -0.7526 -0.3826 -0.1401
  181SOPE   C3120651   4.543   4.388   6.861  0.3680  0.6369 -0.2254
  181SOPE   O3220652   4.642   4.454   6.840 -0.5527  0.6081  0.1996
  181SOPE   C3220653   4.479   4.380   6.999 -0.5031  0.2653 -0.4671
  181SOPE   H2X20654   4.414   4.290   7.000 -0.3061  0.0913  1.4961
  181SOPE   H2Y20655   4.404   4.462   7.003 -1.0968 -0.2303 -1.1504
  181SOPE   C2320656   4.582   4.759   6.753  0.6658  0.4288 -0.3057
  181SOPE   H3R20657   4.640   4.846   6.715  1.4252 -0.2460 -0.7224
  181SOPE   H3S20658   4.645   4.667   6.752  0.9887  0.6296  0.8439
  181SOPE   C2420659   4.542   4.787   6.909  0.3353  0.9038  0.1491
  181SOPE   H4R20660   4.481   4.879   6.918 -2.1042 -0.6692  0.6888
  181SOPE   H4S20661   4.488   4.694   6.939  0.3004  1.0535  0.5569
  181SOPE   C2520662   4.670   4.785   7.000  0.1140  0.0145  0.2451
  181SOPE   H5R20663   4.717   4.685   6.992  1.3413  0.5653  0.3924
  181SOPE   H5S20664   4.749   4.857   6.969  1.5192 -0.0980  3.1463
  181SOPE   C2620665   4.637   4.823   7.145 -0.1396  0.2379 -0.7977
  181SOPE   H6R20666   4.591   4.924   7.145  0.4443  0.5131  0.2788
  181SOPE   H6S20667   4.567   4.756   7.200  1.0055  1.3821  2.2390
  181SOPE   C2720668   4.765   4.851   7.228  0.0583 -0.0794 -0.0153
  181SOPE   H7R20669   4.810   4.752   7.249  0.8696  0.0020 -1.2862
  181SOPE   H7S20670   4.840   4.914   7.176  1.1149  0.0982  1.6524
  181SOPE   C2820671   4.738   4.936   7.351  0.0741 -0.0809 -0.0895
  181SOPE   H8R20672   4.837   4.970   7.389 -0.0865  0.9169 -0.5153
  181SOPE   H8S20673   4.679   5.026   7.324  2.3731  1.5850  0.1125
  181SOPE   C2920674   4.667   4.858   7.461 -0.3685 -0.1763 -0.5047
  181SOPE   H9120675   4.559   4.841   7.452 -0.3884 -0.2534 -0.1394
  181SOPE  C21020676   4.723   4.831   7.581  0.4557 -0.1543  0.4539
  181SOPE  H10120677   4.677   4.749   7.639 -1.4872 -0.4966 -1.4620
  181SOPE  C21120678   4.852   4.869   7.634 -0.0010  0.2618 -0.0135
  181SOPE  H11R20679   4.911   4.916   7.554 -0.2052 -0.2620 -0.4814
  181SOPE  H11S20680   4.906   4.777   7.667  0.6505  0.2586 -1.0705
  181SOPE  C21220681   4.841   4.964   7.760 -0.9409 -0.0167  0.2155
  181SOPE  H12R20682   4.784   5.058   7.747  1.0166  1.2442  0.3375
  181SOPE  H12S20683   4.942   4.997   7.790 -0.7991  0.7524 -1.0108
  181SOPE  C21320684   4.789   4.888   7.882 -0.2555  0.2121 -0.0645
  181SOPE  H13R20685   4.841   4.790   7.889 -0.6261  0.1194  2.1572
  181SOPE  H13S20686   4.680   4.870   7.866 -0.4735 -0.5278  1.9388
  181SOPE  C21420687   4.795   4.951   8.024 -0.0797 -0.4038  0.4539
  181SOPE  H14R20688   4.738   5.046   8.026  0.1857 -0.2112 -0.4486
  181SOPE  H14S20689   4.903   4.975   8.037 -0.2279 -0.7980  2.7719
  181SOPE  C21520690   4.761   4.863   8.143 -0.3597 -1.0441  0.4093
  181SOPE  H15R20691   4.828   4.775   8.130 -0.7733 -1.4120  0.7201
  181SOPE  H15S20692   4.652   4.846   8.140 -0.3415 -1.1684  0.4188
  181SOPE  C21620693   4.790   4.931   8.277 -0.2070  0.2588 -0.1491
  181SOPE  H16R20694   4.732   5.025   8.287  1.1525  1.0775  0.1781
  181SOPE  H16S20695   4.899   4.947   8.272  0.1228 -1.2647  1.1899
  181SOPE  C21720696   4.757   4.833   8.388 -0.6413 -0.0210  0.3669
  181SOPE  H17R20697   4.826   4.747   8.379 -0.3151  0.2326  0.4147
  181SOPE  H17S20698   4.650   4.807   8.371 -0.5384  0.4540 -1.2058
  181SOPE  C21820699   4.780   4.904   8.516  0.1144 -0.3444  0.3573
  181SOPE  H18R20700   4.727   5.002   8.519  1.3870  0.4197 -0.9891
  181SOPE  H18S20701   4.884   4.938   8.531  0.5121 -1.1143 -0.5504
  181SOPE  H18T20702   4.740   4.841   8.599  0.9265  0.0298  1.0482
  181SOPE   C3320703   4.577   4.396   7.120 -0.1071 -0.1036  0.4917
  181SOPE   H3X20704   4.627   4.495   7.114 -0.4366  0.2090  2.4356
  181SOPE   H3Y20705   4.653   4.316   7.128 -1.6308 -1.4645  1.9040
  181SOPE   C3420706   4.509   4.407   7.252  0.3576  0.3741  0.0136
  181SOPE   H4X20707   4.438   4.322   7.263 -2.2805  2.5175  0.6520
  181SOPE   H4Y20708   4.443   4.496   7.249 -0.7864 -0.2905  2.7321
  181SOPE   C3520709   4.607   4.427   7.373  0.3252  1.1128 -0.0579
  181SOPE   H5X20710   4.651   4.528   7.358  1.0476  0.8147  0.0006
  181SOPE   H5Y20711   4.699   4.365   7.373 -1.3237 -1.5077  0.0741
  181SOPE   C3620712   4.529   4.415   7.503 -0.2717 -0.0710  0.0957
  181SOPE   H6X20713   4.463   4.326   7.498  0.0548 -0.2553 -1.5002
  181SOPE   H6Y20714   4.468   4.504   7.527 -2.7235 -1.6216  0.0134
  181SOPE   C3720715   4.627   4.395   7.621  0.5277  0.4304 -0.1169
  181SOPE   H7X20716   4.708   4.472   7.628  0.0150  0.9626  0.0364
  181SOPE   H7Y20717   4.669   4.293   7.611  0.9237  0.7483 -2.0790
  181SOPE   C3820718   4.549   4.389   7.754 -0.5612 -1.1559 -0.9125
  181SOPE   H8X20719   4.497   4.291   7.760 -1.1584 -0.7742  0.4494
  181SOPE   H8Y20720   4.476   4.473   7.753  2.5095  1.7114 -0.7260
  181SOPE   C3920721   4.640   4.409   7.874  0.0981  0.4257 -0.1301
  181SOPE   H9X20722   4.715   4.491   7.865  0.5877 -0.0573 -0.5443
  181SOPE   H9Y20723   4.696   4.314   7.885  0.5556  0.3845 -2.3763
  181SOPE  C31020724   4.559   4.431   8.000 -0.1119 -0.5796 -0.5101
  181SOPE  H10X20725   4.496   4.340   8.013  1.2574 -1.6294 -0.9812
  181SOPE  H10Y20726   4.498   4.517   7.966 -0.4795 -0.6940 -0.1509
  181SOPE  C31120727   4.649   4.447   8.126  0.4232 -0.2258  0.3286
  181SOPE  H11X20728   4.729   4.517   8.094 -0.6825  0.2690 -1.5017
  181SOPE  H11Y20729   4.704   4.353   8.145 -0.0436 -0.4376  0.6435
  181SOPE  C31220730   4.564   4.483   8.248  0.3454 -0.1914 -0.5741
  181SOPE  H12X20731   4.472   4.421   8.253 -0.1381  0.2896 -2.4951
  181SOPE  H12Y20732   4.533   4.588   8.229  0.5248 -0.1090 -0.4105
  181SOPE  C31320733   4.661   4.492   8.372  1.1645 -0.2978  0.2447
  181SOPE  H13X20734   4.735   4.572   8.353  0.3167  0.6491  0.8023
  181SOPE  H13Y20735   4.717   4.396   8.372  4.2686  1.3811 -0.8360
  181SOPE  C31420736   4.590   4.522   8.508  0.7302  0.3792  1.1510
  181SOPE  H14X20737   4.510   4.445   8.513 -1.4728  2.2646 -1.7759
  181SOPE  H14Y20738   4.530   4.615   8.507  0.1460  0.0082  0.2412
  181SOPE  C31520739   4.681   4.522   8.626  0.4492  0.2227 -0.4032
  181SOPE  H15X20740   4.752   4.607   8.623  1.8907 -0.9165  0.0022
  181SOPE  H15Y20741   4.739   4.428   8.616  0.5582  0.0140  1.6730
  181SOPE  C31620742   4.598   4.537   8.762 -0.2112 -0.9345  0.2968
  181SOPE  H16X20743   4.514   4.465   8.775 -2.6396  1.8403  0.7999
  181SOPE  H16Y20744   4.558   4.640   8.763  0.2240 -0.7050 -1.6885
  181SOPE  C31720745   4.689   4.526   8.880  0.5973 -0.0337 -0.0058
  181SOPE  H17X20746   4.773   4.598   8.871  0.1088  0.4234 -1.0900
  181SOPE  H17Y20747   4.741   4.429   8.887  1.9084  0.3007 -3.5066
  181SOPE  C31820748   4.620   4.559   9.011 -0.8275 -0.0656 -0.4390
  181SOPE  H18X20749   4.684   4.516   9.091  2.1547  0.3540 -2.4425
  181SOPE  H18Y20750   4.525   4.500   9.012 -1.7723  1.3093  2.7998
  181SOPE  H18Z20751   4.597   4.666   9.030 -0.9640 -0.4494  1.8300
  182SOPE     N20752   5.805   3.233   6.164 -0.3926  0.0887 -0.1482
  182SOPE   HN120753   5.768   3.136   6.168  4.4174 -2.2771 -3.4328
  182SOPE   HN220754   5.726   3.300   6.147  0.2617  1.1808  0.9646
  182SOPE   HN320755   5.870   3.235   6.083  0.3797  0.6830  0.4704
  182SOPE   C1220756   5.874   3.257   6.288  0.3857 -0.6181 -0.6707
  182SOPE  H12A20757   5.967   3.197   6.278 -0.0424 -1.1498 -1.5599
  182SOPE  H12B20758   5.819   3.221   6.378  1.7899  1.2618  1.0412
  182SOPE   C1120759   5.922   3.408   6.302  0.3386 -0.0237 -0.7350
  182SOPE  H11A20760   5.994   3.411   6.387  0.5283 -0.6564 -0.8712
  182SOPE  H11B20761   5.833   3.471   6.323 -1.8749 -1.6300 -4.4585
  182SOPE     P20762   6.108   3.550   6.179 -0.2669  0.0963  0.2884
  182SOPE   O1320763   6.064   3.680   6.225 -0.0363 -0.3053 -0.4215
  182SOPE   O1420764   6.164   3.548   6.043 -0.0551  0.1088 -0.0935
  182SOPE   O1220765   5.986   3.449   6.185  0.0529 -0.9465  0.3044
  182SOPE   O1120766   6.213   3.491   6.277 -0.0974  0.1638 -0.9553
  182SOPE    C120767   6.298   3.378   6.264  0.9455 -0.2124 -0.0950
  182SOPE    HA20768   6.403   3.409   6.281  0.5963  1.3936 -0.6934
  182SOPE    HB20769   6.297   3.334   6.163  0.7216 -1.7175  0.5374
  182SOPE    C220770   6.262   3.258   6.355  0.2404  0.2200 -0.1043
  182SOPE    HS20771   6.174   3.207   6.311 -0.6324  0.5744  1.1887
  182SOPE   O2120772   6.227   3.317   6.483 -0.0672 -0.0496  0.6700
  182SOPE   C2120773   6.173   3.228   6.573  0.2246 -0.0808 -0.3519
  182SOPE   O2220774   6.118   3.122   6.544 -0.4689  0.0962  0.5788
  182SOPE   C2220775   6.165   3.285   6.712 -0.7902  0.7167 -0.1289
  182SOPE   H2R20776   6.202   3.390   6.712  3.8936 -0.6936 -0.3431
  182SOPE   H2S20777   6.231   3.223   6.778  0.3621 -0.0452 -1.9151
  182SOPE    C320778   6.373   3.147   6.363  1.0931 -0.2973  0.7715
  182SOPE    HX20779   6.395   3.128   6.256  0.2886  1.9398  0.1519
  182SOPE    HY20780   6.339   3.053   6.412 -2.3096 -0.0046 -0.7093
  182SOPE   O3120781   6.488   3.202   6.414  0.1224 -0.0793  0.3729
  182SOPE   C3120782   6.519   3.174   6.539 -0.0620  0.0491 -0.6617
  182SOPE   O3220783   6.453   3.111   6.617 -0.2287 -0.2968  0.0900
  182SOPE   C3220784   6.664   3.211   6.570 -0.0712 -0.0248 -0.2132
  182SOPE   H2X20785   6.683   3.315   6.537 -0.6564  0.8480  2.0439
  182SOPE   H2Y20786   6.732   3.143   6.514  0.4908  0.2346  0.1428
  182SOPE   C2320787   6.027   3.290   6.778 -0.0712  0.2392 -0.1499
  182SOPE   H3R20788   5.984   3.189   6.762  4.0124 -1.6605 -0.2550
  182SOPE   H3S20789   5.974   3.372   6.723  2.2693  2.5761  0.8576
  182SOPE   C2420790   6.025   3.327   6.928  0.8550 -0.5328 -0.1823
  182SOPE   H4R20791   6.077   3.425   6.928 -0.8037  0.3743 -1.0887
  182SOPE   H4S20792   5.921   3.325   6.967  1.0006  2.3358  0.5623
  182SOPE   C2520793   6.099   3.216   7.007  0.2605  0.0911 -0.3224
  182SOPE   H5R20794   6.038   3.125   6.988 -0.4363  0.1540  1.4187
  182SOPE   H5S20795   6.200   3.201   6.961 -0.6342 -0.1847 -2.3169
  182SOPE   C2620796   6.094   3.249   7.157 -0.2146  0.4406 -0.5762
  182SOPE   H6R20797   6.131   3.353   7.155 -0.4796  0.5274 -1.1030
  182SOPE   H6S20798   5.987   3.267   7.182 -0.8838  1.1160 -3.5500
  182SOPE   C2720799   6.165   3.138   7.249 -0.1402 -0.3184 -0.3727
  182SOPE   H7R20800   6.106   3.045   7.233 -2.1799  0.5159  1.8163
  182SOPE   H7S20801   6.265   3.122   7.203 -0.3709 -0.2221 -0.9138
  182SOPE   C2820802   6.168   3.181   7.397 -0.0901  0.4222  0.4857
  182SOPE   H8R20803   6.227   3.103   7.450  0.9785  1.7840  1.3666
  182SOPE   H8S20804   6.220   3.278   7.387 -1.9971  1.7847  2.9072
  182SOPE   C2920805   6.031   3.196   7.457  0.2766 -0.8126  0.4495
  182SOPE   H9120806   5.950   3.235   7.393  1.2259 -0.5717 -0.6478
  182SOPE  C21020807   5.999   3.178   7.585  0.8286 -0.6775  0.0137
  182SOPE  H10120808   5.895   3.196   7.615  0.7625  0.5859 -0.9039
  182SOPE  C21120809   6.092   3.130   7.693  0.5960 -0.5839 -0.2150
  182SOPE  H11R20810   6.168   3.208   7.715  0.0087  0.0333 -0.3345
  182SOPE  H11S20811   6.147   3.038   7.664  0.0755 -0.9040 -0.2089
  182SOPE  C21220812   6.013   3.094   7.818 -0.8445 -0.5719  0.0344
  182SOPE  H12R20813   6.052   3.011   7.880 -1.0749 -1.6729 -1.2419
  182SOPE  H12S20814   5.914   3.060   7.782 -0.5234 -0.3317 -1.1501
  182SOPE  C21320815   6.004   3.212   7.926 -0.3157 -0.7539  0.3366
  182SOPE  H13R20816   5.955   3.301   7.880  1.1115 -0.8280 -1.4518
  182SOPE  H13S20817   6.104   3.251   7.953 -1.2189  2.0589 -0.0569
  182SOPE  C21420818   5.940   3.170   8.063  0.0920  0.5829  0.4948
  182SOPE  H14R20819   6.005   3.107   8.127  0.9655 -0.6070 -1.4521
  182SOPE  H14S20820   5.842   3.121   8.043 -0.5261  1.9325  0.0748
  182SOPE  C21520821   5.909   3.299   8.142 -0.3248  0.7179  0.2574
  182SOPE  H15R20822   5.823   3.350   8.094  0.0974 -0.7483 -2.2175
  182SOPE  H15S20823   6.003   3.354   8.122 -1.4350  2.0827 -1.4089
  182SOPE  C21620824   5.883   3.272   8.283  0.1469  0.2066 -0.0691
  182SOPE  H16R20825   5.873   3.374   8.325  0.0951 -0.7425  2.3613
  182SOPE  H16S20826   5.977   3.229   8.325  1.7867  1.4248 -2.2980
  182SOPE  C21720827   5.752   3.176   8.307  0.1207 -0.5715 -0.3688
  182SOPE  H17R20828   5.773   3.072   8.272 -0.7848 -1.2463  0.9843
  182SOPE  H17S20829   5.674   3.206   8.233  0.3548 -0.5609 -0.6147
  182SOPE  C21820830   5.699   3.168   8.445 -0.2721  0.2435  0.1031
  182SOPE  H18R20831   5.612   3.099   8.448 -0.2613  0.1065 -1.7067
  182SOPE  H18S20832   5.665   3.266   8.485 -0.3040  0.3861 -0.2659
  182SOPE  H18T20833   5.778   3.144   8.519  0.2898  1.3695 -0.1188
  182SOPE   C3320834   6.690   3.217   6.726  0.3192  0.1359  0.3839
  182SOPE   H3X20835   6.798   3.240   6.736  0.7094  0.0573 -2.8388
  182SOPE   H3Y20836   6.658   3.120   6.769 -2.6609 -0.6674 -3.1429
  182SOPE   C3420837   6.609   3.324   6.806 -0.3970 -0.2941  0.0882
  182SOPE   H4X20838   6.508   3.292   6.840 -0.5742  1.7662  1.7346
  182SOPE   H4Y20839   6.601   3.412   6.739  0.4449 -0.6267 -0.4526
  182SOPE   C3520840   6.686   3.360   6.939 -0.5032  0.3588 -0.6944
  182SOPE   H5X20841   6.710   3.468   6.932 -0.3492  0.3695 -0.0922
  182SOPE   H5Y20842   6.773   3.291   6.948 -1.8286 -1.4927 -1.3587
  182SOPE   C3620843   6.587   3.348   7.062  0.2238 -0.2321 -0.1860
  182SOPE   H6X20844   6.545   3.246   7.075  0.5241 -0.1270  1.8416
  182SOPE   H6Y20845   6.509   3.425   7.045 -0.4088 -1.1574 -1.6647
  182SOPE   C3720846   6.651   3.383   7.194 -0.7365 -0.2322 -0.3526
  182SOPE   H7X20847   6.693   3.486   7.198  0.6239 -0.7997  1.9338
  182SOPE   H7Y20848   6.730   3.305   7.191  0.6326  0.9662  1.8067
  182SOPE   C3820849   6.557   3.357   7.312  0.2682 -0.2474  0.0557
  182SOPE   H8X20850   6.537   3.248   7.323 -3.2926  0.3236  0.5606
  182SOPE   H8Y20851   6.465   3.416   7.296  0.5332  0.0605 -0.3496
  182SOPE   C3920852   6.613   3.402   7.449 -0.5765 -0.1823 -0.1227
  182SOPE   H9X20853   6.633   3.511   7.447  0.3611 -0.2376  2.3557
  182SOPE   H9Y20854   6.708   3.347   7.460 -0.3947  0.3654  1.3107
  182SOPE  C31020855   6.520   3.368   7.561 -0.4245 -0.4116 -0.0637
  182SOPE  H10X20856   6.519   3.258   7.571  2.5634 -0.5439 -0.3443
  182SOPE  H10Y20857   6.418   3.402   7.533  0.2951  1.0782 -1.0305
  182SOPE  C31120858   6.570   3.431   7.698  0.1499  0.6218 -0.3825
  182SOPE  H11X20859   6.496   3.408   7.777 -0.4809  2.3970 -0.4126
  182SOPE  H11Y20860   6.572   3.542   7.693  0.6756  0.7070  1.1996
  182SOPE  C31220861   6.712   3.387   7.731 -0.2951 -0.9440  0.2107
  182SOPE  H12X20862   6.781   3.450   7.670  0.4823 -3.4551 -1.7110
  182SOPE  H12Y20863   6.723   3.282   7.695 -0.9044 -0.4334 -1.5909
  182SOPE  C31320864   6.734   3.414   7.879 -0.1764 -0.6772  0.1807
  182SOPE  H13X20865   6.681   3.328   7.923 -0.5750 -1.3188 -1.4725
  182SOPE  H13Y20866   6.685   3.512   7.896 -2.8570 -2.2914  2.5698
  182SOPE  C31420867   6.883   3.405   7.926 -0.6660  0.2182  0.5762
  182SOPE  H14X20868   6.942   3.472   7.859 -0.9527  2.5906  2.5657
  182SOPE  H14Y20869   6.912   3.301   7.901 -0.7469 -0.6067  3.6014
  182SOPE  C31520870   6.901   3.443   8.069  0.0270  0.6703  0.3121
  182SOPE  H15X20871   6.997   3.395   8.097  0.5047 -0.0951 -2.3544
  182SOPE  H15Y20872   6.824   3.395   8.133  2.0367 -0.8340  1.7354
  182SOPE  C31620873   6.888   3.593   8.083 -0.6128 -0.4408  0.1170
  182SOPE  H16X20874   6.781   3.622   8.077 -1.6875 -3.4038  2.2328
  182SOPE  H16Y20875   6.941   3.640   7.997 -0.2422 -1.2770 -0.1234
  182SOPE  C31720876   6.941   3.652   8.208 -0.3742  0.0552  0.2131
  182SOPE  H17X20877   6.918   3.586   8.294  0.4184  0.8156  1.0285
  182SOPE  H17Y20878   6.898   3.754   8.210 -0.1662  0.2699 -2.4691
  182SOPE  C31820879   7.090   3.668   8.210 -0.5454 -0.8558 -0.6538
  182SOPE  H18X20880   7.148   3.579   8.178  0.2719 -1.3869  2.0181
  182SOPE  H18Y20881   7.117   3.693   8.315 -1.3873 -1.7492 -0.2105
  182SOPE  H18Z20882   7.119   3.756   8.149  0.2863 -0.3752  0.4050
  183SOPE     N20883   2.203   2.010   5.953 -0.3906 -0.3007 -0.0227
  183SOPE   HN120884   2.193   1.943   6.033 -2.7162  3.0579  2.8335
  183SOPE   HN220885   2.110   2.057   5.955 -0.9653 -1.3128 -1.2361
  183SOPE   HN320886   2.210   1.960   5.862 -1.6199  0.6699 -0.6830
  183SOPE   C1220887   2.318   2.102   5.999  0.5838  0.7326  0.2434
  183SOPE  H12A20888   2.335   2.171   5.914  0.4210  2.5184  1.6167
  183SOPE  H12B20889   2.409   2.039   6.013 -0.5007 -0.5083  2.4335
  183SOPE   C1120890   2.276   2.171   6.136 -0.6300  0.0080  0.2470
  183SOPE  H11A20891   2.190   2.236   6.109  0.2009  1.0583  0.0734
  183SOPE  H11B20892   2.360   2.232   6.175  0.5204 -2.2575  1.5033
  183SOPE     P20893   2.322   2.006   6.337 -0.1061 -0.0032 -0.3074
  183SOPE   O1320894   2.460   2.040   6.323 -0.3183 -0.7460 -0.1116
  183SOPE   O1420895   2.295   1.861   6.320  0.4314  0.1109  0.1747
  183SOPE   O1220896   2.230   2.076   6.236 -0.0554  0.3861  0.1726
  183SOPE   O1120897   2.272   2.052   6.479  0.4897  0.4453 -0.1469
  183SOPE    C120898   2.130   2.033   6.505 -0.6397 -0.3487  0.5431
  183SOPE    HA20899   2.093   1.934   6.471 -3.5267  0.7727  0.1733
  183SOPE    HB20900   2.074   2.111   6.450 -0.2367 -0.2104  0.3179
  183SOPE    C220901   2.083   2.058   6.651 -0.3593  0.4198 -0.0561
  183SOPE    HS20902   1.972   2.064   6.644 -0.3745  0.0016 -0.1764
  183SOPE   O2120903   2.144   2.178   6.693 -0.0338  0.4818  0.2812
  183SOPE   C2120904   2.079   2.240   6.793  0.0871  0.1318  0.2748
  183SOPE   O2220905   1.969   2.208   6.837 -0.1791 -0.0181 -0.7644
  183SOPE   C2220906   2.165   2.364   6.830 -0.0215  0.1311 -0.1667
  183SOPE   H2R20907   2.099   2.449   6.855  0.1565  0.5046 -0.9208
  183SOPE   H2S20908   2.222   2.395   6.739 -1.6331  1.0038 -0.9152
  183SOPE    C320909   2.137   1.939   6.732 -0.4107 -1.4108 -1.0256
  183SOPE    HX20910   2.248   1.942   6.726 -0.0114  0.0743  3.3580
  183SOPE    HY20911   2.110   1.841   6.686 -2.1951 -0.8356 -1.2736
  183SOPE   O3120912   2.094   1.937   6.881  0.5093  0.3047 -0.2014
  183SOPE   C3120913   1.975   1.889   6.896 -0.2160  0.4758  0.3225
  183SOPE   O3220914   1.896   1.854   6.812  0.6350 -0.1556  0.3511
  183SOPE   C3220915   1.940   1.892   7.044 -0.1688 -0.2652 -0.3425
  183SOPE   H2X20916   2.015   1.953   7.098 -1.3666  1.8056 -0.9209
  183SOPE   H2Y20917   1.949   1.783   7.064 -0.5733 -0.2779 -0.2319
  183SOPE   C2320918   2.265   2.336   6.940  0.2090  0.3489 -0.0400
  183SOPE   H3R20919   2.304   2.433   6.976 -1.0940  1.6043 -1.8314
  183SOPE   H3S20920   2.347   2.272   6.900 -0.4560 -0.4959 -0.0910
  183SOPE   C2420921   2.206   2.275   7.068 -0.3513  0.3351  0.0748
  183SOPE   H4R20922   2.113   2.331   7.093  0.1450  2.1221 -1.7723
  183SOPE   H4S20923   2.184   2.168   7.049  1.7047  0.2325 -2.1497
  183SOPE   C2520924   2.308   2.289   7.185  0.1952 -0.2709  0.6225
  183SOPE   H5R20925   2.403   2.232   7.173 -1.1559 -2.2113 -1.6920
  183SOPE   H5S20926   2.348   2.392   7.184 -0.0606 -0.1702  0.0497
  183SOPE   C2620927   2.239   2.248   7.312  0.3652 -0.8605 -0.3492
  183SOPE   H6R20928   2.298   2.287   7.397 -1.3382  0.0397  0.4877
  183SOPE   H6S20929   2.146   2.309   7.313  1.8407  1.5204  0.1154
  183SOPE   C2720930   2.190   2.101   7.325 -0.0394  0.1659  0.0475
  183SOPE   H7R20931   2.107   2.083   7.252 -0.3336 -0.1603  0.4574
  183SOPE   H7S20932   2.281   2.050   7.287  0.4829  2.2652 -1.7305
  183SOPE   C2820933   2.137   2.058   7.459 -1.5465 -0.2179  0.5883
  183SOPE   H8R20934   2.041   2.106   7.490  0.3746  2.2832  3.2165
  183SOPE   H8S20935   2.116   1.949   7.448 -0.6233 -0.2165 -1.6836
  183SOPE   C2920936   2.236   2.069   7.572  0.0850  1.0417  0.3360
  183SOPE   H9120937   2.338   2.092   7.540  0.6342 -0.4897  0.8790
  183SOPE  C21020938   2.219   2.046   7.699 -0.1279 -0.0389 -0.3909
  183SOPE  H10120939   2.291   2.052   7.781 -1.7553 -2.0806  1.3205
  183SOPE  C21120940   2.092   2.006   7.759  0.1024 -0.0051 -0.6403
  183SOPE  H11R20941   2.079   1.896   7.761  3.4357 -0.4965  0.9989
  183SOPE  H11S20942   2.010   2.050   7.699 -1.3289  0.3879  1.5158
  183SOPE  C21220943   2.071   2.043   7.905 -0.5491 -0.8661 -0.0931
  183SOPE  H12R20944   2.081   2.153   7.917 -1.6087 -0.5597 -1.6718
  183SOPE  H12S20945   2.157   1.999   7.960  0.7033  1.9204  0.3862
  183SOPE  C21320946   1.939   1.997   7.955 -0.0146  0.1881 -0.5607
  183SOPE  H13R20947   1.929   1.886   7.946  0.8107  0.1345 -0.9506
  183SOPE  H13S20948   1.855   2.023   7.888 -1.6651  0.4648  1.5319
  183SOPE  C21420949   1.899   2.041   8.094 -0.3720  0.1246  0.6123
  183SOPE  H14R20950   1.910   2.152   8.097 -2.7062  0.4320  0.2311
  183SOPE  H14S20951   1.971   1.993   8.163  0.4756 -1.8587 -1.5268
  183SOPE  C21520952   1.752   2.004   8.124 -0.0887  0.1564  0.6857
  183SOPE  H15R20953   1.742   1.894   8.136  2.0838 -0.5407 -2.5559
  183SOPE  H15S20954   1.687   2.049   8.046  1.5027  0.7367 -0.3578
  183SOPE  C21620955   1.706   2.057   8.262  0.2290  0.2949  0.3543
  183SOPE  H16R20956   1.745   2.156   8.293 -2.4772  0.9207  2.1426
  183SOPE  H16S20957   1.731   1.983   8.341  0.1124  0.1403  0.2473
  183SOPE  C21720958   1.555   2.070   8.267 -0.2705  0.5823  0.0436
  183SOPE  H17R20959   1.518   1.976   8.220  3.4002 -2.1818  2.1714
  183SOPE  H17S20960   1.522   2.156   8.205  0.8260  0.3243 -0.9428
  183SOPE  C21820961   1.494   2.078   8.403  0.1748 -0.1462 -0.4348
  183SOPE  H18R20962   1.414   2.004   8.427  0.6164 -1.4596 -2.6692
  183SOPE  H18S20963   1.460   2.179   8.433  0.6652  0.4431 -1.7986
  183SOPE  H18T20964   1.584   2.064   8.466 -0.3821  0.1869  0.4508
  183SOPE   C3320965   1.796   1.947   7.061 -0.2495 -0.3829 -0.1282
  183SOPE   H3X20966   1.727   1.898   6.990  0.8382 -1.6258 -0.3803
  183SOPE   H3Y20967   1.802   2.053   7.028  0.9193 -0.5572 -0.5309
  183SOPE   C3420968   1.745   1.937   7.201 -0.5647  0.1096  0.2436
  183SOPE   H4X20969   1.715   1.834   7.227  1.1360  0.1329  2.6542
  183SOPE   H4Y20970   1.650   1.996   7.205 -0.3279  0.4795  0.5233
  183SOPE   C3520971   1.826   1.997   7.320 -0.7507  0.3178  0.7065
  183SOPE   H5X20972   1.861   2.098   7.290 -0.3661  0.4854  1.6743
  183SOPE   H5Y20973   1.913   1.929   7.332 -1.3787 -0.5186  0.5875
  183SOPE   C3620974   1.750   2.000   7.449 -0.4886 -0.2248 -0.4339
  183SOPE   H6X20975   1.646   2.036   7.439 -0.1232  0.3850 -2.3911
  183SOPE   H6Y20976   1.807   2.060   7.523 -0.2624 -3.0470  1.9044
  183SOPE   C3720977   1.743   1.862   7.523 -1.1118  0.3931  0.0922
  183SOPE   H7X20978   1.848   1.825   7.513 -0.5725  1.9143 -0.1648
  183SOPE   H7Y20979   1.682   1.790   7.465  1.9646  0.3208 -3.4914
  183SOPE   C3820980   1.702   1.867   7.665  1.0304  0.3261 -0.5043
  183SOPE   H8X20981   1.743   1.958   7.714 -0.5280  1.4913 -1.2838
  183SOPE   H8Y20982   1.744   1.774   7.710 -2.0390 -1.1431 -0.3437
  183SOPE   C3920983   1.547   1.871   7.683  0.4719  0.2690 -0.2879
  183SOPE   H9X20984   1.494   1.787   7.635  0.9009  1.3541 -2.8041
  183SOPE   H9Y20985   1.523   1.963   7.626  2.7700  0.5617 -0.8872
  183SOPE  C31020986   1.512   1.883   7.831 -0.6706  0.4012 -0.3741
  183SOPE  H10X20987   1.578   1.960   7.878 -0.5397  0.2859 -0.3689
  183SOPE  H10Y20988   1.542   1.785   7.872  3.1021  1.1157 -1.0510
  183SOPE  C31120989   1.362   1.910   7.847 -0.2729 -0.3649 -0.2490
  183SOPE  H11X20990   1.291   1.836   7.804 -1.9886 -0.0969  1.9510
  183SOPE  H11Y20991   1.334   2.008   7.802 -1.3356 -0.4506  0.1910
  183SOPE  C31220992   1.315   1.924   7.991  0.3955 -0.0169 -0.4901
  183SOPE  H12X20993   1.396   1.927   8.066 -1.0141  1.4831  1.0631
  183SOPE  H12Y20994   1.261   1.832   8.022  1.1399 -0.3414 -0.1234
  183SOPE  C31320995   1.220   2.039   8.028  0.0137 -0.0974  0.3515
  183SOPE  H13X20996   1.129   2.032   7.964  1.2231 -0.1195 -1.4436
  183SOPE  H13Y20997   1.276   2.128   7.992 -2.4831  0.5107 -2.4149
  183SOPE  C31420998   1.175   2.035   8.176 -0.0246 -0.2875  0.7299
  183SOPE  H14X20999   1.254   2.085   8.236 -0.4277  1.1303  0.1275
  183SOPE  H14Y21000   1.165   1.934   8.222 -0.2118  0.3986  2.2694
  183SOPE  C31521001   1.049   2.131   8.200  0.0981  0.0079  0.1247
  183SOPE  H15X21002   0.959   2.102   8.141  0.1518  0.0149  0.0386
  183SOPE  H15Y21003   1.076   2.234   8.171 -3.7370  1.6209  1.6647
  183SOPE  C31621004   1.007   2.142   8.348  0.2832 -0.5940  0.3806
  183SOPE  H16X21005   0.953   2.050   8.380 -2.1910  1.0824  1.3492
  183SOPE  H16Y21006   0.918   2.207   8.359  0.7385  0.5221 -1.9940
  183SOPE  C31721007   1.117   2.180   8.443 -0.2343 -0.3656 -0.1940
  183SOPE  H17X21008   1.150   2.286   8.438 -0.8729 -0.2258 -2.0521
  183SOPE  H17Y21009   1.211   2.127   8.414 -0.2617 -1.4083  1.4737
  183SOPE  C31821010   1.096   2.154   8.587 -0.9101 -0.1146 -0.6321
  183SOPE  H18X21011   1.081   2.044   8.594  0.6552 -0.4306 -1.8347
  183SOPE  H18Y21012   1.005   2.206   8.623 -0.9814 -0.9578  0.4749
  183SOPE  H18Z21013   1.172   2.189   8.661 -1.4775  1.0072 -0.5668
  184SOPE     N21014   0.567   3.025   6.398 -0.0002 -0.0126 -0.6808
  184SOPE   HN121015   0.499   3.051   6.472 -0.2211 -2.4824  0.0972
  184SOPE   HN221016   0.582   3.103   6.331 -1.7052  0.7543 -0.2067
  184SOPE   HN321017   0.527   2.949   6.340  3.1393 -0.2043 -2.8340
  184SOPE   C1221018   0.696   2.991   6.463 -0.1146 -0.2700  0.5155
  184SOPE  H12A21019   0.734   3.072   6.528  0.8302 -1.2837  1.2655
  184SOPE  H12B21020   0.772   2.966   6.386  2.3590  3.0562  1.6170
  184SOPE   C1121021   0.682   2.875   6.555  0.0297  0.2151 -0.5358
  184SOPE  H11A21022   0.603   2.900   6.629 -1.7329 -2.2238 -1.4616
  184SOPE  H11B21023   0.778   2.852   6.606 -0.2096  1.0863  0.3511
  184SOPE     P21024   0.728   2.676   6.390  0.4303 -0.0135  0.3208
  184SOPE   O1321025   0.766   2.755   6.270  0.1733  0.3198 -0.5602
  184SOPE   O1421026   0.659   2.548   6.364  0.3465  0.0333 -0.3119
  184SOPE   O1221027   0.641   2.765   6.481  0.4078  0.7309 -0.3118
  184SOPE   O1121028   0.853   2.659   6.480 -0.2396 -0.9057  0.1458
  184SOPE    C121029   0.886   2.534   6.539  0.2053  0.0593 -0.2867
  184SOPE    HA21030   0.989   2.535   6.581  0.6007 -2.6261 -1.0128
  184SOPE    HB21031   0.898   2.452   6.465  0.7721 -0.6037  0.5235
  184SOPE    C221032   0.791   2.498   6.660  0.3515 -0.0758  0.6545
  184SOPE    HS21033   0.688   2.505   6.618  0.6548  1.1896  0.0857
  184SOPE   O2121034   0.791   2.605   6.763 -0.3182 -0.5211 -0.5716
  184SOPE   C2121035   0.894   2.617   6.826  0.0530 -0.2481 -0.2809
  184SOPE   O2221036   0.997   2.555   6.805 -0.1918  0.3955  0.2003
  184SOPE   C2221037   0.876   2.729   6.920  0.0303  0.4628 -0.6670
  184SOPE   H2R21038   0.946   2.809   6.888 -0.5642  1.4826  0.4523
  184SOPE   H2S21039   0.921   2.694   7.016  1.2521 -1.2300 -1.8111
  184SOPE    C321040   0.825   2.357   6.706 -0.0823 -0.2627  0.0228
  184SOPE    HX21041   0.936   2.350   6.706 -0.0440  0.2327 -0.8396
  184SOPE    HY21042   0.794   2.293   6.620  1.5693 -1.3515  0.2014
  184SOPE   O3121043   0.755   2.316   6.825  0.1391 -0.1753  0.3296
  184SOPE   C3121044   0.626   2.291   6.805 -0.4861  0.6105 -0.5671
  184SOPE   O3221045   0.563   2.306   6.702  0.4238 -0.8331 -0.2410
  184SOPE   C3221046   0.573   2.227   6.931  0.3231 -1.0868  0.0526
  184SOPE   H2X21047   0.655   2.184   6.992  1.5205  0.1197 -0.6426
  184SOPE   H2Y21048   0.496   2.153   6.903 -2.9607  1.7143  0.9550
  184SOPE   C2321049   0.738   2.783   6.944 -0.6999  0.7610  0.3602
  184SOPE   H3R21050   0.664   2.703   6.966  0.2548 -0.6055 -1.2104
  184SOPE   H3S21051   0.711   2.838   6.852 -0.1167 -0.5934 -0.6559
  184SOPE   C2421052   0.728   2.892   7.052  0.4954  0.3551 -0.0701
  184SOPE   H4R21053   0.810   2.966   7.053  0.0677  0.8522 -0.7509
  184SOPE   H4S21054   0.637   2.949   7.026 -0.7577 -2.7712 -3.4966
  184SOPE   C2521055   0.720   2.830   7.199 -0.3218  0.9919  0.7081
  184SOPE   H5R21056   0.633   2.760   7.205  1.4257 -1.4504 -0.6511
  184SOPE   H5S21057   0.807   2.761   7.204 -0.4860  0.7780  0.6361
  184SOPE   C2621058   0.693   2.927   7.311  0.6807 -0.2889 -0.3506
  184SOPE   H6R21059   0.765   3.011   7.314 -0.0692  0.3972 -1.0567
  184SOPE   H6S21060   0.602   2.986   7.286  2.0947  1.3508 -1.8500
  184SOPE   C2721061   0.682   2.859   7.445 -0.2453 -0.5375  0.1737
  184SOPE   H7R21062   0.605   2.781   7.426 -1.2604  0.4822 -0.0779
  184SOPE   H7S21063   0.777   2.805   7.459 -0.1680 -0.5545 -0.3834
  184SOPE   C2821064   0.639   2.943   7.565  0.2501  0.5753 -0.7139
  184SOPE   H8R21065   0.700   3.036   7.565 -2.2642  2.3620  0.8667
  184SOPE   H8S21066   0.535   2.984   7.568  0.6439  1.5402  1.4574
  184SOPE   C2921067   0.656   2.868   7.695 -0.0922  0.4945  0.2327
  184SOPE   H9121068   0.617   2.766   7.683 -0.2354  0.5124  0.5566
  184SOPE  C21021069   0.699   2.911   7.813 -0.2780  0.0112  0.4517
  184SOPE  H10121070   0.721   2.835   7.889 -2.1258 -0.1851  0.8243
  184SOPE  C21121071   0.734   3.050   7.834  0.1795 -0.2107  0.0378
  184SOPE  H11R21072   0.658   3.121   7.795 -0.2842 -1.4487 -1.3717
  184SOPE  H11S21073   0.825   3.071   7.772 -0.0210 -1.1439 -0.5796
  184SOPE  C21221074   0.746   3.095   7.984  0.4372  0.0589  0.2614
  184SOPE  H12R21075   0.798   3.193   7.985  0.3979  0.0782  0.4399
  184SOPE  H12S21076   0.824   3.037   8.038 -0.2489  0.8444  2.1845
  184SOPE  C21321077   0.607   3.110   8.050 -0.2154  0.2926  0.2859
  184SOPE  H13R21078   0.561   3.012   8.072 -0.9581  0.6185  0.2206
  184SOPE  H13S21079   0.540   3.157   7.975 -0.1243 -2.1711 -1.4562
  184SOPE  C21421080   0.609   3.205   8.179  0.2537  0.3796 -0.3571
  184SOPE  H14R21081   0.656   3.295   8.133 -1.1824  0.3294 -2.0615
  184SOPE  H14S21082   0.679   3.151   8.247  0.7990  0.5696 -0.7643
  184SOPE  C21521083   0.475   3.231   8.251 -0.0708  0.8100 -0.5284
  184SOPE  H15R21084   0.471   3.143   8.319  1.8632  0.0584 -1.3262
  184SOPE  H15S21085   0.389   3.233   8.180  0.8532 -0.2023 -1.7137
  184SOPE  C21621086   0.484   3.358   8.334 -0.8139 -0.8090 -0.0744
  184SOPE  H16R21087   0.505   3.441   8.264  0.5810 -2.3215 -1.5317
  184SOPE  H16S21088   0.572   3.354   8.401  0.1614  0.2779 -1.2368
  184SOPE  C21721089   0.361   3.386   8.428 -0.1374  0.5263  0.1812
  184SOPE  H17R21090   0.272   3.334   8.387 -0.3737  0.3189  0.9551
  184SOPE  H17S21091   0.328   3.492   8.440 -0.0822  0.6054 -0.3261
  184SOPE  C21821092   0.394   3.321   8.557 -0.8633  0.5781 -0.3612
  184SOPE  H18R21093   0.483   3.370   8.602 -1.2725  0.3847  0.6945
  184SOPE  H18S21094   0.415   3.213   8.544  0.8196  0.7561  0.5674
  184SOPE  H18T21095   0.312   3.335   8.631 -0.9287  1.9238 -0.6566
  184SOPE   C3321096   0.493   2.328   7.024 -0.4385 -0.0681 -0.6724
  184SOPE   H3X21097   0.456   2.260   7.104 -1.7721  2.2849  0.8348
  184SOPE   H3Y21098   0.410   2.373   6.966 -0.1330  0.9506 -0.3408
  184SOPE   C3421099   0.576   2.435   7.085 -1.0886 -1.1452 -0.0400
  184SOPE   H4X21100   0.588   2.513   7.007 -0.0818 -0.3117  0.9179
  184SOPE   H4Y21101   0.677   2.395   7.108 -0.9996 -0.6537  0.4457
  184SOPE   C3521102   0.504   2.502   7.205  0.4295  0.9585 -0.2868
  184SOPE   H5X21103   0.401   2.530   7.177 -0.6007 -2.2031 -0.0606
  184SOPE   H5Y21104   0.563   2.594   7.227  1.7638  0.1061 -0.1418
  184SOPE   C3621105   0.493   2.412   7.334  0.6740 -0.0884 -0.8950
  184SOPE   H6X21106   0.597   2.387   7.364  0.0644 -0.9196  0.6297
  184SOPE   H6Y21107   0.423   2.328   7.316 -1.0776  1.4441 -1.5452
  184SOPE   C3721108   0.435   2.507   7.431  0.4267 -0.0012 -0.3565
  184SOPE   H7X21109   0.332   2.536   7.400  1.0373  1.6362 -0.9539
  184SOPE   H7Y21110   0.482   2.604   7.456  1.6980 -1.1207  1.8577
  184SOPE   C3821111   0.426   2.432   7.565 -0.2011  0.2651 -0.5570
  184SOPE   H8X21112   0.526   2.407   7.606  0.3040 -0.0761 -1.9313
  184SOPE   H8Y21113   0.380   2.334   7.540 -1.6753  0.1985  2.0004
  184SOPE   C3921114   0.334   2.501   7.678 -0.3725  0.2896 -0.1718
  184SOPE   H9X21115   0.246   2.545   7.628  0.0556  1.0025 -0.3043
  184SOPE   H9Y21116   0.384   2.585   7.730  0.6238 -0.4135  0.0311
  184SOPE  C31021117   0.277   2.407   7.779  0.5194 -0.0691  0.0765
  184SOPE  H10X21118   0.247   2.309   7.735  0.5005  0.4289 -1.0353
  184SOPE  H10Y21119   0.198   2.468   7.828  0.2681  1.1178 -1.7291
  184SOPE  C31121120   0.367   2.367   7.901 -0.5055 -0.4051 -0.9776
  184SOPE  H11X21121   0.454   2.313   7.859 -0.0099 -0.1359 -0.3141
  184SOPE  H11Y21122   0.304   2.298   7.962  0.1423 -3.2432 -3.3026
  184SOPE  C31221123   0.420   2.488   7.982 -0.5726 -0.3738 -0.6266
  184SOPE  H12X21124   0.510   2.536   7.940  0.5697 -0.7397  1.2467
  184SOPE  H12Y21125   0.450   2.430   8.072  0.7335  0.5330 -0.4522
  184SOPE  C31321126   0.311   2.582   8.044 -0.5406  0.0672  0.0903
  184SOPE  H13X21127   0.236   2.518   8.095  0.5596 -1.4132 -0.0815
  184SOPE  H13Y21128   0.266   2.631   7.955  0.0080  0.8658  0.2468
  184SOPE  C31421129   0.363   2.685   8.134  0.3769  0.1636  0.4435
  184SOPE  H14X21130   0.289   2.768   8.136 -0.9522 -0.9519 -0.2348
  184SOPE  H14Y21131   0.460   2.724   8.097 -1.3133  2.6239 -1.8271
  184SOPE  C31521132   0.369   2.621   8.276 -0.1202 -0.6919 -0.5683
  184SOPE  H15X21133   0.428   2.527   8.279 -1.4076 -1.4989  0.8526
  184SOPE  H15Y21134   0.264   2.593   8.301 -0.7727  2.2534  0.3973
  184SOPE  C31621135   0.409   2.707   8.399 -0.4487 -0.3527 -0.1779
  184SOPE  H16X21136   0.334   2.787   8.417  0.8326  0.8134  0.1459
  184SOPE  H16Y21137   0.502   2.764   8.378 -0.4036  0.8994  2.9154
  184SOPE  C31721138   0.416   2.635   8.538 -0.1767  0.2776  0.8840
  184SOPE  H17X21139   0.313   2.608   8.570 -0.0480 -0.9268  0.3268
  184SOPE  H17Y21140   0.435   2.705   8.622 -0.3736  0.1919  1.0010
  184SOPE  C31821141   0.505   2.511   8.555 -0.3517  0.1071  0.1514
  184SOPE  H18X21142   0.606   2.536   8.516 -1.0025  2.6584 -0.0350
  184SOPE  H18Y21143   0.456   2.421   8.510 -2.1874  0.4311  1.3708
  184SOPE  H18Z21144   0.528   2.495   8.663  0.5560  1.8382  0.2491
  185SAPI   C1221145   3.281   0.122  11.142 -0.4966  0.2599 -0.2819
  185SAPI    H221146   3.330   0.219  11.167 -1.9659  1.3185 -1.2968
  185SAPI    O221147   3.354   0.065  11.033  0.2942  0.1816 -0.3083
  185SAPI   HO221148   3.294   0.077  10.959  0.1281  0.0862 -0.1890
  185SAPI   C1321149   3.290   0.030  11.266 -0.5852 -0.0405  0.1964
  185SAPI    H321150   3.240   0.082  11.350 -0.8233 -1.4346  0.9535
  185SAPI    O321151   3.422   0.009  11.310 -0.9910  0.4748 -0.5007
  185SAPI   HO321152   3.468  -0.009  11.228 -1.3999  1.9327 -1.0950
  185SAPI   C1421153   3.218  -0.104  11.257  0.0297  0.5195 -0.5551
  185SAPI    H421154   3.274  -0.168  11.186  3.1405  0.6674  1.5457
  185SAPI    O421155   3.226  -0.179  11.384 -0.3907  0.9265 -0.0038
  185SAPI   HO421156   3.303  -0.234  11.366  0.1212  1.2939  0.9863
  185SAPI   C1521157   3.064  -0.079  11.217  0.2088  0.0312 -0.1512
  185SAPI    H521158   3.027  -0.008  11.294  6.0478  1.7066  1.6145
  185SAPI    O521159   2.986  -0.199  11.201  0.5394 -0.2695  0.7821
  185SAPI   HO521160   2.907  -0.191  11.256 -0.9472 -2.2806 -0.9038
  185SAPI   C1621161   3.063   0.003  11.092 -0.1156 -0.0217  0.1473
  185SAPI    H621162   3.106  -0.058  11.010 -0.2950 -0.4397  0.3595
  185SAPI    O621163   2.927   0.025  11.050  0.4871  0.4364 -0.1079
  185SAPI   HO621164   2.887   0.095  11.101  0.6693 -0.3087  1.1111
  185SAPI   C1121165   3.133   0.143  11.104  0.3141 -0.3216 -0.3565
  185SAPI    H121166   3.072   0.194  11.180  0.8764 -0.8283  0.4538
  185SAPI     P21167   3.090   0.373  10.966  0.0428  0.2021  0.2578
  185SAPI   O1321168   3.086   0.424  11.105 -0.1379  0.5214  0.2596
  185SAPI   O1421169   2.980   0.397  10.871 -0.5525  0.5814 -0.0284
  185SAPI   O1221170   3.116   0.211  10.977  0.3004 -0.3861  0.5295
  185SAPI   O1121171   3.224   0.434  10.903  0.4774 -0.0764  0.1164
  185SAPI    C121172   3.357   0.415  10.941 -0.4447  0.5507 -0.0345
  185SAPI    HA21173   3.395   0.495  11.007  2.2015 -2.1520  1.9844
  185SAPI    HB21174   3.366   0.328  11.009 -2.4655  0.8269  0.6611
  185SAPI    C221175   3.448   0.390  10.812 -0.1798 -0.8946 -0.3823
  185SAPI    HS21176   3.552   0.412  10.844 -0.8486  0.0127  1.3106
  185SAPI   O2121177   3.413   0.462  10.702 -0.4662 -0.1319 -0.1187
  185SAPI   C2121178   3.418   0.597  10.707 -0.2103 -0.3681 -0.0087
  185SAPI   O2221179   3.447   0.666  10.804  0.1761  0.2257  0.4368
  185SAPI   C2221180   3.413   0.653  10.564  0.1770 -0.0381  0.0918
  185SAPI   H2R21181   3.324   0.606  10.517 -0.1712 -1.2263  1.8569
  185SAPI   H2S21182   3.408   0.763  10.576 -1.7028 -0.0905  0.1119
  185SAPI    C321183   3.435   0.236  10.773  0.4229 -0.3305  0.1258
  185SAPI    HX21184   3.325   0.234  10.755  0.2555  0.8109  0.8888
  185SAPI    HY21185   3.467   0.170  10.857  1.6477  2.1995  1.7760
  185SAPI   O3121186   3.497   0.204  10.645  0.9726 -0.0095 -0.0137
  185SAPI   C3121187   3.625   0.183  10.643 -0.2589  0.1130 -0.7965
  185SAPI   O3221188   3.696   0.183  10.741  0.1302 -0.6451 -0.0620
  185SAPI   C3221189   3.669   0.144  10.505  0.1508 -0.6444 -0.0418
  185SAPI   H2X21190   3.766   0.192  10.478 -0.8223  2.2811  1.2429
  185SAPI   H2Y21191   3.598   0.186  10.430  3.6501  0.0539 -3.2526
  185SAPI   C2321192   3.546   0.618  10.482  1.3987  0.0984 -0.6813
  185SAPI   H3R21193   3.636   0.625  10.547  1.7432 -0.0337 -1.1309
  185SAPI   H3S21194   3.549   0.703  10.410  1.0179  0.0542 -0.7499
  185SAPI   C2421195   3.547   0.493  10.402  0.5267  0.0067 -0.5507
  185SAPI   H4R21196   3.538   0.410  10.475 -2.0012 -0.2270 -1.0467
  185SAPI   H4S21197   3.646   0.487  10.351  2.2122 -0.3754  2.5100
  185SAPI   C2521198   3.433   0.484  10.305  0.0630  0.2455 -0.2735
  185SAPI   H5R21199   3.335   0.483  10.356  0.6480  0.6045  0.8874
  185SAPI   C2621200   3.436   0.469  10.169 -0.5741 -0.0749  0.0258
  185SAPI   H6R21201   3.344   0.451  10.110 -0.2142 -2.3025  0.0661
  185SAPI   C2721202   3.553   0.454  10.076  0.9365  0.5870 -0.1819
  185SAPI   H7R21203   3.532   0.382   9.995  4.0047  0.3163 -0.8723
  185SAPI   H7S21204   3.634   0.408  10.137  0.6749  1.5043  0.9002
  185SAPI   C2821205   3.595   0.583  10.022  0.2882  0.1581 -0.5438
  185SAPI   H8R21206   3.641   0.653  10.094 -1.8251 -0.1843  1.2533
  185SAPI   C2921207   3.586   0.629   9.895 -0.3305 -0.3906  0.5539
  185SAPI   H9R21208   3.618   0.730   9.866 -2.7008 -0.0693 -1.2495
  185SAPI  C21021209   3.529   0.547   9.780  0.5337 -0.3552  0.1859
  185SAPI  H10R21210   3.491   0.617   9.703  1.2890  1.9397  1.7722
  185SAPI  H10S21211   3.433   0.514   9.826  1.6845 -0.5798  2.5906
  185SAPI  C21121212   3.598   0.429   9.723  0.1631 -0.3457  0.4188
  185SAPI  H11R21213   3.706   0.427   9.745  0.0219  2.0146  1.6162
  185SAPI  C21221214   3.551   0.342   9.628 -0.4661 -0.0496 -0.1563
  185SAPI  H12R21215   3.615   0.257   9.601 -0.1309  0.1203  0.0816
  185SAPI  C21321216   3.416   0.354   9.558  0.7541 -0.1126  0.0152
  185SAPI  H13R21217   3.430   0.426   9.475 -0.3966  1.8921  1.4550
  185SAPI  H13S21218   3.343   0.406   9.623  1.5224  0.8431  0.1336
  185SAPI  C21421219   3.377   0.222   9.504  0.1224 -0.3379 -0.4080
  185SAPI  H14R21220   3.351   0.156   9.587 -1.1554 -1.1157 -1.4042
  185SAPI  C21521221   3.356   0.177   9.379  0.3492 -0.2244 -0.6960
  185SAPI  H15R21222   3.305   0.079   9.379  0.2685 -0.1996  0.4741
  185SAPI  C21621223   3.363   0.256   9.254  0.4178 -0.6711  0.0974
  185SAPI  H16R21224   3.361   0.366   9.270 -0.9552 -0.8252  1.1051
  185SAPI  H16S21225   3.279   0.220   9.192  1.2125 -2.2827 -0.1092
  185SAPI  C21721226   3.496   0.224   9.183  0.2033  0.9760 -0.3577
  185SAPI  H17R21227   3.586   0.241   9.246 -0.6604  2.3633  0.5591
  185SAPI  H17S21228   3.504   0.277   9.086 -0.2107  1.9016  0.1093
  185SAPI  C21821229   3.517   0.073   9.159  0.1457  0.4763 -0.4954
  185SAPI  H18R21230   3.434   0.020   9.208 -0.8926  1.6262 -0.9569
  185SAPI  H18S21231   3.618   0.034   9.183 -0.7553 -2.7840 -1.5636
  185SAPI  C21921232   3.504   0.046   9.009 -0.5899 -0.4970 -0.2998
  185SAPI  H19R21233   3.549   0.124   8.944 -1.2025  0.2974  0.2169
  185SAPI  H19S21234   3.397   0.064   8.985 -0.0248 -0.1985 -2.8378
  185SAPI  C22021235   3.535  -0.099   8.955 -0.6416 -0.2161  0.0659
  185SAPI  H20R21236   3.499  -0.175   9.029  2.3939 -1.5758  0.2869
  185SAPI  H20S21237   3.643  -0.102   8.932 -0.7494 -0.1977 -0.4382
  185SAPI  H20T21238   3.484  -0.116   8.858 -2.1320 -1.9692  1.0710
  185SAPI   C3321239   3.699  -0.003  10.468  0.6003 -0.2044  0.1309
  185SAPI   H3X21240   3.603  -0.053  10.443  0.4951 -0.0862  0.2996
  185SAPI   H3Y21241   3.749  -0.055  10.552  0.4536 -0.5325  0.0146
  185SAPI   C3421242   3.802  -0.005  10.344  0.1099  0.5518  0.1833
  185SAPI   H4X21243   3.832  -0.111  10.331  0.5924  0.8928 -1.7526
  185SAPI   H4Y21244   3.894   0.054  10.367  1.1008  0.3838 -2.8921
  185SAPI   C3521245   3.725   0.036  10.204  0.0055 -0.1502  0.3392
  185SAPI   H5X21246   3.684   0.138  10.222  0.8739  0.2230  0.2876
  185SAPI   H5Y21247   3.652  -0.046  10.186  2.1084 -1.7391 -1.5190
  185SAPI   C3621248   3.823   0.029  10.082 -0.3380 -0.2602 -0.0505
  185SAPI   H6X21249   3.882  -0.064  10.097  0.4366 -0.0966 -1.8159
  185SAPI   H6Y21250   3.891   0.116  10.080 -1.3101  0.5101 -0.4571
  185SAPI   C3721251   3.733   0.007   9.955 -0.3109 -0.3354 -0.6848
  185SAPI   H7X21252   3.733   0.115   9.926  3.0388 -0.0337  0.0612
  185SAPI   H7Y21253   3.630  -0.028   9.977 -0.5579  0.9309  0.3220
  185SAPI   C3821254   3.811  -0.058   9.839 -0.3129  0.8085  0.2813
  185SAPI   H8X21255   3.822  -0.162   9.877 -0.8260  1.5338  2.5758
  185SAPI   H8Y21256   3.915  -0.018   9.836  1.9561 -3.8805  2.9467
  185SAPI   C3921257   3.740  -0.053   9.704  0.1588 -0.0147  0.0873
  185SAPI   H9X21258   3.787  -0.113   9.624 -3.0299 -2.9401  0.1605
  185SAPI   H9Y21259   3.734   0.056   9.683 -0.5842 -0.1181 -0.2720
  185SAPI  C31021260   3.589  -0.109   9.701 -0.6785 -0.0463 -0.4321
  185SAPI  H10X21261   3.523  -0.043   9.761  0.3049 -1.9687  3.0163
  185SAPI  H10Y21262   3.595  -0.206   9.754 -2.6806  0.6523  1.1884
  185SAPI  C31121263   3.533  -0.142   9.562 -0.0756 -0.7138 -0.1987
  185SAPI  H11X21264   3.597  -0.214   9.507 -0.0039 -1.3921  0.7457
  185SAPI  H11Y21265   3.513  -0.048   9.506 -1.6442 -1.7100 -1.3834
  185SAPI  C31221266   3.401  -0.213   9.578 -0.7977 -0.0986 -0.1583
  185SAPI  H12X21267   3.338  -0.144   9.638 -0.2035  0.5076 -0.2192
  185SAPI  H12Y21268   3.405  -0.311   9.631 -2.5613 -0.6409 -0.9750
  185SAPI  C31321269   3.339  -0.237   9.440 -0.7026 -0.8756 -0.4865
  185SAPI  H13X21270   3.401  -0.305   9.379  1.7366  0.1966  0.6643
  185SAPI  H13Y21271   3.339  -0.138   9.390  1.1344 -0.1182  0.8780
  185SAPI  C31421272   3.194  -0.276   9.456 -0.3371  0.0536 -0.1828
  185SAPI  H14X21273   3.149  -0.214   9.537  0.1238  2.3033 -1.5749
  185SAPI  H14Y21274   3.193  -0.381   9.492  0.6273 -0.3719 -1.3397
  185SAPI  C31521275   3.119  -0.256   9.339 -0.5451 -0.2355 -0.1283
  185SAPI  H15X21276   3.155  -0.320   9.256  0.8327 -1.5408  1.3914
  185SAPI  H15Y21277   3.125  -0.151   9.303  0.5737 -0.7435 -1.4859
  185SAPI  C31621278   2.972  -0.289   9.347 -0.3965  0.9686 -0.7225
  185SAPI  H16X21279   2.918  -0.251   9.436 -1.1653 -1.3490 -0.1330
  185SAPI  H16Y21280   2.954  -0.399   9.351 -1.1836  1.1350  1.1474
  185SAPI  C31721281   2.893  -0.242   9.230  0.3495 -0.5017 -0.4881
  185SAPI  H17X21282   2.947  -0.278   9.139  1.5955 -0.5315  0.2418
  185SAPI  H17Y21283   2.886  -0.132   9.226  2.1184 -0.3004  0.6540
  185SAPI  C31821284   2.754  -0.301   9.234  0.5035 -0.1074  0.2817
  185SAPI  H18X21285   2.691  -0.276   9.146  1.8233  2.0537 -0.1144
  185SAPI  H18Y21286   2.698  -0.258   9.320 -1.1457 -0.2814 -0.6740
  185SAPI  H18Z21287   2.750  -0.411   9.250 -1.0243  0.1296  1.8462
  186SAPI   C1221288   5.703   4.632  11.152 -0.5738 -0.5389 -0.8147
  186SAPI    H221289   5.604   4.587  11.176 -0.5709  1.2860  3.4242
  186SAPI    O221290   5.736   4.743  11.235  0.1780 -0.3272  0.0199
  186SAPI   HO221291   5.722   4.819  11.178  1.3170 -0.2107 -0.1194
  186SAPI   C1321292   5.807   4.520  11.168 -0.3642 -0.6749 -0.0214
  186SAPI    H321293   5.786   4.443  11.089  0.1669 -0.1038 -0.7377
  186SAPI    O321294   5.792   4.453  11.299  0.3495 -0.3977  0.0264
  186SAPI   HO321295   5.856   4.381  11.303  0.9967  0.1173 -0.7959
  186SAPI   C1421296   5.946   4.563  11.137  0.0692  0.3548  0.0145
  186SAPI    H421297   5.967   4.644  11.210 -0.5776 -2.5371  3.7021
  186SAPI    O421298   6.031   4.450  11.155 -0.6863  0.5568 -0.6705
  186SAPI   HO421299   6.096   4.471  11.221 -1.1809  0.5550 -0.1715
  186SAPI   C1521300   5.960   4.627  10.993 -0.5777 -1.1109 -0.1235
  186SAPI    H521301   5.959   4.543  10.921  0.4522  1.6580 -3.6553
  186SAPI    O521302   6.094   4.679  10.980 -0.0186 -0.6003  0.1441
  186SAPI   HO521303   6.139   4.635  10.907 -0.3319 -0.1280 -0.3422
  186SAPI   C1621304   5.849   4.724  10.968  0.1809 -0.1653  0.4598
  186SAPI    H621305   5.865   4.808  11.039 -0.8924  1.3238 -0.9711
  186SAPI    O621306   5.852   4.768  10.832  0.3606 -0.3448 -0.1633
  186SAPI   HO621307   5.762   4.766  10.798  0.6010 -1.0695 -0.7875
  186SAPI   C1121308   5.711   4.670  11.002 -0.1183  0.5759 -0.8147
  186SAPI    H121309   5.696   4.581  10.937 -1.7155 -1.4700  2.1173
  186SAPI     P21310   5.504   4.763  10.863  0.1030  0.3795  0.4715
  186SAPI   O1321311   5.425   4.886  10.854  0.4327  0.4324  0.5295
  186SAPI   O1421312   5.442   4.631  10.887  0.1989  0.3503 -0.3601
  186SAPI   O1221313   5.607   4.777  10.987 -0.2367 -0.0793 -0.3668
  186SAPI   O1121314   5.602   4.745  10.736 -0.4105 -0.3563 -0.3668
  186SAPI    C121315   5.554   4.689  10.612  0.1326 -0.3723  0.4872
  186SAPI    HA21316   5.444   4.671  10.610 -0.1456  0.9737  1.5549
  186SAPI    HB21317   5.573   4.760  10.528 -0.8833 -0.1031  0.4623
  186SAPI    C221318   5.626   4.566  10.585 -0.4401  0.6891 -0.4527
  186SAPI    HS21319   5.632   4.507  10.679 -1.2189  0.2436 -0.6691
  186SAPI   O2121320   5.756   4.593  10.533 -0.0960  0.2747 -0.4190
  186SAPI   C2121321   5.846   4.498  10.545 -0.1367 -0.3826 -0.4192
  186SAPI   O2221322   5.827   4.393  10.602  0.0979 -0.5465 -0.2637
  186SAPI   C2221323   5.977   4.535  10.473  0.1386 -0.1419 -1.3151
  186SAPI   H2R21324   5.952   4.579  10.374 -2.9724 -0.8085 -0.9458
  186SAPI   H2S21325   6.031   4.616  10.525 -1.2879 -0.3181  0.5583
  186SAPI    C321326   5.544   4.481  10.485 -0.6984  0.0525  0.5060
  186SAPI    HX21327   5.435   4.482  10.508 -1.1054 -0.1197 -1.2775
  186SAPI    HY21328   5.579   4.376  10.494  0.3132  0.0398 -2.4310
  186SAPI   O3121329   5.558   4.528  10.346  0.3673  0.2657 -0.4866
  186SAPI   C3121330   5.647   4.464  10.271 -0.1726 -0.1500 -0.2474
  186SAPI   O3221331   5.709   4.367  10.302 -0.9938 -0.6375  0.1983
  186SAPI   C3221332   5.658   4.532  10.141  0.8069 -0.2569  0.2614
  186SAPI   H2X21333   5.649   4.642  10.150 -0.7946 -0.3880  0.5062
  186SAPI   H2Y21334   5.566   4.506  10.084  0.4367 -0.6299  1.0203
  186SAPI   C2321335   6.080   4.417  10.446 -0.0999 -0.7324 -0.3277
  186SAPI   H3R21336   6.125   4.368  10.535  2.2543  3.1873  0.8768
  186SAPI   H3S21337   6.163   4.468  10.393  0.2618 -1.2363 -0.2598
  186SAPI   C2421338   6.015   4.304  10.366  0.1863 -0.1625 -0.2294
  186SAPI   H4R21339   5.946   4.350  10.292  0.1295  1.6914  0.9107
  186SAPI   H4S21340   5.962   4.236  10.435 -1.0953  0.6525 -0.3818
  186SAPI   C2521341   6.117   4.226  10.290  0.2819  0.1717 -0.4365
  186SAPI   H5R21342   6.141   4.125  10.328  1.8456 -0.2073 -2.2590
  186SAPI   C2621343   6.155   4.243  10.161  0.0276  0.2112 -0.3988
  186SAPI   H6R21344   6.223   4.167  10.120 -1.0070 -1.6268  1.1166
  186SAPI   C2721345   6.096   4.350  10.074  0.1694 -0.0704 -0.5115
  186SAPI   H7R21346   6.051   4.431  10.135  0.8293  0.8649 -1.2344
  186SAPI   H7S21347   6.008   4.305  10.025  1.1414  0.4183 -2.8292
  186SAPI   C2821348   6.182   4.406   9.965  0.1780  0.0980  0.0091
  186SAPI   H8R21349   6.252   4.486   9.992  0.6991  0.3005 -1.8276
  186SAPI   C2921350   6.188   4.365   9.839  0.3414 -0.3735 -0.6124
  186SAPI   H9R21351   6.257   4.408   9.766 -1.2528  0.1965 -1.8351
  186SAPI  C21021352   6.086   4.272   9.786 -0.1391 -0.0390  0.4857
  186SAPI  H10R21353   5.991   4.327   9.769 -1.6976 -2.9540 -0.8092
  186SAPI  H10S21354   6.054   4.190   9.854 -0.3467 -1.2898 -1.0748
  186SAPI  C21121355   6.133   4.201   9.660  0.0235 -0.0173  0.3023
  186SAPI  H11R21356   6.179   4.101   9.672 -1.7771 -0.7532  1.5793
  186SAPI  C21221357   6.126   4.247   9.531 -0.2877  0.4025 -0.8652
  186SAPI  H12R21358   6.172   4.189   9.449  1.7976  1.3372 -0.4281
  186SAPI  C21321359   6.067   4.372   9.488 -0.0880 -0.3455  0.0836
  186SAPI  H13R21360   6.144   4.450   9.467 -0.3170 -0.8180 -2.8223
  186SAPI  H13S21361   6.001   4.413   9.569 -0.6511 -0.7866 -0.1456
  186SAPI  C21421362   5.982   4.348   9.362  0.3638 -0.4630  0.1873
  186SAPI  H14R21363   5.900   4.275   9.366 -0.2655  0.2811  1.9740
  186SAPI  C21521364   5.993   4.423   9.249 -0.4038  0.6478 -0.5941
  186SAPI  H15R21365   5.951   4.397   9.151  0.6429  0.5838 -1.0366
  186SAPI  C21621366   6.083   4.541   9.226 -0.0353  0.6406  0.0291
  186SAPI  H16R21367   6.123   4.545   9.123  0.6637 -0.9350  0.2079
  186SAPI  H16S21368   6.174   4.558   9.288  0.2380  1.0772 -0.4878
  186SAPI  C21721369   5.979   4.659   9.235 -0.7502 -0.6300 -0.1241
  186SAPI  H17R21370   6.029   4.749   9.276 -2.1193  0.9918 -1.8500
  186SAPI  H17S21371   5.904   4.637   9.314  0.8737  0.4772  1.8278
  186SAPI  C21821372   5.935   4.698   9.100 -0.2515 -0.3791 -0.0370
  186SAPI  H18R21373   5.842   4.754   9.124  0.5866  0.7942  0.5878
  186SAPI  H18S21374   5.901   4.613   9.037 -0.8015 -0.8832  0.9294
  186SAPI  C21921375   6.033   4.788   9.025 -0.4084 -1.1316  0.2251
  186SAPI  H19R21376   6.106   4.725   8.969  0.5219  1.1617 -1.3035
  186SAPI  H19S21377   6.087   4.852   9.098 -0.8144  0.3398 -0.7158
  186SAPI  C22021378   5.984   4.877   8.914  0.6791  0.0077 -0.0870
  186SAPI  H20R21379   6.069   4.911   8.851  0.1373 -0.6304 -1.1954
  186SAPI  H20S21380   5.937   4.965   8.965  1.0290 -0.4178  0.9936
  186SAPI  H20T21381   5.909   4.822   8.852  0.6714  0.0650 -0.1297
  186SAPI   C3321382   5.781   4.484  10.065  0.9208  0.4361 -0.0311
  186SAPI   H3X21383   5.809   4.376  10.058 -1.3383 -0.1896  0.0409
  186SAPI   H3Y21384   5.869   4.515  10.126  0.6700  1.6965 -0.2854
  186SAPI   C3421385   5.782   4.544   9.929  0.3339 -0.3309 -0.5344
  186SAPI   H4X21386   5.685   4.536   9.877 -0.2752 -0.7955  0.6432
  186SAPI   H4Y21387   5.849   4.488   9.859 -2.4585  0.8047 -4.4738
  186SAPI   C3521388   5.825   4.692   9.915  0.4460  0.6406 -0.1633
  186SAPI   H5X21389   5.915   4.709   9.977 -0.7929  1.3817  1.5171
  186SAPI   H5Y21390   5.747   4.754   9.963  2.4543  2.3650  1.0171
  186SAPI   C3621391   5.842   4.737   9.772 -0.0748 -0.7727  0.4558
  186SAPI   H6X21392   5.763   4.688   9.712  0.0799 -0.1761 -0.2627
  186SAPI   H6Y21393   5.940   4.699   9.736 -1.7869 -1.3302 -4.4354
  186SAPI   C3721394   5.844   4.891   9.771 -0.2400 -0.1008 -0.0704
  186SAPI   H7X21395   5.913   4.920   9.853 -0.0426 -1.4554  0.2549
  186SAPI   H7Y21396   5.743   4.927   9.803 -1.5546 -1.9386 -1.8964
  186SAPI   C3821397   5.873   4.956   9.642  0.0955 -0.4355 -0.4526
  186SAPI   H8X21398   5.967   4.915   9.598  0.9211  1.6873 -0.8316
  186SAPI   H8Y21399   5.882   5.067   9.650 -1.1378 -0.4083  1.0993
  186SAPI   C3921400   5.771   4.950   9.530  0.4724 -0.6044 -0.3627
  186SAPI   H9X21401   5.669   4.964   9.571 -0.2771 -3.3921 -1.0457
  186SAPI   H9Y21402   5.760   4.846   9.491 -1.2875 -1.1979  1.5212
  186SAPI  C31021403   5.796   5.048   9.412 -0.3806 -0.3599  0.4730
  186SAPI  H10X21404   5.889   5.008   9.367 -0.5600 -1.1112  0.7459
  186SAPI  H10Y21405   5.818   5.151   9.449 -1.8432  0.0881  0.2010
  186SAPI  C31121406   5.682   5.049   9.317  0.7791  0.2769  0.3188
  186SAPI  H11X21407   5.588   5.079   9.370 -0.4811 -1.5290 -0.7995
  186SAPI  H11Y21408   5.667   4.945   9.282 -3.7540  1.4814 -2.1961
  186SAPI  C31221409   5.694   5.132   9.182 -0.0014 -0.2034  0.2046
  186SAPI  H12X21410   5.605   5.114   9.119  0.4159  0.6432 -0.6567
  186SAPI  H12Y21411   5.780   5.095   9.122 -0.9504 -1.3617 -0.4860
  186SAPI  C31321412   5.699   5.278   9.218 -0.3283 -0.0161 -0.0530
  186SAPI  H13X21413   5.797   5.313   9.257 -1.9494  1.3790  3.1628
  186SAPI  H13Y21414   5.614   5.305   9.284 -1.0667 -1.0044 -0.5693
  186SAPI  C31421415   5.674   5.355   9.079 -0.5060 -0.4073 -0.5989
  186SAPI  H14X21416   5.572   5.336   9.041 -1.6813  0.3042  1.9748
  186SAPI  H14Y21417   5.748   5.323   9.003  0.0168  3.3809 -1.9360
  186SAPI  C31521418   5.697   5.509   9.106  0.0915  0.0636 -0.2068
  186SAPI  H15X21419   5.790   5.526   9.165 -0.0163  0.2184 -0.0814
  186SAPI  H15Y21420   5.615   5.546   9.172  0.0518 -0.8015  0.2452
  186SAPI  C31621421   5.695   5.591   8.974  0.1244  0.4063 -0.3970
  186SAPI  H16X21422   5.789   5.564   8.922  0.3512  3.6603 -1.9334
  186SAPI  H16Y21423   5.708   5.693   9.016  0.7719 -0.3037  1.2361
  186SAPI  C31721424   5.570   5.596   8.891 -0.0316  0.2342 -0.3581
  186SAPI  H17X21425   5.546   5.494   8.856  1.5229 -0.1524 -0.3734
  186SAPI  H17Y21426   5.597   5.659   8.804  1.3822 -1.1240 -0.9461
  186SAPI  C31821427   5.449   5.657   8.966  0.5504 -0.3679 -0.5058
  186SAPI  H18X21428   5.367   5.659   8.892 -0.8316  1.2854  0.9648
  186SAPI  H18Y21429   5.474   5.765   8.978  1.5113 -0.6324 -0.0127
  186SAPI  H18Z21430   5.403   5.603   9.052 -0.6290  0.1549 -0.7861
  187SAPI   C1221431   1.862   6.424   6.398  0.4203 -0.1146 -0.3706
  187SAPI    H221432   1.919   6.519   6.409  2.0590 -1.1672  0.8078
  187SAPI    O221433   1.796   6.410   6.525  0.7822 -0.1307 -0.6626
  187SAPI   HO221434   1.865   6.366   6.574 -1.2939 -2.9404 -0.0396
  187SAPI   C1321435   1.769   6.435   6.287 -0.2738 -0.2336  0.1863
  187SAPI    H321436   1.821   6.435   6.189 -1.2499  0.4008 -0.3409
  187SAPI    O321437   1.690   6.554   6.287  0.7437  0.1346  0.0869
  187SAPI   HO321438   1.752   6.622   6.259 -0.8003  0.1395 -4.0607
  187SAPI   C1421439   1.671   6.315   6.277 -0.5980 -0.4731  0.7605
  187SAPI    H421440   1.616   6.300   6.372 -1.1982  1.4226  0.7474
  187SAPI    O421441   1.576   6.338   6.169  0.2853  0.1733  0.0446
  187SAPI   HO421442   1.491   6.344   6.212 -0.0060 -0.9795 -0.3486
  187SAPI   C1521443   1.752   6.190   6.249 -0.0482  0.6729 -0.2537
  187SAPI    H521444   1.793   6.197   6.146  0.2435 -0.3395 -0.2171
  187SAPI    O521445   1.659   6.079   6.251 -0.3873 -0.0296 -0.3736
  187SAPI   HO521446   1.714   6.003   6.271 -1.0007 -0.0730  1.3402
  187SAPI   C1621447   1.867   6.185   6.345  0.2939 -0.0096  0.6080
  187SAPI    H621448   1.834   6.148   6.445 -1.2997 -4.8495 -1.4209
  187SAPI    O621449   1.950   6.077   6.308  0.6933 -0.2170 -0.0870
  187SAPI   HO621450   2.037   6.117   6.302  0.4505  0.6238  1.5028
  187SAPI   C1121451   1.953   6.306   6.368  0.5414  0.0783 -0.0491
  187SAPI    H121452   2.010   6.333   6.276  1.8731  1.0656  1.0264
  187SAPI     P21453   2.169   6.399   6.489 -0.2306  0.1623  0.3043
  187SAPI   O1321454   2.194   6.470   6.362  0.0112  0.6594  0.1603
  187SAPI   O1421455   2.284   6.325   6.546 -0.1863  0.1055  0.7318
  187SAPI   O1221456   2.050   6.286   6.471  0.4382  0.0910  0.3374
  187SAPI   O1121457   2.118   6.506   6.593  0.4257 -0.3881  0.2647
  187SAPI    C121458   2.200   6.619   6.614  0.2732 -1.1677 -0.2946
  187SAPI    HA21459   2.307   6.595   6.635 -0.5084 -2.4983  2.6756
  187SAPI    HB21460   2.194   6.675   6.518  0.9026 -2.8822 -1.3862
  187SAPI    C221461   2.137   6.706   6.728  0.3903 -0.2571  0.0153
  187SAPI    HS21462   2.200   6.793   6.755 -1.1788  0.0972  3.0108
  187SAPI   O2121463   2.121   6.627   6.845 -0.4077  0.2319 -0.7262
  187SAPI   C2121464   2.232   6.615   6.914  0.2702  0.3894  0.0314
  187SAPI   O2221465   2.344   6.656   6.873  0.8049  0.7488 -0.5181
  187SAPI   C2221466   2.204   6.534   7.042  0.4532  0.0455 -0.1281
  187SAPI   H2R21467   2.106   6.572   7.076 -1.1806 -1.5804 -2.6636
  187SAPI   H2S21468   2.191   6.425   7.020 -0.4059  0.0553  0.2914
  187SAPI    C321469   1.994   6.760   6.693 -0.5640  0.2485  0.2265
  187SAPI    HX21470   1.933   6.682   6.642  2.0522 -0.4692 -2.0623
  187SAPI    HY21471   2.007   6.844   6.621 -0.9762  0.1855  0.0772
  187SAPI   O3121472   1.932   6.818   6.810  0.4324  0.1840  0.0568
  187SAPI   C3121473   1.848   6.744   6.883 -0.8916  0.3349  0.3895
  187SAPI   O3221474   1.812   6.632   6.854 -0.4900  0.3763  0.3205
  187SAPI   C3221475   1.805   6.833   7.003  0.0774  0.7196  0.8195
  187SAPI   H2X21476   1.694   6.826   6.997  0.1179 -0.3294  1.0451
  187SAPI   H2Y21477   1.836   6.936   6.974  1.1231 -0.2976 -2.0552
  187SAPI   C2321478   2.326   6.550   7.137  0.6551  1.1013 -0.2283
  187SAPI   H3R21479   2.362   6.655   7.131  0.2488  1.1852 -1.4114
  187SAPI   H3S21480   2.405   6.486   7.093  0.9307  1.6633 -0.5540
  187SAPI   C2421481   2.296   6.522   7.288  0.0841  0.1351  0.5760
  187SAPI   H4R21482   2.220   6.594   7.326  0.6865  1.1819 -0.1390
  187SAPI   H4S21483   2.387   6.539   7.349 -0.2368  0.7757  0.8884
  187SAPI   C2521484   2.246   6.383   7.313  0.2748  0.1309 -0.0703
  187SAPI   H5R21485   2.265   6.318   7.226  1.2416  0.9147 -0.4671
  187SAPI   C2621486   2.181   6.332   7.419  1.2079 -0.8732 -0.4339
  187SAPI   H6R21487   2.145   6.229   7.418 -2.2477  0.1510  1.6604
  187SAPI   C2721488   2.139   6.409   7.543 -0.6503 -0.6721 -0.1071
  187SAPI   H7R21489   2.031   6.394   7.562 -1.0277 -0.1337 -1.6774
  187SAPI   H7S21490   2.137   6.519   7.523 -0.1918 -0.7184 -0.4186
  187SAPI   C2821491   2.236   6.378   7.659 -0.4481 -0.7776  0.2912
  187SAPI   H8R21492   2.327   6.317   7.650 -0.4480 -1.0612  2.0192
  187SAPI   C2921493   2.218   6.411   7.787  0.0299 -0.3065  0.5671
  187SAPI   H9R21494   2.292   6.386   7.865 -0.4783 -3.4164  0.1823
  187SAPI  C21021495   2.102   6.496   7.830  0.7077 -0.0410  0.1512
  187SAPI  H10R21496   2.067   6.561   7.747  0.9101 -0.7735 -0.5253
  187SAPI  H10S21497   2.147   6.568   7.901 -1.3475  1.1132  0.3530
  187SAPI  C21121498   1.981   6.426   7.894  0.0464  0.2637  0.1736
  187SAPI  H11R21499   1.898   6.427   7.822  0.9725  0.9150 -0.9408
  187SAPI  C21221500   1.963   6.389   8.022 -0.1770 -0.9884  0.3773
  187SAPI  H12R21501   1.865   6.345   8.044 -0.4058 -1.0045 -0.6298
  187SAPI  C21321502   2.062   6.405   8.133  0.4719 -0.2888 -0.2839
  187SAPI  H13R21503   2.118   6.500   8.125  0.1267  0.1776  2.0836
  187SAPI  H13S21504   2.135   6.322   8.118  0.1882 -0.8752  1.3521
  187SAPI  C21421505   1.984   6.384   8.266 -0.1684  0.3558 -0.2600
  187SAPI  H14R21506   1.880   6.418   8.265 -0.4632 -0.5277 -0.9111
  187SAPI  C21521507   2.035   6.342   8.382  0.1581 -1.4303 -0.3789
  187SAPI  H15R21508   1.977   6.331   8.475 -2.9909  0.8795 -1.8779
  187SAPI  C21621509   2.184   6.305   8.399 -0.0900  0.3030 -0.2833
  187SAPI  H16R21510   2.243   6.341   8.312 -2.6125  0.5215 -1.9939
  187SAPI  H16S21511   2.195   6.195   8.410 -2.3035 -0.0775 -1.3448
  187SAPI  C21721512   2.241   6.353   8.532 -0.5363 -0.7949 -0.2785
  187SAPI  H17R21513   2.177   6.316   8.616 -1.7371 -1.8492 -1.6071
  187SAPI  H17S21514   2.241   6.463   8.551 -0.2208 -1.3321  3.7305
  187SAPI  C21821515   2.386   6.306   8.560 -0.3300 -0.2019 -0.5639
  187SAPI  H18R21516   2.444   6.365   8.486  1.1290 -0.2897  0.4912
  187SAPI  H18S21517   2.411   6.201   8.535 -0.2604 -0.1641 -0.6542
  187SAPI  C21921518   2.439   6.346   8.693 -0.7521  0.2662 -0.3773
  187SAPI  H19R21519   2.515   6.269   8.717  0.1387  1.3142  0.2442
  187SAPI  H19S21520   2.357   6.331   8.767 -0.6764  3.3500  0.4657
  187SAPI  C22021521   2.491   6.487   8.701  0.0118  0.5874 -0.3957
  187SAPI  H20R21522   2.536   6.523   8.796  0.3253  2.0073 -1.0608
  187SAPI  H20S21523   2.398   6.545   8.688 -0.9087 -1.2291 -2.7907
  187SAPI  H20T21524   2.562   6.523   8.623  3.5877 -1.7781  1.4901
  187SAPI   C3321525   1.861   6.792   7.145  0.4245 -0.3622  0.4267
  187SAPI   H3X21526   1.820   6.872   7.210  0.9185  0.4042 -0.1942
  187SAPI   H3Y21527   1.972   6.795   7.150  0.5577 -1.1214 -1.3273
  187SAPI   C3421528   1.817   6.655   7.195  0.8181 -0.6671  0.2844
  187SAPI   H4X21529   1.875   6.571   7.151 -0.9764 -0.5269 -2.6278
  187SAPI   H4Y21530   1.711   6.634   7.168  0.4258 -1.2880  2.1297
  187SAPI   C3521531   1.830   6.637   7.346  0.3343  0.2214  0.6592
  187SAPI   H5X21532   1.932   6.666   7.379  0.7077  0.4688 -0.6541
  187SAPI   H5Y21533   1.819   6.527   7.351 -0.9544  0.2747 -0.3080
  187SAPI   C3621534   1.725   6.697   7.429 -0.7161 -0.6793  0.3764
  187SAPI   H6X21535   1.624   6.654   7.409 -1.6377 -0.3601  3.7273
  187SAPI   H6Y21536   1.722   6.803   7.396  0.8466  0.0239  2.3113
  187SAPI   C3721537   1.760   6.687   7.581  0.7490 -0.8661  0.5012
  187SAPI   H7X21538   1.868   6.715   7.585  0.2462  1.5160 -0.8066
  187SAPI   H7Y21539   1.749   6.584   7.620 -2.2651 -0.7115  0.2569
  187SAPI   C3821540   1.672   6.787   7.653 -0.4842 -0.0586 -0.0159
  187SAPI   H8X21541   1.563   6.775   7.639 -0.7642  1.9497  0.1815
  187SAPI   H8Y21542   1.696   6.885   7.607 -1.9969  0.8616  1.0767
  187SAPI   C3921543   1.717   6.805   7.798 -0.4390 -0.3383  0.1617
  187SAPI   H9X21544   1.827   6.820   7.807 -0.6434  0.8544  0.8266
  187SAPI   H9Y21545   1.692   6.706   7.843 -1.3146 -0.1107  0.1923
  187SAPI  C31021546   1.647   6.924   7.870  0.1780 -0.1384  0.1565
  187SAPI  H10X21547   1.539   6.907   7.887 -0.4213  1.0630 -2.0198
  187SAPI  H10Y21548   1.654   7.021   7.816  3.0390 -0.0333  0.5790
  187SAPI  C31121549   1.701   6.954   8.006  0.1025  0.3686 -0.2315
  187SAPI  H11X21550   1.776   7.035   8.005  0.2319  0.2438 -0.6832
  187SAPI  H11Y21551   1.749   6.859   8.038 -1.7750 -1.1621 -1.7032
  187SAPI  C31221552   1.598   7.000   8.109  0.0055 -0.2386 -0.4695
  187SAPI  H12X21553   1.641   6.997   8.212 -2.4411  0.2842  0.6446
  187SAPI  H12Y21554   1.505   6.939   8.108 -1.4270  1.8180 -0.8510
  187SAPI  C31321555   1.559   7.148   8.083  0.2209  0.1209  0.4092
  187SAPI  H13X21556   1.494   7.151   7.994  2.5827  0.9793 -1.4027
  187SAPI  H13Y21557   1.655   7.194   8.051  0.8284 -2.9251 -2.8223
  187SAPI  C31421558   1.475   7.218   8.190  0.2803  0.1139 -0.6933
  187SAPI  H14X21559   1.437   7.315   8.151  0.3190  0.5734  0.3749
  187SAPI  H14Y21560   1.532   7.241   8.283 -0.9799  1.4830 -0.2177
  187SAPI  C31521561   1.353   7.136   8.226  0.5704 -0.2325  0.1015
  187SAPI  H15X21562   1.373   7.033   8.263 -0.7005 -0.7349 -0.5368
  187SAPI  H15Y21563   1.282   7.129   8.141  1.3230 -1.2674 -0.4633
  187SAPI  C31621564   1.268   7.197   8.337 -0.3917 -0.0201  0.2246
  187SAPI  H16X21565   1.281   7.308   8.336  1.7240 -0.2124  1.0507
  187SAPI  H16Y21566   1.296   7.166   8.440  1.0869 -0.3867 -0.2632
  187SAPI  C31721567   1.119   7.187   8.315 -0.3508 -0.5436  0.5373
  187SAPI  H17X21568   1.093   7.081   8.293 -1.2611 -0.0230 -1.0444
  187SAPI  H17Y21569   1.092   7.228   8.216 -0.1806 -0.5545  0.4862
  187SAPI  C31821570   1.031   7.252   8.426 -0.1163 -0.1056  0.1543
  187SAPI  H18X21571   1.035   7.205   8.527 -1.2017  0.2069  0.3558
  187SAPI  H18Y21572   0.924   7.259   8.395  0.2169  1.3259 -0.7123
  187SAPI  H18Z21573   1.068   7.353   8.450 -0.8038  0.1038  0.3615
  188SAPI   C1221574   2.814   1.809   6.222  0.4198 -0.2028 -0.3487
  188SAPI    H221575   2.790   1.728   6.294 -1.3737 -0.5381 -1.2799
  188SAPI    O221576   2.934   1.788   6.153  0.0522 -0.0045  0.2585
  188SAPI   HO221577   3.001   1.745   6.207  1.1732  0.5212 -0.6893
  188SAPI   C1321578   2.695   1.823   6.122 -0.0853  0.9812  0.1530
  188SAPI    H321579   2.600   1.846   6.174  1.0506  0.3279  2.6660
  188SAPI    O321580   2.661   1.694   6.061 -0.0171 -0.8167 -0.1472
  188SAPI   HO321581   2.579   1.664   6.101  0.3542 -0.6465  0.7779
  188SAPI   C1421582   2.728   1.937   6.018  0.3221  0.4913  0.6824
  188SAPI    H421583   2.826   1.916   5.971 -0.6567 -0.1710 -1.1563
  188SAPI    O421584   2.625   1.952   5.918 -0.1432 -0.2282 -0.4715
  188SAPI   HO421585   2.638   2.040   5.882 -0.4552  0.8615  1.8834
  188SAPI   C1521586   2.750   2.069   6.092  0.1341  0.0518 -0.1341
  188SAPI    H521587   2.663   2.094   6.157  0.5215  0.8694  0.0732
  188SAPI    O521588   2.770   2.183   6.012  0.6540 -0.0557 -0.3894
  188SAPI   HO521589   2.821   2.241   6.069  0.4245  1.7144 -1.8816
  188SAPI   C1621590   2.864   2.056   6.197  0.5392  0.1587  0.0257
  188SAPI    H621591   2.956   2.026   6.142  0.6682 -1.1831  0.9335
  188SAPI    O621592   2.892   2.182   6.265  0.0245 -0.9785 -0.0746
  188SAPI   HO621593   2.984   2.206   6.250 -0.1121 -0.2559  0.2253
  188SAPI   C1121594   2.824   1.940   6.301  0.5956 -0.2252 -0.1510
  188SAPI    H121595   2.731   1.976   6.349  0.8752 -0.0277  0.2497
  188SAPI     P21596   2.874   1.873   6.554  0.2818  0.1184 -0.4248
  188SAPI   O1321597   2.993   1.836   6.641  0.0051 -0.1935 -0.0571
  188SAPI   O1421598   2.772   1.769   6.540  0.4305 -0.0662 -0.2602
  188SAPI   O1221599   2.923   1.915   6.406  0.0801 -0.1136 -0.5205
  188SAPI   O1121600   2.810   2.012   6.613  0.0088 -0.1453  0.2488
  188SAPI    C121601   2.902   2.123   6.632  0.6108  0.2608  0.4101
  188SAPI    HA21602   3.008   2.099   6.609 -0.4501 -2.3399 -2.4454
  188SAPI    HB21603   2.869   2.203   6.562 -0.0584  1.0370  1.5830
  188SAPI    C221604   2.892   2.186   6.766  0.3629  0.2181  0.4644
  188SAPI    HS21605   2.964   2.271   6.768  1.8983 -1.0477  0.4039
  188SAPI   O2121606   2.929   2.090   6.870 -0.8141 -0.2444  0.2503
  188SAPI   C2121607   3.059   2.076   6.897 -0.6538  0.1357 -0.2458
  188SAPI   O2221608   3.147   2.141   6.844 -0.1520 -0.2933 -0.2693
  188SAPI   C2221609   3.079   1.973   7.013  0.6311  0.1680  0.2750
  188SAPI   H2R21610   3.013   2.009   7.095 -0.0992  2.1123 -1.0845
  188SAPI   H2S21611   3.044   1.882   6.960 -0.3990  0.5021  0.3490
  188SAPI    C321612   2.752   2.248   6.790 -0.2563 -0.4014  0.4088
  188SAPI    HX21613   2.689   2.162   6.760 -0.5256 -0.3262  0.7431
  188SAPI    HY21614   2.724   2.332   6.723 -2.7312 -0.7859  0.8802
  188SAPI   O3121615   2.722   2.276   6.926 -0.3266  0.6828 -0.0098
  188SAPI   C3121616   2.777   2.386   6.977 -0.0933 -0.0789  0.2764
  188SAPI   O3221617   2.848   2.464   6.919  0.2661 -0.4637  0.4303
  188SAPI   C3221618   2.758   2.391   7.135  0.1574 -0.6311  0.4715
  188SAPI   H2X21619   2.655   2.430   7.152  0.9047  1.3020  0.8205
  188SAPI   H2Y21620   2.830   2.466   7.172  2.4000 -1.5039 -1.8493
  188SAPI   C2321621   3.226   1.972   7.055 -0.0688  0.3492 -0.1576
  188SAPI   H3R21622   3.257   2.070   7.097  0.4470  0.3617 -0.5639
  188SAPI   H3S21623   3.292   1.948   6.969  1.9228 -0.2742  1.4770
  188SAPI   C2421624   3.247   1.859   7.156 -0.1367 -0.4517  0.2042
  188SAPI   H4R21625   3.221   1.759   7.116  2.4593 -1.5122  0.9185
  188SAPI   H4S21626   3.180   1.883   7.241 -0.4004 -0.7203  0.0729
  188SAPI   C2521627   3.393   1.854   7.196  0.1387 -0.4721  1.4393
  188SAPI   H5R21628   3.462   1.853   7.110 -1.2472  1.3132  0.2215
  188SAPI   C2621629   3.436   1.859   7.322  0.3698  0.3756  0.0883
  188SAPI   H6R21630   3.543   1.840   7.343  0.4023  2.0303  1.7718
  188SAPI   C2721631   3.348   1.861   7.441  0.0138  0.0736 -0.0839
  188SAPI   H7R21632   3.299   1.761   7.445  0.1809 -0.2057 -2.9251
  188SAPI   H7S21633   3.280   1.946   7.419 -0.3227 -0.6162 -1.9369
  188SAPI   C2821634   3.435   1.891   7.560  0.3495 -0.2029  0.0292
  188SAPI   H8R21635   3.524   1.954   7.541 -1.1354  1.4610 -1.8980
  188SAPI   C2921636   3.403   1.861   7.687 -0.8497  0.1659  0.1140
  188SAPI   H9R21637   3.472   1.891   7.766  0.9432 -0.2510 -1.2278
  188SAPI  C21021638   3.289   1.781   7.732  0.2631  0.1421  0.8794
  188SAPI  H10R21639   3.323   1.680   7.764 -0.8872 -0.7131 -0.4816
  188SAPI  H10S21640   3.220   1.753   7.650 -0.7639  1.9002  1.0969
  188SAPI  C21121641   3.200   1.843   7.842 -0.1144  0.7942  0.7007
  188SAPI  H11R21642   3.108   1.894   7.809 -1.5866 -1.4049  1.1212
  188SAPI  C21221643   3.216   1.846   7.974 -0.1312  0.0595 -0.6892
  188SAPI  H12R21644   3.140   1.905   8.027  0.4450  1.3366 -1.2302
  188SAPI  C21321645   3.335   1.799   8.056  0.0659 -0.3019 -0.5863
  188SAPI  H13R21646   3.356   1.882   8.126 -3.1322  1.1760 -1.2135
  188SAPI  H13S21647   3.419   1.785   7.984 -0.1598 -3.0299 -0.4239
  188SAPI  C21421648   3.325   1.664   8.121 -0.4364 -0.0856  0.0950
  188SAPI  H14R21649   3.347   1.580   8.053 -1.5346 -1.0031  0.8310
  188SAPI  C21521650   3.290   1.641   8.245 -0.7278 -0.5202 -0.4119
  188SAPI  H15R21651   3.295   1.539   8.285  3.2578 -0.4280 -0.3623
  188SAPI  C21621652   3.277   1.752   8.357 -0.2245  0.6127 -0.4450
  188SAPI  H16R21653   3.173   1.787   8.374 -0.6456 -1.1620  1.0342
  188SAPI  H16S21654   3.340   1.842   8.342 -1.5333  1.4303 -1.1983
  188SAPI  C21721655   3.319   1.678   8.484 -0.4699  0.2259  1.1702
  188SAPI  H17R21656   3.407   1.614   8.464 -0.2694  1.4790 -2.7561
  188SAPI  H17S21657   3.231   1.615   8.512 -1.6347  2.7845  3.7932
  188SAPI  C21821658   3.346   1.781   8.601 -0.7012 -0.2820  0.1223
  188SAPI  H18R21659   3.445   1.827   8.580 -1.0284 -0.1347 -1.1879
  188SAPI  H18S21660   3.351   1.726   8.698  0.0122 -0.1862  0.1516
  188SAPI  C21921661   3.246   1.897   8.613  0.6035 -0.6860 -0.6908
  188SAPI  H19R21662   3.140   1.869   8.628  1.0229 -1.1958  1.8643
  188SAPI  H19S21663   3.245   1.950   8.516  0.4907  2.1824  0.7805
  188SAPI  C22021664   3.277   1.997   8.731  0.8751  0.5562  0.3078
  188SAPI  H20R21665   3.385   2.024   8.739  0.7512  0.9583  0.6761
  188SAPI  H20S21666   3.254   1.946   8.826  0.9224  0.5881  0.3362
  188SAPI  H20T21667   3.227   2.096   8.719 -0.0640  0.3676  2.3796
  188SAPI   C3321668   2.755   2.244   7.190  0.0393 -0.6217 -0.2968
  188SAPI   H3X21669   2.855   2.209   7.159  0.5988 -0.1312  0.8832
  188SAPI   H3Y21670   2.674   2.184   7.144 -0.1827  1.8097 -3.4448
  188SAPI   C3421671   2.753   2.240   7.346 -0.3472 -0.0637  0.7956
  188SAPI   H4X21672   2.852   2.279   7.378  0.2680 -0.7276 -0.2233
  188SAPI   H4Y21673   2.752   2.133   7.377  1.8000 -0.8455 -1.4980
  188SAPI   C3521674   2.637   2.318   7.398  0.5621 -0.1123 -0.6512
  188SAPI   H5X21675   2.543   2.280   7.351  0.2372  1.7944 -1.6380
  188SAPI   H5Y21676   2.653   2.427   7.389 -1.6863  0.2882 -0.4218
  188SAPI   C3621677   2.632   2.284   7.552  0.5444  0.1170 -0.5397
  188SAPI   H6X21678   2.729   2.282   7.607  0.6178 -1.8747 -0.6523
  188SAPI   H6Y21679   2.604   2.178   7.566  0.4523  0.1297 -0.6303
  188SAPI   C3721680   2.528   2.366   7.632  0.4301  0.0980  0.8013
  188SAPI   H7X21681   2.425   2.327   7.618 -0.1750  2.1121 -0.8617
  188SAPI   H7Y21682   2.531   2.472   7.598 -2.0709  0.2396  0.8682
  188SAPI   C3821683   2.562   2.362   7.787  0.1651  0.0662 -0.1587
  188SAPI   H8X21684   2.510   2.446   7.838  0.8651  0.3482  0.1046
  188SAPI   H8Y21685   2.672   2.369   7.805  0.6302 -0.5925 -2.3954
  188SAPI   C3921686   2.508   2.237   7.858  0.0000  0.2454 -0.3565
  188SAPI   H9X21687   2.543   2.148   7.801 -0.4037 -0.3171  0.2567
  188SAPI   H9Y21688   2.398   2.225   7.856  0.0208  0.0998 -1.2473
  188SAPI  C31021689   2.565   2.224   8.004  0.5027 -1.0758  0.3605
  188SAPI  H10X21690   2.513   2.297   8.070 -1.1327 -0.2322 -1.7397
  188SAPI  H10Y21691   2.672   2.252   7.996  0.2059 -0.4251 -2.4154
  188SAPI  C31121692   2.548   2.085   8.059 -0.4867 -0.0891 -0.5150
  188SAPI  H11X21693   2.618   2.008   8.022 -2.3236 -1.5803 -1.0606
  188SAPI  H11Y21694   2.449   2.047   8.026 -0.8089  1.3011 -1.2391
  188SAPI  C31221695   2.544   2.080   8.212 -0.3221  0.4533 -0.2253
  188SAPI  H12X21696   2.445   2.118   8.247  0.3139  1.5016  0.4920
  188SAPI  H12Y21697   2.615   2.151   8.260  0.8884  0.2620 -1.6801
  188SAPI  C31321698   2.557   1.937   8.278 -0.3458 -0.2340  0.9525
  188SAPI  H13X21699   2.646   1.892   8.230 -0.6084  1.0274 -0.8288
  188SAPI  H13Y21700   2.472   1.878   8.239  0.7177  0.0121 -2.0228
  188SAPI  C31421701   2.572   1.924   8.426 -0.2242 -0.2497 -0.9595
  188SAPI  H14X21702   2.587   1.819   8.460 -3.1007  0.1305  2.0642
  188SAPI  H14Y21703   2.493   1.975   8.485  0.0832  1.4942 -1.9736
  188SAPI  C31521704   2.703   1.999   8.467  0.3716  0.0983  0.1455
  188SAPI  H15X21705   2.690   2.103   8.429  0.8337 -0.4221 -1.5566
  188SAPI  H15Y21706   2.787   1.949   8.414 -0.4382 -1.4942  0.3061
  188SAPI  C31621707   2.735   1.989   8.617 -0.0325 -0.5566 -0.3797
  188SAPI  H16X21708   2.747   1.884   8.653 -1.1356 -0.3635  0.5885
  188SAPI  H16Y21709   2.642   2.028   8.664 -0.1288  0.1840 -1.1617
  188SAPI  C31721710   2.858   2.056   8.661  0.0363 -0.8977 -0.5095
  188SAPI  H17X21711   2.836   2.165   8.653  1.4630 -0.6347 -1.1531
  188SAPI  H17Y21712   2.949   2.030   8.602  0.0313  0.3197 -1.0870
  188SAPI  C31821713   2.912   2.028   8.809  0.3856  0.1609 -0.0275
  188SAPI  H18X21714   2.988   2.104   8.835 -1.3494  1.5760  1.1498
  188SAPI  H18Y21715   2.959   1.928   8.824 -2.3219 -1.3539 -0.9700
  188SAPI  H18Z21716   2.829   2.029   8.883 -0.2027 -2.2464 -0.5691
  189POPC     N21717   3.495   3.746  11.472 -0.0900  0.4361  0.3878
  189POPC   C1221718   3.485   3.655  11.349  0.0297  0.6762 -0.2140
  189POPC  H12A21719   3.403   3.590  11.372 -0.6591  1.8143  0.6518
  189POPC  H12B21720   3.571   3.590  11.340 -0.7911 -0.5393  0.5137
  189POPC   C1321721   3.579   3.867  11.438 -0.6265  0.2266 -1.1570
  189POPC  H13A21722   3.685   3.849  11.426 -0.2682  0.8023  0.6627
  189POPC  H13B21723   3.555   3.913  11.344 -2.1332  2.9162  0.4043
  189POPC  H13C21724   3.572   3.949  11.509  2.2640 -0.2290 -0.2004
  189POPC   C1421725   3.358   3.805  11.507  0.0015 -0.2400 -0.0261
  189POPC  H14A21726   3.286   3.729  11.536 -1.5558  1.0569 -0.3227
  189POPC  H14B21727   3.354   3.881  11.584 -0.6149  1.3128 -1.5289
  189POPC  H14C21728   3.319   3.856  11.421  0.9666  2.5472  1.0780
  189POPC   C1521729   3.545   3.670  11.592  0.2992  0.4244  0.7721
  189POPC  H15A21730   3.578   3.736  11.672  1.2641  2.9327 -1.5428
  189POPC  H15B21731   3.634   3.612  11.572 -0.0303 -0.3147  1.3802
  189POPC  H15C21732   3.472   3.601  11.632 -0.7975  1.4692  0.6433
  189POPC   C1121733   3.462   3.718  11.206 -0.3091  0.2534 -0.7282
  189POPC  H11A21734   3.370   3.780  11.218 -0.6751 -0.3017 -0.6394
  189POPC  H11B21735   3.434   3.641  11.131  2.0631  0.3843 -1.8267
  189POPC     P21736   3.694   3.711  11.085 -0.0925  0.3350 -0.2652
  189POPC   O1321737   3.763   3.625  11.185 -0.7231 -0.6839 -0.6729
  189POPC   O1421738   3.785   3.806  11.015 -0.0478 -0.3874 -0.1259
  189POPC   O1221739   3.570   3.795  11.154  0.0254 -0.8072 -0.0217
  189POPC   O1121740   3.623   3.609  10.985  0.4509  0.0303  0.5727
  189POPC    C121741   3.565   3.656  10.865  0.6046 -0.9280  0.1694
  189POPC    HA21742   3.586   3.765  10.858 -1.9713 -0.3181  0.8954
  189POPC    HB21743   3.455   3.646  10.872  0.3845  1.6781  1.6982
  189POPC    C221744   3.630   3.576  10.745 -0.1337  0.6861  0.3349
  189POPC    HS21745   3.616   3.469  10.773  1.8195  0.0640 -0.8881
  189POPC   O2121746   3.771   3.613  10.732  0.6231  0.6602  0.1035
  189POPC   C2121747   3.858   3.526  10.789  0.5276  0.3101  0.5378
  189POPC   O2221748   3.830   3.413  10.823 -0.2182  0.3747  0.2151
  189POPC   C2221749   4.004   3.593  10.795  0.0798  0.4354  0.7721
  189POPC   H2R21750   4.044   3.593  10.899 -0.4245  0.4672  0.9667
  189POPC   H2S21751   3.996   3.699  10.762 -0.7551 -0.0744 -0.7945
  189POPC    C321752   3.559   3.608  10.608  0.1854 -1.2588 -0.2499
  189POPC    HX21753   3.551   3.717  10.590  0.9379 -1.1534  0.0177
  189POPC    HY21754   3.454   3.576  10.625 -0.1603 -0.1235 -0.2327
  189POPC   O3121755   3.614   3.529  10.500  0.0010  0.1605  0.6309
  189POPC   C3121756   3.708   3.575  10.422  0.7305  0.5480 -0.0404
  189POPC   O3221757   3.766   3.679  10.434 -0.0974 -0.5350 -0.1259
  189POPC   C3221758   3.752   3.465  10.328 -0.5919  0.8875  0.8200
  189POPC   H2X21759   3.681   3.379  10.324  1.0286 -0.4983  0.2593
  189POPC   H2Y21760   3.852   3.436  10.366 -0.7467  1.2223  1.4880
  189POPC   C2321761   4.106   3.536  10.700  0.2272  0.5025  0.4957
  189POPC   H3R21762   4.141   3.434  10.728 -0.3372  0.3274  0.5823
  189POPC   H3S21763   4.199   3.596  10.706  0.8641 -0.3326 -0.6442
  189POPC   C2421764   4.046   3.523  10.554 -0.8686  0.4702 -0.0827
  189POPC   H4R21765   3.973   3.607  10.549 -0.3613  1.1943  2.8236
  189POPC   H4S21766   3.996   3.424  10.558  0.4013 -0.1888  0.0186
  189POPC   C2521767   4.158   3.550  10.455  0.1372  0.9797 -0.1489
  189POPC   H5R21768   4.246   3.483  10.463  0.7943  1.9239  0.7279
  189POPC   H5S21769   4.195   3.651  10.483 -0.6040  1.7095 -1.6375
  189POPC   C2621770   4.130   3.550  10.306  0.1109  0.2388  0.3318
  189POPC   H6R21771   4.041   3.615  10.294  0.4748  0.7317  0.2938
  189POPC   H6S21772   4.098   3.446  10.283  0.6055  0.3074 -0.7202
  189POPC   C2721773   4.247   3.586  10.210  0.1584 -0.4649 -0.8807
  189POPC   H7R21774   4.333   3.523  10.242 -1.0148 -1.6936 -0.0393
  189POPC   H7S21775   4.258   3.695  10.227  0.1167 -0.4996 -0.6263
  189POPC   C2821776   4.224   3.562  10.063  0.3483 -0.6959  0.7072
  189POPC   H8R21777   4.178   3.655  10.023 -1.2532 -2.2054 -1.2050
  189POPC   H8S21778   4.143   3.487  10.053 -0.4733  0.2768 -0.2253
  189POPC   C2921779   4.346   3.529   9.977 -0.5854 -0.4404  0.3132
  189POPC   H9121780   4.437   3.499  10.031  1.1140  1.0656 -1.5513
  189POPC  C21021781   4.349   3.548   9.842 -0.0697 -0.0930 -0.0553
  189POPC  H10121782   4.445   3.537   9.789  0.5401 -0.2689  1.0563
  189POPC  C21121783   4.241   3.606   9.751  0.2291 -0.0360 -0.4533
  189POPC  H11R21784   4.210   3.706   9.787 -1.2019 -0.1518 -1.2669
  189POPC  H11S21785   4.158   3.532   9.759  0.3625  0.0052  1.7622
  189POPC  C21221786   4.276   3.604   9.602  0.0555 -0.1715 -0.0082
  189POPC  H12R21787   4.303   3.498   9.583 -1.0027 -0.4627  0.0115
  189POPC  H12S21788   4.365   3.666   9.581  0.3575 -0.9452 -1.0740
  189POPC  C21321789   4.167   3.653   9.503 -0.1439  0.8576  0.0930
  189POPC  H13R21790   4.141   3.759   9.523 -0.7410  0.8027 -0.3661
  189POPC  H13S21791   4.077   3.595   9.532  0.1102  0.6909  0.5503
  189POPC  C21421792   4.205   3.646   9.357 -0.4126 -0.0006 -0.0504
  189POPC  H14R21793   4.241   3.545   9.329 -0.0228  0.1143  0.0310
  189POPC  H14S21794   4.287   3.719   9.347 -0.7506  0.6478  1.4901
  189POPC  C21521795   4.097   3.678   9.262 -0.3043  0.2919  0.2210
  189POPC  H15R21796   4.039   3.769   9.290 -2.6947 -0.2074 -2.6756
  189POPC  H15S21797   4.023   3.596   9.260  0.4751 -0.4121  0.0005
  189POPC  C21621798   4.144   3.703   9.119  0.2864  0.3866 -0.1044
  189POPC  H16R21799   4.234   3.769   9.117  0.6834 -0.1630 -0.6101
  189POPC  H16S21800   4.062   3.744   9.055 -0.7361 -0.4633  0.6366
  189POPC  C21721801   4.189   3.571   9.055 -0.5323 -1.6154 -0.6053
  189POPC  H17R21802   4.096   3.509   9.051 -0.3641 -1.8799 -0.4578
  189POPC  H17S21803   4.265   3.528   9.123  2.6326  1.5380 -1.8286
  189POPC  C21821804   4.244   3.591   8.915  0.0354 -0.0983 -0.1861
  189POPC  H18R21805   4.167   3.645   8.854 -0.0043 -1.3086 -1.2559
  189POPC  H18S21806   4.253   3.489   8.871  1.3430 -0.5433  1.0512
  189POPC  H18T21807   4.337   3.649   8.926  0.9201 -1.7641  1.7394
  189POPC   C3321808   3.773   3.518  10.184  0.1917 -0.6617 -0.4646
  189POPC   H3X21809   3.835   3.610  10.191 -2.9136  1.5713 -0.3395
  189POPC   H3Y21810   3.679   3.556  10.140 -0.0549  1.4517  1.6735
  189POPC   C3421811   3.853   3.435  10.088 -0.6073 -0.4576  0.5118
  189POPC   H4X21812   3.809   3.333  10.085 -1.1992 -0.2064  0.7019
  189POPC   H4Y21813   3.947   3.404  10.139 -1.8112 -0.9257  2.5304
  189POPC   C3521814   3.884   3.504   9.956 -0.6343 -0.1700 -0.1904
  189POPC   H5X21815   3.959   3.441   9.906 -0.4361 -1.1384  1.2760
  189POPC   H5Y21816   3.911   3.612   9.962 -0.2665 -0.3384  1.9845
  189POPC   C3621817   3.762   3.492   9.857 -0.0831 -0.6029 -0.1455
  189POPC   H6X21818   3.680   3.561   9.886  0.1314 -1.0031  1.4882
  189POPC   H6Y21819   3.734   3.386   9.874  2.1593 -1.0029  1.4860
  189POPC   C3721820   3.805   3.516   9.712  0.1283 -1.0022  0.5757
  189POPC   H7X21821   3.897   3.458   9.689 -0.8185 -2.5653  0.5832
  189POPC   H7Y21822   3.830   3.621   9.688 -0.3443 -1.0108  0.0184
  189POPC   C3821823   3.710   3.456   9.605 -1.2262 -0.3395  0.0927
  189POPC   H8X21824   3.605   3.475   9.638 -1.4254  0.3964 -0.9053
  189POPC   H8Y21825   3.725   3.346   9.592  1.0996  0.1384 -1.9644
  189POPC   C3921826   3.739   3.512   9.466 -0.0852  0.2600  0.3624
  189POPC   H9X21827   3.842   3.491   9.430 -1.2185 -1.2623 -2.3438
  189POPC   H9Y21828   3.730   3.622   9.477  1.3997  0.1743  3.1257
  189POPC  C31021829   3.643   3.448   9.366  0.0775  0.3334 -0.4918
  189POPC  H10X21830   3.538   3.441   9.403  0.0300  0.0743 -0.6657
  189POPC  H10Y21831   3.679   3.347   9.336  2.9793  0.7633  1.2301
  189POPC  C31121832   3.640   3.527   9.233  0.6791 -0.0915 -0.7063
  189POPC  H11X21833   3.669   3.631   9.255 -1.3607  0.6808 -1.4320
  189POPC  H11Y21834   3.539   3.528   9.186  0.0607  0.2474  0.5970
  189POPC  C31221835   3.738   3.477   9.125 -0.5467 -0.6389 -0.4026
  189POPC  H12X21836   3.704   3.379   9.085  1.5694 -1.3881 -0.4940
  189POPC  H12Y21837   3.833   3.449   9.175 -1.0330 -0.4005  0.6906
  189POPC  C31321838   3.766   3.569   9.006 -0.0835 -0.4068 -0.5493
  189POPC  H13X21839   3.845   3.523   8.943  1.2421  1.5229 -0.3703
  189POPC  H13Y21840   3.794   3.668   9.047  0.1000  0.5205 -2.8151
  189POPC  C31421841   3.642   3.590   8.914  0.1261  0.1840  0.5766
  189POPC  H14X21842   3.673   3.658   8.832  1.4124 -2.9833 -1.7516
  189POPC  H14Y21843   3.557   3.641   8.964 -2.7969 -1.3525 -2.3922
  189POPC  C31521844   3.586   3.471   8.830 -0.3833 -0.5096 -0.4298
  189POPC  H15X21845   3.489   3.508   8.789  1.1096  1.2066 -2.6539
  189POPC  H15Y21846   3.572   3.384   8.897  0.7064 -0.4545 -0.1194
  189POPC  C31621847   3.681   3.417   8.724  0.0288  0.0332 -0.4311
  189POPC  H16X21848   3.678   3.482   8.634  1.5839  0.9232  0.1025
  189POPC  H16Y21849   3.651   3.321   8.678 -0.3243  0.3976 -0.9719
  189POPC  H16Z21850   3.787   3.408   8.759 -0.0524 -0.8172 -0.3928
  190POPC     N21851   3.721   0.966  11.079  0.4795 -0.0043  0.2505
  190POPC   C1221852   3.635   0.842  11.051 -0.1042 -0.8454  0.3628
  190POPC  H12A21853   3.683   0.784  10.973  0.2621 -0.6759  0.4605
  190POPC  H12B21854   3.538   0.873  11.015  0.1879 -0.2502  0.0644
  190POPC   C1321855   3.753   1.049  10.956  0.2177 -0.6694 -0.7249
  190POPC  H13A21856   3.815   0.991  10.889 -1.0812 -1.1779 -1.5036
  190POPC  H13B21857   3.659   1.073  10.909 -2.8140  0.3272  4.9313
  190POPC  H13C21858   3.815   1.132  10.986  0.9228 -1.8684  1.3258
  190POPC   C1421859   3.646   1.055  11.173 -0.3202  0.3567 -0.1297
  190POPC  H14A21860   3.552   1.076  11.125  0.4468 -0.5593 -2.1370
  190POPC  H14B21861   3.617   1.009  11.266 -1.2772  0.4412 -0.3754
  190POPC  H14C21862   3.700   1.146  11.191  0.1378  0.3453 -1.3322
  190POPC   C1521863   3.851   0.923  11.139  0.0059  0.4105 -0.3738
  190POPC  H15A21864   3.813   0.860  11.218 -0.8076 -0.4479 -1.4203
  190POPC  H15B21865   3.913   1.002  11.178  0.3108 -0.4912  1.0604
  190POPC  H15C21866   3.909   0.863  11.070 -0.7427  0.8379 -1.4123
  190POPC   C1121867   3.613   0.741  11.162  0.0359  0.0596 -0.0513
  190POPC  H11A21868   3.530   0.668  11.144  1.4044 -1.3263 -0.9742
  190POPC  H11B21869   3.580   0.805  11.247 -0.1553  1.1972 -0.9526
  190POPC     P21870   3.786   0.560  11.117 -0.0491 -0.1743  0.6247
  190POPC   O1321871   3.691   0.450  11.123 -0.1567 -0.0678  0.5060
  190POPC   O1421872   3.925   0.528  11.157 -0.3934  1.3747  0.3496
  190POPC   O1221873   3.735   0.681  11.200  0.3729 -0.2217  0.5241
  190POPC   O1121874   3.793   0.623  10.977  0.2107  0.0141 -0.1014
  190POPC    C121875   3.878   0.570  10.880  0.2493  0.6202  0.2948
  190POPC    HA21876   3.866   0.461  10.864 -1.4887  0.6481  1.1437
  190POPC    HB21877   3.985   0.591  10.903 -0.4392  1.5285  3.1202
  190POPC    C221878   3.837   0.640  10.745 -0.1466  0.9299  0.2982
  190POPC    HS21879   3.732   0.617  10.717  0.3237  0.1827 -0.9134
  190POPC   O2121880   3.932   0.588  10.651  0.0207 -0.2194  0.1633
  190POPC   C2121881   3.888   0.495  10.572  0.2751 -0.0893 -0.1376
  190POPC   O2221882   3.780   0.443  10.581  0.2818 -0.0562  0.2845
  190POPC   C2221883   3.996   0.439  10.482 -0.3167 -0.2057 -0.8548
  190POPC   H2R21884   3.992   0.329  10.495 -0.2598 -0.2300 -1.0401
  190POPC   H2S21885   4.092   0.487  10.512 -0.3498  0.6225 -2.0168
  190POPC    C321886   3.855   0.795  10.746 -0.1738  0.2149  0.0870
  190POPC    HX21887   3.956   0.820  10.785  0.6442 -1.2004 -1.0158
  190POPC    HY21888   3.773   0.832  10.810  0.2699 -1.7593  1.9056
  190POPC   O3121889   3.862   0.853  10.613 -0.2636  0.2476 -0.6746
  190POPC   C3121890   3.750   0.904  10.572  0.5566  0.9880  0.2712
  190POPC   O3221891   3.642   0.893  10.628  0.4041 -0.6613  0.0521
  190POPC   C3221892   3.766   0.965  10.432 -0.0747 -0.5443  0.7841
  190POPC   H2X21893   3.819   1.062  10.441 -0.2743 -0.3191 -0.3097
  190POPC   H2Y21894   3.662   0.980  10.394  1.0421  1.6318 -1.7356
  190POPC   C2321895   3.988   0.471  10.331  0.5174  0.2652 -0.4146
  190POPC   H3R21896   4.010   0.578  10.307 -2.1392  1.0019  0.1512
  190POPC   H3S21897   3.883   0.454  10.300  0.8954 -0.7089 -1.2180
  190POPC   C2421898   4.073   0.382  10.232  0.2153 -0.6721 -0.4247
  190POPC   H4R21899   4.057   0.277  10.267  0.3784 -1.5451 -2.7661
  190POPC   H4S21900   4.177   0.414  10.252  0.2416 -2.2394  2.5003
  190POPC   C2521901   4.030   0.407  10.088  0.4259 -0.3814 -0.2579
  190POPC   H5R21902   4.043   0.517  10.081  0.0750 -0.4257 -1.8327
  190POPC   H5S21903   3.923   0.378  10.086 -0.3536  1.8742  2.3259
  190POPC   C2621904   4.095   0.329   9.978  0.0897  0.2016  0.1136
  190POPC   H6R21905   4.094   0.218   9.983  0.2393  0.1811 -0.2487
  190POPC   H6S21906   4.203   0.349   9.991  0.3498 -0.5643 -0.7346
  190POPC   C2721907   4.042   0.378   9.842 -0.3571  0.1780  0.5157
  190POPC   H7R21908   4.051   0.488   9.840  1.5677  0.0350 -0.3882
  190POPC   H7S21909   3.932   0.361   9.838 -0.3965  0.6440 -0.7557
  190POPC   C2821910   4.112   0.317   9.713 -0.2142  0.4400  0.0608
  190POPC   H8R21911   4.216   0.312   9.752 -0.8609 -2.6589  1.7630
  190POPC   H8S21912   4.096   0.396   9.636  3.1773  1.4142  0.2218
  190POPC   C2921913   4.081   0.174   9.681 -0.4442  0.5735 -0.4031
  190POPC   H9121914   4.115   0.098   9.753 -1.4122  0.8009  0.3256
  190POPC  C21021915   4.013   0.123   9.580  0.6665  0.6093  0.3282
  190POPC  H10121916   4.000   0.014   9.572  0.9288  0.5918  0.1340
  190POPC  C21121917   3.963   0.185   9.460  0.4253  0.2060 -0.2827
  190POPC  H11R21918   4.025   0.266   9.414 -3.6452  2.2849 -2.7159
  190POPC  H11S21919   3.869   0.235   9.492 -0.5347  0.2474 -2.9234
  190POPC  C21221920   3.923   0.083   9.354  0.9523 -0.3966 -0.3288
  190POPC  H12R21921   3.878   0.134   9.266 -0.7312 -2.6053 -0.8245
  190POPC  H12S21922   3.845   0.017   9.397  1.0301 -0.2663  0.0179
  190POPC  C21321923   4.044   0.005   9.298  0.5374 -0.1207 -0.1292
  190POPC  H13R21924   4.101  -0.063   9.364  3.9283  2.2409 -0.3995
  190POPC  H13S21925   4.122   0.081   9.279  0.8009 -1.0037 -3.1520
  190POPC  C21421926   4.010  -0.072   9.168  0.9158 -0.7979 -0.3316
  190POPC  H14R21927   3.970   0.004   9.097  0.4654 -1.2391 -0.5556
  190POPC  H14S21928   3.928  -0.146   9.186  2.5239 -2.9119 -1.3156
  190POPC  C21521929   4.122  -0.158   9.105 -0.1530 -0.0926 -0.4818
  190POPC  H15R21930   4.170  -0.214   9.189  0.1300 -0.4126 -0.8512
  190POPC  H15S21931   4.205  -0.096   9.066 -0.4006  0.9468  0.6033
  190POPC  C21621932   4.066  -0.249   8.999  0.3917 -0.3753 -0.6662
  190POPC  H16R21933   3.982  -0.306   9.044 -0.1694  1.3724  0.5781
  190POPC  H16S21934   4.142  -0.327   8.975  0.4985  0.0678 -1.8525
  190POPC  C21721935   4.027  -0.173   8.868  0.3468 -0.2597  0.2169
  190POPC  H17R21936   4.109  -0.100   8.852 -2.2883  2.8092 -0.6435
  190POPC  H17S21937   3.933  -0.116   8.887 -0.3207 -0.1596 -2.7883
  190POPC  C21821938   4.002  -0.261   8.742 -0.1513 -0.1658 -0.6846
  190POPC  H18R21939   4.020  -0.369   8.759  2.5647  0.0661 -1.6533
  190POPC  H18S21940   4.077  -0.230   8.666 -0.5794  0.9949 -0.6608
  190POPC  H18T21941   3.899  -0.238   8.705 -1.3044 -1.7292  1.3630
  190POPC   C3321942   3.833   0.872  10.327 -0.0888  0.5361 -0.0930
  190POPC   H3X21943   3.769   0.789  10.289  0.9428  0.8674 -2.7550
  190POPC   H3Y21944   3.922   0.820  10.368 -0.1741  1.4454  1.2927
  190POPC   C3421945   3.888   0.944  10.205  0.2866  0.3375  0.0372
  190POPC   H4X21946   3.962   1.020  10.237 -0.2099  0.9833 -0.3205
  190POPC   H4Y21947   3.799   1.000  10.167 -0.8883 -0.2192  1.8282
  190POPC   C3521948   3.942   0.840  10.100 -0.0818 -0.3010  0.4864
  190POPC   H5X21949   3.877   0.751  10.117 -3.7667  1.7597 -1.5516
  190POPC   H5Y21950   4.047   0.811  10.119  0.4674  0.9835 -0.4942
  190POPC   C3621951   3.921   0.886   9.954  0.0664  0.7655 -0.6494
  190POPC   H6X21952   3.965   0.985   9.930 -1.0572  1.5225  0.2604
  190POPC   H6Y21953   3.810   0.895   9.948 -0.1182 -0.6759  0.1713
  190POPC   C3721954   3.961   0.786   9.839  0.0552  0.1850 -0.5832
  190POPC   H7X21955   3.930   0.682   9.863  2.3312 -0.4351 -0.0898
  190POPC   H7Y21956   4.072   0.784   9.842  0.0782  0.7803 -0.8604
  190POPC   C3821957   3.898   0.821   9.698  0.3032 -0.0584 -0.5678
  190POPC   H8X21958   3.943   0.909   9.646  0.6425 -0.8146 -1.5993
  190POPC   H8Y21959   3.794   0.853   9.722 -0.0815 -1.8116  0.2326
  190POPC   C3921960   3.903   0.700   9.606 -0.3795  0.0376 -0.4312
  190POPC   H9X21961   3.862   0.608   9.654  0.8017 -0.0453  0.4722
  190POPC   H9Y21962   4.009   0.681   9.577  0.7462  1.2420  2.4441
  190POPC  C31021963   3.821   0.728   9.479  0.3837  0.0322  0.3703
  190POPC  H10X21964   3.853   0.815   9.419  0.8726 -1.6675 -1.9593
  190POPC  H10Y21965   3.723   0.760   9.520  0.2005 -1.1184  0.8989
  190POPC  C31121966   3.792   0.611   9.382 -0.4307 -0.3817 -0.7077
  190POPC  H11X21967   3.737   0.645   9.292 -0.3957  0.1816 -0.5188
  190POPC  H11Y21968   3.735   0.526   9.426 -0.7688 -0.8596 -2.0097
  190POPC  C31221969   3.916   0.542   9.317 -0.3017 -0.0607 -0.8270
  190POPC  H12X21970   3.977   0.497   9.397 -1.4582  1.4205  0.9625
  190POPC  H12Y21971   3.976   0.627   9.277 -0.5677  0.4170 -0.2312
  190POPC  C31321972   3.879   0.428   9.214 -0.1095 -0.4689  0.1856
  190POPC  H13X21973   3.794   0.363   9.242 -0.7323  1.4830  3.2957
  190POPC  H13Y21974   3.957   0.349   9.204 -0.3846 -0.5421 -1.6300
  190POPC  C31421975   3.848   0.470   9.064  0.6403  0.0226 -0.3400
  190POPC  H14X21976   3.946   0.505   9.026  0.8525 -0.0453  0.1386
  190POPC  H14Y21977   3.768   0.546   9.056  0.3936 -0.1204  0.6357
  190POPC  C31521978   3.807   0.347   8.977  0.0450 -0.3079 -0.1200
  190POPC  H15X21979   3.769   0.398   8.886  3.2756  2.0912 -0.2673
  190POPC  H15Y21980   3.729   0.295   9.036  0.9610 -0.9740  0.5279
  190POPC  C31621981   3.919   0.252   8.931  0.2751  0.5991 -0.2989
  190POPC  H16X21982   3.989   0.229   9.014  0.9404  0.1825 -0.9634
  190POPC  H16Y21983   3.981   0.292   8.848 -0.4272 -0.0517 -1.1656
  190POPC  H16Z21984   3.866   0.163   8.892  0.8856  0.2850 -0.4224
  191POPC     N21985   5.568   1.378   5.934 -1.3700  0.4641 -0.0756
  191POPC   C1221986   5.482   1.436   6.053 -0.2517  0.5533  0.1305
  191POPC  H12A21987   5.377   1.433   6.029 -0.1925 -0.2990 -0.0517
  191POPC  H12B21988   5.501   1.542   6.067  0.0990  0.8941 -2.4619
  191POPC   C1321989   5.712   1.406   5.973  0.6763 -0.3741  0.1270
  191POPC  H13A21990   5.732   1.512   5.977 -0.0081 -0.2747  2.3983
  191POPC  H13B21991   5.724   1.362   6.071 -1.1387  0.0384  0.5820
  191POPC  H13C21992   5.779   1.361   5.902 -0.1259  0.6393 -1.3081
  191POPC   C1421993   5.545   1.231   5.909 -0.5863  0.1162  0.0522
  191POPC  H14A21994   5.610   1.190   5.833 -0.3030 -1.2149  0.9764
  191POPC  H14B21995   5.577   1.168   5.991 -0.0365  1.6073  1.0314
  191POPC  H14C21996   5.444   1.208   5.879 -1.1279  1.6989  0.5760
  191POPC   C1521997   5.541   1.441   5.805  0.0235 -0.0432  0.0894
  191POPC  H15A21998   5.550   1.548   5.818 -1.1779 -0.0900  1.6011
  191POPC  H15B21999   5.440   1.428   5.768  0.5583  1.1126 -1.9319
  191POPC  H15C22000   5.608   1.412   5.725 -0.4541 -0.6845 -0.0891
  191POPC   C1122001   5.488   1.379   6.195 -0.0179 -0.5217 -0.1809
  191POPC  H11A22002   5.415   1.439   6.255  0.2879  0.4284 -0.7308
  191POPC  H11B22003   5.583   1.408   6.246 -0.9058  1.0282  0.6613
  191POPC     P22004   5.317   1.192   6.238  0.3140  0.5220  0.1850
  191POPC   O1322005   5.308   1.044   6.213 -0.7197  0.0393 -0.2906
  191POPC   O1422006   5.215   1.276   6.161 -0.2879  0.2140  0.3039
  191POPC   O1222007   5.471   1.233   6.206  0.1245 -0.1120 -0.1046
  191POPC   O1122008   5.303   1.223   6.395 -0.3777 -0.0812  0.3196
  191POPC    C122009   5.395   1.167   6.493  0.2204 -0.9265 -0.1974
  191POPC    HA22010   5.466   1.250   6.514 -0.9719 -0.2873  1.5192
  191POPC    HB22011   5.446   1.078   6.450  0.6865  1.0718 -4.2174
  191POPC    C222012   5.332   1.148   6.637 -0.5558  1.0302  0.9444
  191POPC    HS22013   5.261   1.232   6.653  0.0121  1.6092  0.5250
  191POPC   O2122014   5.430   1.138   6.743 -0.4103 -0.2308  0.3923
  191POPC   C2122015   5.458   1.256   6.797  0.5491  0.1739 -0.4469
  191POPC   O2222016   5.426   1.365   6.760 -0.3013  0.0493  0.4883
  191POPC   C2222017   5.566   1.228   6.909  0.2965  0.1407 -0.1072
  191POPC   H2R22018   5.662   1.210   6.858 -0.1884 -0.2580 -0.9005
  191POPC   H2S22019   5.542   1.137   6.969 -1.4458  1.8344  1.9588
  191POPC    C322020   5.248   1.012   6.641  0.4089 -0.3225  0.1652
  191POPC    HX22021   5.304   0.934   6.586 -0.0230 -0.8718  0.5021
  191POPC    HY22022   5.160   1.018   6.573  0.6364 -1.1912 -0.2160
  191POPC   O3122023   5.214   0.972   6.774  0.2033 -0.4027  0.2487
  191POPC   C3122024   5.120   1.054   6.831  0.2194  0.7504  0.1308
  191POPC   O3222025   5.063   1.143   6.773  0.3204 -0.2361 -0.1647
  191POPC   C3222026   5.083   1.009   6.972  0.0919  0.0120 -0.8622
  191POPC   H2X22027   4.976   0.984   6.956 -0.1613  1.1169 -0.9655
  191POPC   H2Y22028   5.099   1.091   7.045  0.9335 -0.6584 -0.2630
  191POPC   C2322029   5.577   1.353   7.006 -0.0060  0.1301 -0.4463
  191POPC   H3R22030   5.597   1.452   6.958  0.7713  1.2254  1.9692
  191POPC   H3S22031   5.669   1.324   7.063  0.7462  0.0398 -1.6738
  191POPC   C2422032   5.466   1.376   7.115 -0.1198 -0.1241  0.7957
  191POPC   H4R22033   5.377   1.402   7.054  0.9714  1.6210 -0.1309
  191POPC   H4S22034   5.501   1.469   7.164  0.4968 -0.2578  0.6222
  191POPC   C2522035   5.450   1.263   7.217  0.4810 -1.1710  0.3185
  191POPC   H5R22036   5.532   1.270   7.292 -0.5492  3.3168  1.3117
  191POPC   H5S22037   5.443   1.170   7.157  0.8172  0.0135 -1.6394
  191POPC   C2622038   5.313   1.271   7.291 -1.0176 -0.5055  0.2346
  191POPC   H6R22039   5.289   1.169   7.328 -0.8273 -0.8264 -0.5096
  191POPC   H6S22040   5.231   1.306   7.225 -0.3990  3.7938  1.4265
  191POPC   C2722041   5.332   1.385   7.395 -0.1367 -0.3793  0.0995
  191POPC   H7R22042   5.324   1.482   7.340 -4.0965 -0.3095  0.5714
  191POPC   H7S22043   5.430   1.379   7.448 -0.0545  1.3179  0.2047
  191POPC   C2822044   5.225   1.408   7.499  0.1393 -0.2838  0.1661
  191POPC   H8R22045   5.129   1.434   7.450  0.4821 -0.1038 -0.4114
  191POPC   H8S22046   5.253   1.495   7.562 -0.8493 -0.0568  0.3186
  191POPC   C2922047   5.209   1.281   7.582  0.4998  1.2082  0.1254
  191POPC   H9122048   5.195   1.185   7.529 -1.4219  1.0841  0.8058
  191POPC  C21022049   5.203   1.271   7.721 -0.1159 -0.4138 -0.2922
  191POPC  H10122050   5.195   1.175   7.774  4.0749 -0.2761  0.9248
  191POPC  C21122051   5.213   1.382   7.823  0.0540 -0.4120 -0.1109
  191POPC  H11R22052   5.301   1.447   7.803 -1.5756  1.1433 -3.0752
  191POPC  H11S22053   5.237   1.340   7.923  1.2129 -0.7605 -0.5189
  191POPC  C21222054   5.087   1.457   7.839  0.3305  0.2397 -0.1766
  191POPC  H12R22055   5.001   1.396   7.874  0.0471  0.8403  0.1945
  191POPC  H12S22056   5.050   1.501   7.744  1.1081  0.3940 -0.4193
  191POPC  C21322057   5.106   1.579   7.920  0.4628 -0.4167 -0.0437
  191POPC  H13R22058   5.181   1.646   7.873  1.4462 -1.7302 -0.3986
  191POPC  H13S22059   5.143   1.546   8.019  0.3854  0.9776  0.4778
  191POPC  C21422060   4.977   1.645   7.973  0.7131  0.3947  0.0104
  191POPC  H14R22061   5.002   1.699   8.066 -1.0244  0.9519  0.1869
  191POPC  H14S22062   4.907   1.564   8.004 -1.6948  2.9079  1.4956
  191POPC  C21522063   4.921   1.743   7.868 -0.0839 -0.3489 -0.6366
  191POPC  H15R22064   4.887   1.688   7.777 -1.4592  0.0870 -0.4142
  191POPC  H15S22065   4.993   1.824   7.844 -1.3640  1.2903  0.8255
  191POPC  C21622066   4.789   1.805   7.922 -0.4975 -0.0890  0.0631
  191POPC  H16R22067   4.809   1.863   8.015 -1.8905  2.3718 -1.0917
  191POPC  H16S22068   4.717   1.722   7.940 -1.6255  0.5897 -1.1358
  191POPC  C21722069   4.727   1.899   7.829 -0.6498  0.5964  0.5146
  191POPC  H17R22070   4.628   1.935   7.865 -0.0479  1.0516  1.7368
  191POPC  H17S22071   4.689   1.840   7.742 -2.7189  1.2411  0.9143
  191POPC  C21822072   4.806   2.020   7.780  0.7008 -0.6229 -0.3240
  191POPC  H18R22073   4.851   2.077   7.864 -1.9915 -0.7367  1.3333
  191POPC  H18S22074   4.736   2.090   7.729 -0.1091  1.2185  3.0012
  191POPC  H18T22075   4.885   2.000   7.706 -0.6331 -2.0696 -1.4352
  191POPC   C3322076   5.156   0.884   7.015  0.5620  0.4377 -1.1183
  191POPC   H3X22077   5.266   0.897   7.011  0.9871 -2.2403 -0.4895
  191POPC   H3Y22078   5.140   0.798   6.946 -0.5653 -0.8565  0.6732
  191POPC   C3422079   5.110   0.815   7.150  0.0575  0.6692  0.2540
  191POPC   H4X22080   5.140   0.708   7.147 -1.7428  0.1288  0.0151
  191POPC   H4Y22081   5.000   0.819   7.170  0.1268 -0.1799  0.8547
  191POPC   C3522082   5.171   0.884   7.276  0.4485 -0.2417 -0.3530
  191POPC   H5X22083   5.147   0.992   7.281  0.9493 -0.1334 -0.2144
  191POPC   H5Y22084   5.278   0.888   7.247  0.4225  0.9745 -0.3167
  191POPC   C3622085   5.149   0.837   7.420 -0.4640  0.1772 -1.0791
  191POPC   H6X22086   5.047   0.852   7.462  0.9736  0.6000  2.6687
  191POPC   H6Y22087   5.220   0.894   7.484  1.3111 -3.2989  0.3186
  191POPC   C3722088   5.180   0.688   7.447  0.0145 -0.0894  0.1895
  191POPC   H7X22089   5.278   0.654   7.405  0.6331  0.3245  1.2453
  191POPC   H7Y22090   5.097   0.629   7.402 -0.8198  0.8135  0.5209
  191POPC   C3822091   5.192   0.662   7.599 -0.3086  0.0904  0.2872
  191POPC   H8X22092   5.277   0.723   7.637  0.3199 -1.2653  1.1537
  191POPC   H8Y22093   5.233   0.563   7.628  0.9232  0.6756  0.6217
  191POPC   C3922094   5.062   0.677   7.676 -0.9063 -0.0973  0.0621
  191POPC   H9X22095   4.984   0.609   7.636 -1.2002  0.6050 -0.5962
  191POPC   H9Y22096   5.025   0.782   7.670  1.5392  0.7753 -0.6782
  191POPC  C31022097   5.074   0.657   7.829 -0.3451 -0.2309  0.3386
  191POPC  H10X22098   5.149   0.727   7.873  0.5968 -0.4890 -0.7943
  191POPC  H10Y22099   5.108   0.556   7.861  2.8181  1.2749  2.2092
  191POPC  C31122100   4.944   0.698   7.891 -0.2658 -0.4288 -0.1523
  191POPC  H11X22101   4.856   0.639   7.858 -0.7119 -0.0133  0.2873
  191POPC  H11Y22102   4.927   0.804   7.863  0.6065  0.4558  2.4538
  191POPC  C31222103   4.935   0.690   8.046 -0.5749 -0.4140 -0.1936
  191POPC  H12X22104   4.954   0.583   8.071 -1.9893 -0.8282 -0.8102
  191POPC  H12Y22105   4.840   0.736   8.079 -0.5497 -2.0693  2.4836
  191POPC  C31322106   5.044   0.771   8.112  0.7546 -0.5176  0.4898
  191POPC  H13X22107   5.034   0.878   8.087  2.3314 -0.0951  1.5098
  191POPC  H13Y22108   5.139   0.723   8.080  0.9099  0.6843 -0.9789
  191POPC  C31422109   5.056   0.754   8.263 -0.2601  0.0378 -0.4426
  191POPC  H14X22110   4.971   0.800   8.319  1.5965 -0.3702  2.9603
  191POPC  H14Y22111   5.145   0.810   8.298 -0.0053 -0.1666 -0.7648
  191POPC  C31522112   5.073   0.609   8.311 -0.0287 -0.4952 -0.2003
  191POPC  H15X22113   5.135   0.556   8.235 -0.5058  0.3259 -1.1877
  191POPC  H15Y22114   4.973   0.563   8.295  0.2442 -0.9850 -0.5342
  191POPC  C31622115   5.122   0.599   8.456  0.2473  0.1098  0.1772
  191POPC  H16X22116   5.229   0.627   8.464 -0.0807  0.9064  2.4062
  191POPC  H16Y22117   5.132   0.491   8.477  1.8257  0.0797 -0.5513
  191POPC  H16Z22118   5.054   0.650   8.527  1.5356 -1.1329  2.3987
  192POPC     N22119   2.646   3.684   6.026  1.0105  0.3050 -0.0839
  192POPC   C1222120   2.596   3.570   6.118 -0.8829  0.3277 -0.0235
  192POPC  H12A22121   2.680   3.514   6.157  0.2707  0.4802 -2.1448
  192POPC  H12B22122   2.546   3.501   6.051 -0.0795 -0.2447 -0.0564
  192POPC   C1322123   2.740   3.769   6.112 -0.3386  0.6874  0.1333
  192POPC  H13A22124   2.694   3.832   6.187  0.4759 -1.9134  3.0319
  192POPC  H13B22125   2.807   3.707   6.169 -2.0480 -0.2694  1.2102
  192POPC  H13C22126   2.796   3.832   6.045  2.1297 -2.3777 -0.9334
  192POPC   C1422127   2.729   3.618   5.926  0.3016  0.1305  0.1952
  192POPC  H14A22128   2.812   3.567   5.974  0.9330  2.6206  1.9351
  192POPC  H14B22129   2.674   3.547   5.866 -1.6138 -0.3753  2.4208
  192POPC  H14C22130   2.768   3.693   5.858 -1.8775  0.2450 -0.9947
  192POPC   C1522131   2.536   3.767   5.969  0.0353 -0.3111  0.1245
  192POPC  H15A22132   2.579   3.841   5.903 -1.4357 -0.9384 -1.6542
  192POPC  H15B22133   2.483   3.809   6.053  0.6581  0.5161  0.1107
  192POPC  H15C22134   2.461   3.713   5.912  0.6839  0.8484 -1.9473
  192POPC   C1122135   2.491   3.614   6.223  0.0277 -0.4163  0.6187
  192POPC  H11A22136   2.404   3.667   6.179 -0.1182 -1.3455 -0.2641
  192POPC  H11B22137   2.554   3.688   6.278  1.2668  0.5579 -1.9559
  192POPC     P22138   2.506   3.455   6.434  0.3243  0.0391  0.5819
  192POPC   O1322139   2.655   3.478   6.430 -0.3500  0.3752  0.2114
  192POPC   O1422140   2.468   3.314   6.459  0.7755  0.0070  0.4609
  192POPC   O1222141   2.451   3.500   6.297 -0.0160 -0.2424  0.0688
  192POPC   O1122142   2.423   3.550   6.524  0.6088 -0.4127 -0.0385
  192POPC    C122143   2.470   3.611   6.653 -0.2543  0.7353 -0.1695
  192POPC    HA22144   2.404   3.695   6.683  0.7597  1.0926  1.1315
  192POPC    HB22145   2.566   3.664   6.638  1.9314 -2.4138  1.4803
  192POPC    C222146   2.470   3.507   6.763  0.4897 -0.1580  0.7455
  192POPC    HS22147   2.478   3.546   6.867  0.3446  0.1266  0.6500
  192POPC   O2122148   2.563   3.405   6.751  0.0653 -0.1786 -0.0647
  192POPC   C2122149   2.688   3.439   6.781  0.4433  1.1733 -0.2075
  192POPC   O2222150   2.726   3.551   6.807  0.1947 -0.5869  0.1547
  192POPC   C2222151   2.779   3.313   6.775 -0.3875  0.0708  0.0427
  192POPC   H2R22152   2.811   3.303   6.669  1.1504 -0.5203  0.5334
  192POPC   H2S22153   2.710   3.227   6.788 -1.5248  0.5107 -2.4752
  192POPC    C322154   2.330   3.437   6.765 -0.6896  0.5108 -0.6327
  192POPC    HX22155   2.285   3.403   6.669 -1.3331  0.9464 -0.4929
  192POPC    HY22156   2.269   3.520   6.806  2.4090  3.4431 -1.5058
  192POPC   O3122157   2.332   3.325   6.848 -0.0904 -0.0290 -0.1982
  192POPC   C3122158   2.343   3.343   6.975 -0.1436  0.5004 -0.2739
  192POPC   O3222159   2.332   3.448   7.040  0.3251  0.2902 -0.7416
  192POPC   C3222160   2.356   3.199   7.030 -0.3730  0.3205  0.4806
  192POPC   H2X22161   2.455   3.158   7.000  0.4119  2.1363  0.4181
  192POPC   H2Y22162   2.281   3.130   6.985  0.6691  0.6114 -1.8446
  192POPC   C2322163   2.896   3.311   6.874 -0.5665  0.0001  0.5441
  192POPC   H3R22164   2.946   3.409   6.868  0.1447 -0.3825  0.1293
  192POPC   H3S22165   2.976   3.238   6.850  2.3908  3.3902 -0.8062
  192POPC   C2422166   2.854   3.300   7.014 -0.6389  0.1347 -0.7796
  192POPC   H4R22167   2.784   3.215   7.029  0.2482 -0.4362  0.1856
  192POPC   H4S22168   2.800   3.394   7.039 -0.6012 -0.4348  1.6095
  192POPC   C2522169   2.977   3.279   7.109  0.2102  0.3922  0.1715
  192POPC   H5R22170   3.047   3.362   7.087 -0.7570  0.7008 -1.9658
  192POPC   H5S22171   3.030   3.186   7.080 -0.0580  0.0768  0.6856
  192POPC   C2622172   2.934   3.266   7.255 -0.1098  0.4000  0.3890
  192POPC   H6R22173   3.022   3.225   7.308  0.9880 -0.1873 -1.7900
  192POPC   H6S22174   2.851   3.194   7.272  0.1294 -0.2449 -1.0555
  192POPC   C2722175   2.888   3.400   7.327 -0.2283 -0.4178  0.1239
  192POPC   H7R22176   2.800   3.435   7.269  0.0687 -1.3569 -0.9425
  192POPC   H7S22177   2.969   3.475   7.323 -0.3906 -0.2999 -2.3706
  192POPC   C2822178   2.854   3.375   7.478  0.6209  0.0929  0.2313
  192POPC   H8R22179   2.798   3.281   7.463  0.8443 -0.1005  0.5990
  192POPC   H8S22180   2.800   3.455   7.532  3.4621  1.2188  1.6481
  192POPC   C2922181   2.980   3.355   7.561  0.1306 -0.1908  0.4318
  192POPC   H9122182   3.059   3.430   7.554  0.9002 -0.7808  2.3636
  192POPC  C21022183   3.012   3.251   7.639  0.0742  0.0299  1.4621
  192POPC  H10122184   3.106   3.260   7.695  0.6126  1.8501  0.3619
  192POPC  C21122185   2.945   3.118   7.660 -0.0883  0.5869 -0.1647
  192POPC  H11R22186   2.970   3.044   7.580 -0.4882 -0.0950  0.3329
  192POPC  H11S22187   2.835   3.130   7.652 -0.3993  0.2007  2.6086
  192POPC  C21222188   2.974   3.067   7.801 -0.5169  0.1622 -0.3009
  192POPC  H12R22189   3.080   3.040   7.820 -0.4176  0.1187 -0.8810
  192POPC  H12S22190   2.916   2.972   7.800 -1.2270  0.4897  2.3356
  192POPC  C21322191   2.927   3.159   7.916 -0.6458  0.3395 -0.3045
  192POPC  H13R22192   2.827   3.205   7.899 -1.0820 -1.2415 -2.3133
  192POPC  H13S22193   2.998   3.244   7.918  0.1400 -0.3165  0.2867
  192POPC  C21422194   2.927   3.094   8.061  0.1426 -0.7226 -0.0114
  192POPC  H14R22195   2.850   3.014   8.055  1.3745 -1.9417 -0.1789
  192POPC  H14S22196   2.903   3.175   8.133  4.6713  0.7809  0.1232
  192POPC  C21522197   3.066   3.029   8.103  0.0484 -0.6454 -0.3925
  192POPC  H15R22198   3.138   3.113   8.105 -0.2303 -0.4129  1.3999
  192POPC  H15S22199   3.099   2.954   8.027 -0.6003 -0.8521 -0.4767
  192POPC  C21622200   3.059   2.965   8.243 -0.3216 -0.3866 -0.0905
  192POPC  H16R22201   2.958   2.919   8.244 -0.9123  0.7495  3.2287
  192POPC  H16S22202   3.049   3.047   8.317 -0.5229 -0.1061 -0.4246
  192POPC  C21722203   3.173   2.871   8.275  0.1234  0.3543  0.2101
  192POPC  H17R22204   3.269   2.924   8.258 -0.3839  1.0040 -0.7015
  192POPC  H17S22205   3.170   2.800   8.189  0.5307 -0.3817  0.7901
  192POPC  C21822206   3.171   2.803   8.412 -0.2609  0.2464  0.2885
  192POPC  H18R22207   3.247   2.722   8.418 -1.3204 -0.7113  1.1226
  192POPC  H18S22208   3.072   2.756   8.432 -0.8430  0.6703 -1.4019
  192POPC  H18T22209   3.191   2.885   8.484 -2.3514 -0.2909  1.5570
  192POPC   C3322210   2.344   3.194   7.186  0.0913 -0.3296  0.1329
  192POPC   H3X22211   2.323   3.090   7.221 -0.8906  0.1494  1.0361
  192POPC   H3Y22212   2.249   3.243   7.216  0.2948 -0.3728  0.8651
  192POPC   C3422213   2.473   3.243   7.258  0.6360 -0.0129  0.6002
  192POPC   H4X22214   2.499   3.347   7.229 -2.2408  0.7373  0.3267
  192POPC   H4Y22215   2.560   3.183   7.224  0.4892  0.9130 -1.5658
  192POPC   C3522216   2.480   3.224   7.417  0.0779  0.4566 -0.0132
  192POPC   H5X22217   2.402   3.289   7.462 -0.7893 -0.2476 -0.4781
  192POPC   H5Y22218   2.577   3.272   7.443  0.5606 -0.9070  0.8204
  192POPC   C3622219   2.475   3.074   7.467  0.2556 -0.0944  1.0010
  192POPC   H6X22220   2.533   3.001   7.408 -0.0964  0.1748  0.3023
  192POPC   H6Y22221   2.367   3.048   7.474  0.1638  0.1018  0.4080
  192POPC   C3722222   2.506   3.068   7.617  0.0364  0.3189 -0.2325
  192POPC   H7X22223   2.445   3.146   7.667  3.3308  1.5494  2.2480
  192POPC   H7Y22224   2.612   3.091   7.640  0.1291 -0.1288 -0.2054
  192POPC   C3822225   2.487   2.926   7.677 -0.0471  0.1441  0.0295
  192POPC   H8X22226   2.525   2.851   7.604  0.1451  1.8057 -1.6566
  192POPC   H8Y22227   2.382   2.894   7.689 -0.1878  0.1869 -1.0569
  192POPC   C3922228   2.545   2.899   7.814 -0.3511 -0.0751  0.3527
  192POPC   H9X22229   2.500   2.983   7.871 -0.4768  0.8389 -1.0365
  192POPC   H9Y22230   2.656   2.912   7.809 -0.2924 -0.1758  1.2941
  192POPC  C31022231   2.507   2.765   7.874  0.6865  0.4553  0.1982
  192POPC  H10X22232   2.513   2.692   7.790 -0.3983  1.9862 -1.2803
  192POPC  H10Y22233   2.401   2.766   7.907  0.3307 -2.7123 -0.4755
  192POPC  C31122234   2.589   2.719   7.995 -0.4568 -0.0791 -0.3952
  192POPC  H11X22235   2.698   2.735   7.978 -0.2199 -0.6817  0.4802
  192POPC  H11Y22236   2.564   2.611   8.007 -3.7365  0.4839 -1.1344
  192POPC  C31222237   2.551   2.793   8.129 -0.2968  0.4482  0.7666
  192POPC  H12X22238   2.446   2.778   8.161 -0.8827  1.9276 -0.3492
  192POPC  H12Y22239   2.565   2.901   8.105  2.4959  0.6196  2.7167
  192POPC  C31322240   2.649   2.749   8.244  0.2942 -0.0611 -0.4563
  192POPC  H13X22241   2.634   2.819   8.330 -0.5294 -0.0617 -0.5842
  192POPC  H13Y22242   2.748   2.760   8.194  1.4230 -1.5434  1.3466
  192POPC  C31422243   2.639   2.604   8.287 -0.1873 -0.0628  0.0658
  192POPC  H14X22244   2.721   2.569   8.353 -1.0498 -0.2609  1.0443
  192POPC  H14Y22245   2.638   2.534   8.200  1.1734  2.0697 -1.7597
  192POPC  C31522246   2.516   2.569   8.379  0.0123 -0.7597  0.3541
  192POPC  H15X22247   2.511   2.460   8.395 -0.9086 -0.8114 -0.1970
  192POPC  H15Y22248   2.424   2.593   8.321  0.5771  0.7691  0.0408
  192POPC  C31622249   2.509   2.651   8.512 -0.6240  0.3004  0.5239
  192POPC  H16X22250   2.417   2.614   8.563 -0.3786 -2.5848 -0.9228
  192POPC  H16Y22251   2.496   2.760   8.497 -0.1272  0.4944  1.4104
  192POPC  H16Z22252   2.603   2.640   8.570  0.6957  1.1575 -1.3659
  193SOD    SOD22253   3.904   3.169  11.640  0.3137  0.0139  0.9540
  194SOD    SOD22254   0.589   6.093  15.675  0.4988  0.1784  0.3105
  195SOD    SOD22255   6.066   3.941  10.922 -0.2990 -0.4072 -0.0745
  196SOD    SOD22256   3.296   0.679  16.993  0.4135  0.0991 -0.6363
  197SOD    SOD22257   2.345   2.640   3.443 -0.1554  0.7996 -0.4618
  198SOD    SOD22258   5.593   6.568   6.365  0.4219  0.2308 -0.2821
  199SOD    SOD22259   1.611   0.796   2.643  0.4633  0.0336  0.6545
  200SOD    SOD22260   2.219   1.051   0.494  0.3145 -0.2788 -0.0823
  201SOD    SOD22261   3.378   2.537  16.136  0.1240 -0.9980  0.0723
  202SOD    SOD22262   3.657   1.203   5.572  0.1158 -0.5944 -0.5762
  203SOD    SOD22263   1.388   3.748  12.424 -0.1389 -0.2829  0.4083
  204SOD    SOD22264   6.411   5.924  13.156  0.1499 -0.1126  0.0989
  205SOD    SOD22265   5.515   1.159   4.174 -0.0074  0.0403 -0.2026
  206SOD    SOD22266   6.088   5.529  10.860  0.2579 -0.0506  0.1911
  207SOD    SOD22267   3.144   5.628  12.591  0.1685  0.4518 -0.3317
  208SOD    SOD22268   3.823   0.515  13.939  0.0796 -0.1724 -0.2815
  209SOD    SOD22269   1.994   2.260   2.256 -0.0501 -0.3137  0.1037
  210SOD    SOD22270   2.685   1.762   1.703 -0.6954  0.0982 -0.3006
  211SOD    SOD22271   4.527   3.086  15.954 -0.3227 -0.0325  0.7619
  212SOD    SOD22272   2.484   1.395   1.312  0.6370  0.2818 -0.4963
  213SOD    SOD22273   2.792   2.430  11.864 -0.0325 -0.0140  0.1126
  214SOD    SOD22274   0.600   0.874   0.124 -0.3419 -0.4070 -0.1622
  215SOD    SOD22275   0.621   0.832  14.036  0.2559 -0.1700 -0.5386
  216SOD    SOD22276   5.695   2.611  17.371 -0.3990  0.1308 -0.0464
  217SOD    SOD22277   1.424   3.571  13.426 -0.6902 -0.0212  0.2368
  218SOD    SOD22278   4.232   1.953   5.389 -0.3117 -0.5611 -0.1509
  219SOD    SOD22279   4.353   5.416   1.062 -0.2321 -0.1575  0.2560
  220SOD    SOD22280   5.650   3.667  10.675  0.6171  0.2471  0.5678
  221SOD    SOD22281   5.431   5.023  16.535 -0.3709 -0.2622 -0.1439
  222SOD    SOD22282   4.368   6.092  12.975 -0.3405 -0.1637 -0.1636
  223SOD    SOD22283   0.344   4.483   5.731 -0.0099 -0.1115  0.1425
  224SOD    SOD22284   0.861   6.224   3.457  0.5193 -0.0247  0.2260
  225SOD    SOD22285   5.768   3.927  15.906  0.2906 -0.2036  0.0079
  226SOD    SOD22286   6.324   1.273  17.285 -0.3181  0.7762  0.6002
  227SOD    SOD22287   0.484   3.403  12.104  0.1657  0.0362 -0.0983
  228SOD    SOD22288   6.455   6.013   4.632 -0.0852 -0.9222 -0.0610
  229SOD    SOD22289   0.093   0.166  15.317 -0.3229 -0.3056 -0.0949
  230SOD    SOD22290   0.847   3.109  12.928 -0.2704  0.4768  0.4317
  231SOD    SOD22291   6.332   1.596  11.142  0.4997 -0.2454  0.8600
  232SOD    SOD22292   6.583   5.266   3.298 -0.3036 -0.5947  0.3783
  233SOD    SOD22293   0.921   5.963  11.311 -0.3407  0.1106 -0.2748
  234SOD    SOD22294   2.718   6.447   5.712 -0.0845 -0.2446 -0.3000
  235SOD    SOD22295   3.308   3.375   0.885  0.4556  0.1503  0.1808
  236SOD    SOD22296   3.346   3.028  13.310  0.0710 -0.2913 -0.0899
  237SOD    SOD22297   2.811   0.445   6.035 -0.0795 -0.0398 -0.3173
  238SOD    SOD22298   1.655   2.989   2.298  0.3296  0.1172  0.0977
  239SOD    SOD22299   1.068   5.471  11.330 -0.2841 -0.3425 -0.0919
  240SOD    SOD22300   1.837   0.375  12.573  0.1523 -0.1323  0.1639
  241SOD    SOD22301   1.709   6.406  14.411  0.0928  1.0902  0.4448
  242SOD    SOD22302   3.840   1.139  14.445 -0.4529  0.1889  0.2039
  243SOD    SOD22303   2.428   4.842   3.771 -0.7002 -0.1849  0.3003
  244SOD    SOD22304   2.675   0.931  12.172  0.6648  0.2541 -0.4257
  245SOD    SOD22305   6.125   0.594   4.994 -0.0706  0.5189  0.0330
  246SOD    SOD22306   3.954   4.128   3.674  0.8042  0.3754  0.2663
  247SOD    SOD22307   4.980   5.671   6.378  0.3337 -0.3459  0.3336
  248SOD    SOD22308   2.626   4.655   2.124 -0.0961 -0.1578  0.0019
  249SOD    SOD22309   5.875   2.683  12.219  0.1126  0.5840 -0.3011
  250SOD    SOD22310   0.559   3.247   3.589  0.1462 -0.0386 -0.1317
  251SOD    SOD22311   4.920   6.535   0.353  0.1177  0.0384 -0.1235
  252SOD    SOD22312   4.082   1.061  11.503  0.0135  0.0580 -0.1812
  253SOD    SOD22313   2.170   1.190  10.692  0.6742 -0.2297 -0.0268
  254SOD    SOD22314   4.043   3.324  13.189 -0.0140 -0.1706  0.2366
  255SOD    SOD22315   3.691   0.037  11.928 -0.4679  0.3534  0.0522
  256SOD    SOD22316   5.594   0.633   0.718  0.4034  0.1413  0.2263
  257SOD    SOD22317   1.269   6.743   5.264 -0.1377 -0.2828 -0.4090
  258SOD    SOD22318   5.669   1.745   3.130  0.1372 -0.2109 -0.2854
  259SOD    SOD22319   4.929   5.349  12.630 -0.2925 -0.2984 -0.4383
  260SOD    SOD22320   4.019   2.813  16.200  0.2358 -0.1517  0.1380
  261SOD    SOD22321   4.071   1.538  17.226  0.1663 -0.2565  0.4213
  262SOD    SOD22322   2.628   3.880   5.532  0.1433  0.1038  0.1714
  263SOD    SOD22323   2.061   5.174   6.708  0.0044 -0.5114  0.2865
  264SOD    SOD22324   4.056   0.444   0.718  0.4896 -0.1098  0.2093
  265SOD    SOD22325   2.710   0.833   6.584 -0.4977  0.2050 -0.5103
  266SOD    SOD22326   0.185   1.464  14.393  0.6320  0.0472  0.1732
  267SOD    SOD22327   3.300   6.357   4.516 -0.3571 -0.2361  0.2510
  268SOD    SOD22328   2.316   6.755   3.586 -0.2238 -0.1787  0.0994
  269SOD    SOD22329   5.675   0.538  14.775 -0.6960 -0.0593  0.3201
  270CLA    CLA22330   1.881   4.015   0.084 -0.2697  0.0722 -0.1038
  271CLA    CLA22331   3.284   5.105  12.962  0.4388 -0.0877 -0.0556
  272CLA    CLA22332   4.985   2.478   3.340 -0.1639 -0.0587 -0.1666
  273CLA    CLA22333   1.573   0.372   2.536  0.1049 -0.2586 -0.0285
  274CLA    CLA22334   3.551   2.213  17.381  0.0208 -0.4671  0.1841
  275CLA    CLA22335   3.706   4.022   2.832  0.2584  0.1962 -0.2126
  276CLA    CLA22336   2.417   2.940   3.067 -0.4224 -0.0571 -0.0475
  277CLA    CLA22337   2.779   5.057   1.644  0.1255  0.2345  0.2711
  278CLA    CLA22338   3.801   1.361   2.186  0.1834  0.0646 -0.1920
  279CLA    CLA22339   2.977   5.519  17.212  0.0336 -0.1103 -0.2236
  280CLA    CLA22340   2.566   0.648   1.029  0.3936  0.1007  0.3960
  281CLA    CLA22341   2.024   0.280   2.411 -0.1702  0.3614  0.0141
  282CLA    CLA22342   1.699   6.207  16.323 -0.0002  0.1466 -0.0684
  283CLA    CLA22343   2.024   6.189  12.710 -0.2205 -0.1896 -0.0394
  284CLA    CLA22344   5.429   2.012  16.620  0.5980  0.0075 -0.3895
  285CLA    CLA22345   6.444   3.579  11.446 -0.0826 -0.1103 -0.1891
  286CLA    CLA22346   0.693   2.695  13.898 -0.1727  0.5820 -0.2444
  287CLA    CLA22347   5.966   3.741  16.693 -0.0431 -0.5671  0.1041
  288CLA    CLA22348   2.920   4.976   5.603  0.5548  0.2148 -0.0935
  289CLA    CLA22349   3.417   3.945  16.679  0.0839 -0.1428  0.3431
  290CLA    CLA22350   1.936   1.494  15.106  0.3123  0.2378 -0.3085
  291CLA    CLA22351   2.627   1.722   2.482  0.2606 -0.1071  0.2839
  292CLA    CLA22352   1.918   3.503   5.528  0.2642 -0.4157  0.2479
  293CLA    CLA22353   5.426   3.039  14.950 -0.1456  0.1070  0.2792
  294CLA    CLA22354   6.114   2.349  12.051 -0.2598 -0.0165  0.1901
  295CLA    CLA22355   6.587   2.986  12.634 -0.1472 -0.2398 -0.2081
  296CLA    CLA22356   2.468   5.092   5.538 -0.4280  0.2503  0.0378
  297CLA    CLA22357   4.459   3.927  13.176 -0.2150  0.1288  0.1550
  298CLA    CLA22358   5.271   6.228  16.510 -0.1629 -0.0958 -0.0558
  299CLA    CLA22359   4.612   1.506  14.311 -0.1499 -0.2278  0.2454
  300CLA    CLA22360   4.992   6.028  15.322  0.0742  0.4953  0.1972
  301CLA    CLA22361   5.449   0.911   4.818  0.1909  0.3846 -0.0991
  302CLA    CLA22362   6.748   1.278  15.661  0.0914  0.2055  0.3226
  303CLA    CLA22363   4.016   3.506  12.722  0.2112 -0.3866  0.0502
  304CLA    CLA22364   3.989   1.106  17.098  0.1574 -0.4540  0.3533
  305CLA    CLA22365   0.713   4.047  11.623  0.0613 -0.0914  0.0686
  306CLA    CLA22366   5.987   1.808   0.242  0.0696  0.2716 -0.2394
  307CLA    CLA22367   1.844   3.345  13.866  0.0212 -0.2637  0.1723
  308CLA    CLA22368   2.297   1.305   1.740 -0.0934 -0.5690  0.0839
  309CLA    CLA22369   4.060   0.216  13.079 -0.3723 -0.3569 -0.2257
  310CLA    CLA22370   6.272   0.248   2.554  0.2603 -0.3444  0.0891
  311CLA    CLA22371   3.789   2.019  15.470 -0.2264  0.2709  0.1136
  312CLA    CLA22372   5.535   3.852  11.392  0.0772 -0.4888  0.1872
  313CLA    CLA22373   6.233   0.559  15.483  0.3808 -0.6545  0.0289
  314CLA    CLA22374   0.677   5.256   4.116 -0.4694  0.0520 -0.1353
  315CLA    CLA22375   0.279   5.754   1.823  0.1822 -0.1769 -0.3244
  316CLA    CLA22376   5.422   1.462  14.332  0.2889  0.0027 -0.1265
  317CLA    CLA22377   3.598   2.950   5.127 -0.2935 -0.3759 -0.0245
  318CLA    CLA22378   3.675   2.889  15.834 -0.3022  0.1901  0.3527
  319CLA    CLA22379   5.467   3.694   4.006  0.7051  0.0014  0.5033
  320CLA    CLA22380   0.189   1.429  13.459 -0.0634  0.3334 -0.2164
  321CLA    CLA22381   4.685   4.208   4.769 -0.0949  0.2464 -0.1328
  322CLA    CLA22382   5.120   3.987   3.255  0.0172  0.0647 -0.1303
  323TIP3   OH222383   4.878   4.350  15.572  0.1777  0.2133  0.3302
  323TIP3    H122384   4.921   4.375  15.654  1.9126 -0.8534 -0.2074
  323TIP3    H222385   4.816   4.282  15.598  0.9040 -0.3137  0.7485
  324TIP3   OH222386   3.941   4.849   2.684  0.0829  0.1521  0.1262
  324TIP3    H122387   3.867   4.881   2.737  0.6580 -2.2631  2.6338
  324TIP3    H222388   4.018   4.872   2.735  0.8469 -0.2463 -0.8275
  325TIP3   OH222389   3.451   2.636  16.353  0.2407  0.4482 -0.1524
  325TIP3    H122390   3.438   2.718  16.400  0.8334  1.5474 -1.7877
  325TIP3    H222391   3.519   2.591  16.402 -0.0664  0.9404  0.7538
  326TIP3   OH222392   0.688   1.311  16.242 -0.5099 -0.0060  0.0859
  326TIP3    H122393   0.698   1.222  16.208  1.7778  0.5711 -0.8968
  326TIP3    H222394   0.701   1.302  16.337  0.1791 -0.6763 -0.0642
  327TIP3   OH222395   1.068   1.834  15.852 -0.1057 -0.2826 -0.1569
  327TIP3    H122396   1.138   1.770  15.843  1.0514  1.0654 -1.1673
  327TIP3    H222397   1.111   1.914  15.880 -1.3565  0.3768 -0.0191
  328TIP3   OH222398   0.878   4.357   3.219 -0.1072 -0.4272  0.6682
  328TIP3    H122399   0.876   4.339   3.313 -1.6469 -0.8683  0.5850
  328TIP3    H222400   0.925   4.282   3.181  2.4754  0.8116  1.2438
  329TIP3   OH222401   2.049   0.497   2.629  0.3939 -0.2560  0.2541
  329TIP3    H122402   2.001   0.450   2.697 -1.0920  0.4271 -0.2871
  329TIP3    H222403   2.059   0.433   2.558  1.3171 -0.7461  0.8028
  330TIP3   OH222404   3.780   1.756   5.811  0.0893  0.7736  0.3971
  330TIP3    H122405   3.842   1.706   5.757 -1.6719 -0.6522 -0.4120
  330TIP3    H222406   3.802   1.732   5.901  0.3051 -0.2478  0.0865
  331TIP3   OH222407   4.235   4.368  15.034  0.8879  0.5897  0.0384
  331TIP3    H122408   4.169   4.437  15.027 -0.0092 -0.3135 -0.6332
  331TIP3    H222409   4.278   4.385  15.118 -0.6543  0.7985  0.8082
  332TIP3   OH222410   1.345   6.257   5.121  0.2227  0.1902  0.0356
  332TIP3    H122411   1.265   6.223   5.161 -1.2340  0.6326 -2.2853
  332TIP3    H222412   1.406   6.267   5.194 -1.1291 -2.0943  1.6088
  333TIP3   OH222413   0.825   4.047  13.524 -0.1435 -0.0014  0.0285
  333TIP3    H122414   0.908   4.004  13.542 -0.0372  0.5523  0.8928
  333TIP3    H222415   0.763   4.006  13.585 -0.4865 -0.3395 -0.5395
  334TIP3   OH222416   2.252   1.106   0.262  0.1664  0.1748  0.0292
  334TIP3    H122417   2.294   1.192   0.260  0.2267  0.1455  0.0338
  334TIP3    H222418   2.192   1.106   0.188  0.2795  0.1626 -0.0614
  335TIP3   OH222419   3.171   2.568   0.574  0.3708 -0.4853  0.5695
  335TIP3    H122420   3.161   2.481   0.535 -0.3983 -1.1628  2.1757
  335TIP3    H222421   3.221   2.553   0.654  1.2661  0.7484  0.2732
  336TIP3   OH222422   5.844   0.046  11.206 -0.8636 -0.0624 -0.4616
  336TIP3    H122423   5.884   0.108  11.267 -0.2786  0.4383 -1.3247
  336TIP3    H222424   5.857   0.086  11.120 -0.6843 -1.2850 -1.0230
  337TIP3   OH222425   5.763   5.533   3.494  0.0977 -0.3837  0.3486
  337TIP3    H122426   5.737   5.615   3.452  1.4874  0.7239  1.5267
  337TIP3    H222427   5.859   5.535   3.493  0.1610 -1.1682  1.8675
  338TIP3   OH222428   5.749   5.819   5.932  0.6242  0.7461  0.0023
  338TIP3    H122429   5.705   5.771   6.002  0.8509 -0.1457 -0.4524
  338TIP3    H222430   5.736   5.911   5.954  0.5900  0.4752  1.1443
  339TIP3   OH222431   1.604   4.035   6.725  0.0829 -0.6244  0.6984
  339TIP3    H122432   1.651   4.114   6.697  1.0799 -0.9623  1.3631
  339TIP3    H222433   1.512   4.054   6.706  0.3310  0.6074  0.6376
  340TIP3   OH222434   2.371   6.455  13.384 -0.6051 -0.3154  0.1462
  340TIP3    H122435   2.445   6.496  13.339 -1.0154 -1.4774 -1.6983
  340TIP3    H222436   2.411   6.390  13.442 -0.1175  0.4525  0.6995
  341TIP3   OH222437   5.735   5.096   4.717  0.3067  0.3388 -0.0821
  341TIP3    H122438   5.690   5.015   4.738  1.1684  0.2376  1.5116
  341TIP3    H222439   5.790   5.075   4.641  2.0197 -1.1462  1.5040
  342TIP3   OH222440   5.408   5.025  14.574 -0.1242 -0.7216 -0.7675
  342TIP3    H122441   5.408   4.941  14.620 -2.3924 -0.5011 -0.2725
  342TIP3    H222442   5.411   5.001  14.481 -1.2269 -1.4115 -0.6511
  343TIP3   OH222443   3.301   3.107  12.500 -0.4207  0.0679  0.0736
  343TIP3    H122444   3.366   3.139  12.562 -0.0352 -0.2440 -0.1640
  343TIP3    H222445   3.301   3.170  12.428 -0.8330  0.4033  0.3654
  344TIP3   OH222446   5.207   1.563  14.141 -0.3084 -0.0073 -0.7191
  344TIP3    H122447   5.274   1.614  14.094  0.3403 -1.3882 -1.3646
  344TIP3    H222448   5.255   1.519  14.211 -0.3190 -1.6927 -1.7123
  345TIP3   OH222449   2.827   4.248   5.465  0.0080 -0.1616  0.3889
  345TIP3    H122450   2.848   4.201   5.546  0.7621  0.2920  0.4628
  345TIP3    H222451   2.849   4.186   5.395  1.4783  0.2289  0.4693
  346TIP3   OH222452   0.824   6.299  17.063  0.1526 -0.4204 -0.6338
  346TIP3    H122453   0.830   6.306  17.159 -0.2114 -0.0005 -0.6374
  346TIP3    H222454   0.740   6.256  17.048  0.8699 -1.8731 -0.7259
  347TIP3   OH222455   3.554   1.608  13.990 -0.3726  0.2552 -0.2607
  347TIP3    H122456   3.604   1.660  14.053 -0.2993  0.1908 -0.2651
  347TIP3    H222457   3.585   1.638  13.904  0.2029 -0.3043 -0.2595
  348TIP3   OH222458   0.873   2.118   2.227 -0.2627  0.2549  0.1254
  348TIP3    H122459   0.860   2.086   2.316  1.7441 -1.2285 -0.0142
  348TIP3    H222460   0.963   2.151   2.227  0.4548 -1.4891 -1.7404
  349TIP3   OH222461   6.462   4.545  12.611 -0.0119 -0.1883  0.0663
  349TIP3    H122462   6.374   4.508  12.615  0.5918 -1.7955 -0.5850
  349TIP3    H222463   6.520   4.473  12.635  1.0911  1.1760  1.7356
  350TIP3   OH222464   5.433   5.479   3.760  0.1650 -0.3338  0.0266
  350TIP3    H122465   5.348   5.484   3.803  0.3236  2.8306  0.1786
  350TIP3    H222466   5.414   5.495   3.667  0.4933 -0.6860 -0.1028
  351TIP3   OH222467   6.603   5.032  16.487  0.7863 -0.0934  0.6402
  351TIP3    H122468   6.512   5.037  16.457  1.0281  0.2964 -0.0658
  351TIP3    H222469   6.654   5.061  16.411  1.6842 -2.9169  0.0325
  352TIP3   OH222470   1.902   3.776  13.133 -0.0178 -0.1161  0.2107
  352TIP3    H122471   1.810   3.787  13.113  0.1247 -0.2572 -0.5349
  352TIP3    H222472   1.912   3.814  13.221 -0.4843  1.2764 -0.3057
  353TIP3   OH222473   4.241   4.257   1.860 -0.4834  0.2392  0.7884
  353TIP3    H122474   4.221   4.226   1.948 -2.9785  3.1795  1.4404
  353TIP3    H222475   4.254   4.351   1.870 -1.5634  0.7989 -2.0263
  354TIP3   OH222476   4.814   0.592  16.014  0.0783  0.0568  0.7266
  354TIP3    H122477   4.840   0.654  15.946 -0.9550  1.2262  1.3655
  354TIP3    H222478   4.778   0.517  15.966 -0.7051  0.8958 -0.0251
  355TIP3   OH222479   6.206   1.311  14.404  0.2500 -0.0193  0.1015
  355TIP3    H122480   6.176   1.390  14.448  2.0206  0.2956  0.8448
  355TIP3    H222481   6.301   1.308  14.422  0.5002 -1.4597 -1.2381
  356TIP3   OH222482   5.765   2.061  16.677 -0.1469  0.0703  0.0732
  356TIP3    H122483   5.749   2.070  16.771  1.2753 -1.3574  0.4730
  356TIP3    H222484   5.677   2.063  16.639 -1.0306 -2.4185  1.7230
  357TIP3   OH222485   3.854   5.626  17.321 -0.2703  0.0519  0.0862
  357TIP3    H122486   3.916   5.674  17.266  0.2167  0.6768  1.1482
  357TIP3    H222487   3.884   5.535  17.317 -1.4450 -0.3138 -2.2776
  358TIP3   OH222488   4.507   3.505  11.199 -0.2070  0.7252  0.1829
  358TIP3    H122489   4.551   3.590  11.194 -0.5362  1.0235  1.8090
  358TIP3    H222490   4.419   3.522  11.168 -0.7435  1.3750  1.9475
  359TIP3   OH222491   0.523   6.455   4.823  0.7181  0.0116 -0.3932
  359TIP3    H122492   0.540   6.370   4.783 -0.7011  0.1116 -1.2749
  359TIP3    H222493   0.481   6.435   4.906 -1.9797 -0.2110 -1.7029
  360TIP3   OH222494   3.094   0.911   1.057  0.0637 -0.3004 -0.4120
  360TIP3    H122495   3.181   0.899   1.017 -0.2123 -1.2133 -0.7631
  360TIP3    H222496   3.043   0.836   1.027 -1.2356  0.8540 -1.2193
  361TIP3   OH222497   1.793   1.457   0.707  0.3446 -0.0047 -0.1652
  361TIP3    H122498   1.867   1.396   0.715 -0.3573 -1.4892 -3.3235
  361TIP3    H222499   1.834   1.542   0.693  1.6015 -0.9008 -2.5163
  362TIP3   OH222500   2.947   6.449   3.125  0.3585 -0.5635  0.3414
  362TIP3    H122501   2.936   6.433   3.219 -1.1908 -0.2096  0.2519
  362TIP3    H222502   2.861   6.481   3.097  0.7647 -0.8160 -1.2316
  363TIP3   OH222503   2.785   6.631   1.984 -0.1660 -0.2705 -0.4630
  363TIP3    H122504   2.707   6.576   1.993 -0.5171  0.3249  0.2805
  363TIP3    H222505   2.789   6.652   1.890 -0.4247 -0.9768 -0.6380
  364TIP3   OH222506   1.008   5.105   1.254 -0.6495  0.7846  0.2055
  364TIP3    H122507   0.916   5.088   1.234 -0.4259  0.9115 -1.0115
  364TIP3    H222508   1.054   5.090   1.171  0.5894 -0.4371  1.0569
  365TIP3   OH222509   1.638   1.274   3.376 -0.3860 -0.1361 -0.4944
  365TIP3    H122510   1.569   1.339   3.361 -0.3681 -0.3637 -1.6011
  365TIP3    H222511   1.706   1.322   3.424 -1.3522  0.0526  0.7311
  366TIP3   OH222512   1.939   6.682  16.780  0.0291  0.2763  0.1286
  366TIP3    H122513   1.989   6.756  16.815 -0.4613  0.4159  0.5519
  366TIP3    H222514   2.005   6.618  16.754  0.5750  1.6738 -2.2174
  367TIP3   OH222515   2.277   3.395  12.269 -0.1511 -0.1829  0.1184
  367TIP3    H122516   2.232   3.340  12.204  1.1561  0.8031 -1.7084
  367TIP3    H222517   2.254   3.356  12.353 -0.6930 -2.4366 -1.0006
  368TIP3   OH222518   5.193   4.726   2.439  0.0796 -0.9110  0.1442
  368TIP3    H122519   5.145   4.777   2.505  0.3311 -0.6754  0.1476
  368TIP3    H222520   5.209   4.642   2.482  1.0947 -0.4267  0.7707
  369TIP3   OH222521   1.177   1.865  13.007 -0.0539 -0.2255 -0.0326
  369TIP3    H122522   1.082   1.872  13.006 -0.0302  0.3330 -2.4570
  369TIP3    H222523   1.208   1.950  12.976  1.4180  0.6004  3.1861
  370TIP3   OH222524   2.403   1.928   3.912  0.1596 -0.1056  0.1215
  370TIP3    H122525   2.338   1.919   3.843 -0.9305  1.7595  0.8375
  370TIP3    H222526   2.484   1.950   3.866 -0.8995  2.7207 -0.5491
  371TIP3   OH222527   0.029   3.262  14.240 -0.5580 -0.0785  0.3023
  371TIP3    H122528   0.040   3.183  14.187  1.6047 -0.1392  0.7946
  371TIP3    H222529   0.004   3.230  14.327 -0.6838 -0.1501  0.2409
  372TIP3   OH222530   5.918   0.159  15.817  0.4664  0.1650  0.0845
  372TIP3    H122531   5.920   0.075  15.771  0.5521  1.2222 -1.9457
  372TIP3    H222532   5.826   0.170  15.841  0.6440 -1.0296  1.4668
  373TIP3   OH222533   2.229   4.423   4.053 -0.1576  0.1394 -0.5878
  373TIP3    H122534   2.164   4.464   3.997 -1.0111 -0.3082  0.0572
  373TIP3    H222535   2.276   4.363   3.995 -0.0517  0.7368 -1.1381
  374TIP3   OH222536   0.745   2.109  14.746  0.0596  0.0699 -0.4448
  374TIP3    H122537   0.810   2.110  14.675  0.6509 -0.5155  0.0705
  374TIP3    H222538   0.661   2.100  14.702  0.3753  0.3130 -1.1014
  375TIP3   OH222539   4.220   1.565   0.829 -0.4151  0.0314 -0.1580
  375TIP3    H122540   4.262   1.571   0.915 -1.6045 -1.2249  0.5571
  375TIP3    H222541   4.283   1.515   0.776  1.3945  2.7894 -0.8058
  376TIP3   OH222542   2.967   1.362  16.084 -0.4462 -0.1543  0.0059
  376TIP3    H122543   2.878   1.359  16.118 -0.1436  0.6002  0.9230
  376TIP3    H222544   2.959   1.336  15.993 -1.4917 -0.8478  0.2731
  377TIP3   OH222545   2.036   3.605   4.312  0.8938  0.3488 -1.3233
  377TIP3    H122546   1.948   3.576   4.288  0.9747 -0.4739 -0.6645
  377TIP3    H222547   2.028   3.635   4.402  1.7588 -2.0769 -0.3572
  378TIP3   OH222548   5.850   4.735   2.483 -0.3506 -0.3824 -0.1571
  378TIP3    H122549   5.928   4.782   2.451 -0.7227  0.1397 -0.3066
  378TIP3    H222550   5.850   4.653   2.433  1.4712 -1.5446  1.5651
  379TIP3   OH222551   1.532   5.594   5.679 -0.4829  0.4905 -0.3230
  379TIP3    H122552   1.461   5.613   5.741 -0.4106 -1.4395  0.4054
  379TIP3    H222553   1.612   5.610   5.729 -0.4249 -0.7670  0.0128
  380TIP3   OH222554   5.812   6.540  15.045  0.2817  0.2047 -0.3906
  380TIP3    H122555   5.747   6.608  15.063 -0.6381 -0.4116 -1.2978
  380TIP3    H222556   5.887   6.563  15.101  0.0868  2.0765 -0.8350
  381TIP3   OH222557   1.431   2.781   1.332  0.1692 -0.2587  0.1293
  381TIP3    H122558   1.521   2.812   1.336 -0.3136  1.0975  1.3345
  381TIP3    H222559   1.392   2.829   1.258  0.0922  0.1410  0.4273
  382TIP3   OH222560   5.850   3.135   2.522  0.2266 -0.5262  0.2247
  382TIP3    H122561   5.782   3.124   2.456 -0.1762 -2.6217  0.9270
  382TIP3    H222562   5.805   3.179   2.595  0.0409 -0.4701  0.0762
  383TIP3   OH222563   0.930   3.494  16.534  0.4171 -0.1591 -0.0427
  383TIP3    H122564   0.990   3.480  16.460 -1.7884  1.4156 -2.2748
  383TIP3    H222565   0.933   3.411  16.583  3.5191 -0.5099 -0.6355
  384TIP3   OH222566   5.185   0.556   4.577 -0.0948 -0.6131  0.5478
  384TIP3    H122567   5.240   0.632   4.596  0.9308 -0.4507 -2.5425
  384TIP3    H222568   5.097   0.592   4.564  0.1859 -0.0737  0.0947
  385TIP3   OH222569   4.967   2.004  14.516  0.1977  0.3844 -0.5339
  385TIP3    H122570   4.878   2.027  14.487 -0.1605 -0.9873 -0.6178
  385TIP3    H222571   5.024   2.036  14.446 -0.2668  0.9063 -0.6844
  386TIP3   OH222572   1.355   5.050   3.973  0.3020 -0.2860 -0.0134
  386TIP3    H122573   1.376   5.050   4.066  0.9979  1.5831 -0.1147
  386TIP3    H222574   1.421   4.994   3.933  0.0023 -1.0963  0.5902
  387TIP3   OH222575   0.014   0.736  16.768 -0.1118  0.2370 -0.1655
  387TIP3    H122576   0.063   0.753  16.688 -0.5668  2.3567 -0.0305
  387TIP3    H222577   0.066   0.668  16.813 -0.1711 -1.4596 -2.4745
  388TIP3   OH222578   3.826   2.790  11.117 -0.4672 -0.6393 -0.1854
  388TIP3    H122579   3.887   2.716  11.122 -0.9154 -0.9400  1.5388
  388TIP3    H222580   3.840   2.838  11.199 -0.2347  1.1786 -1.2485
  389TIP3   OH222581   1.419   6.148   2.961  0.0705  0.2528 -0.0643
  389TIP3    H122582   1.329   6.125   2.985  0.4858  0.7658  2.2556
  389TIP3    H222583   1.413   6.238   2.929 -0.0941  0.8799  1.6124
  390TIP3   OH222584   1.134   0.856   3.339 -0.2357 -0.1945  0.6719
  390TIP3    H122585   1.040   0.870   3.350 -0.2105 -0.3943  1.1532
  390TIP3    H222586   1.165   0.827   3.425  0.1050 -1.0111  0.2940
  391TIP3   OH222587   1.815   3.995   3.274 -0.1285 -0.2187  0.1175
  391TIP3    H122588   1.776   4.061   3.217 -0.9689 -0.1682  0.7382
  391TIP3    H222589   1.788   4.019   3.362 -1.2330 -1.9030  0.2899
  392TIP3   OH222590   6.121   1.541   6.254  0.0578  0.6132  0.7255
  392TIP3    H122591   6.198   1.593   6.277  0.0966  0.7453  0.2937
  392TIP3    H222592   6.060   1.555   6.327  0.4331  0.5255  1.0559
  393TIP3   OH222593   6.295   3.312  11.368  0.0092 -0.1754  0.2597
  393TIP3    H122594   6.216   3.360  11.345 -1.2377 -0.9344  2.6152
  393TIP3    H222595   6.364   3.379  11.369 -1.0898  0.9904  0.5998
  394TIP3   OH222596   1.334   4.017  14.798  0.2188  0.1986  0.3971
  394TIP3    H122597   1.253   3.995  14.753  0.5339  0.5719 -0.3711
  394TIP3    H222598   1.397   3.950  14.769  0.7443  1.1247 -0.6807
  395TIP3   OH222599   6.070   5.519   1.880  0.2735  0.3602  0.3122
  395TIP3    H122600   6.035   5.499   1.967 -0.1385 -0.8049 -0.1021
  395TIP3    H222601   6.036   5.607   1.861  0.7147  0.8148  1.4843
  396TIP3   OH222602   3.071   2.537   1.320  0.3994  0.1118  0.1412
  396TIP3    H122603   3.118   2.617   1.345  1.1429 -0.1254 -0.4593
  396TIP3    H222604   2.988   2.542   1.368  1.3320  0.1683  1.8123
  397TIP3   OH222605   3.484   2.309   1.400 -0.0126 -0.0128  0.6605
  397TIP3    H122606   3.450   2.394   1.374 -0.9668 -0.3170  0.8710
  397TIP3    H222607   3.410   2.266   1.443  0.2254 -1.2314 -0.1000
  398TIP3   OH222608   1.334   3.704   6.126 -0.2229  0.5593  0.3004
  398TIP3    H122609   1.259   3.645   6.129 -0.8809  1.1846 -1.8702
  398TIP3    H222610   1.407   3.648   6.099 -0.6382  0.5366 -0.8073
  399TIP3   OH222611   4.324   3.427  16.964 -0.0313 -0.1353  0.5032
  399TIP3    H122612   4.386   3.365  16.926 -1.0551 -0.1962 -1.1828
  399TIP3    H222613   4.359   3.513  16.941  0.6792 -0.1013  1.6665
  400TIP3   OH222614   1.036   4.694  15.707 -0.2270  0.0965  0.1179
  400TIP3    H122615   1.075   4.730  15.628  0.0456  0.4442  0.4076
  400TIP3    H222616   1.073   4.747  15.778  0.7834 -1.2113  0.6212
  401TIP3   OH222617   3.185   2.341   0.359  0.0215 -0.1461 -0.2264
  401TIP3    H122618   3.212   2.346   0.268 -0.2363  1.2843 -0.2599
  401TIP3    H222619   3.247   2.282   0.401 -0.7103 -1.9760 -1.6002
  402TIP3   OH222620   4.486   3.481   0.679  0.1920  0.1314 -0.6790
  402TIP3    H122621   4.401   3.451   0.648  0.2075 -1.2067  0.4390
  402TIP3    H222622   4.539   3.490   0.600 -0.2589 -1.4855 -1.1979
  403TIP3   OH222623   4.491   2.583  12.176  0.4438  0.0180  0.1459
  403TIP3    H122624   4.535   2.545  12.252  0.3681 -1.2932 -0.4339
  403TIP3    H222625   4.520   2.530  12.102  0.7270  1.4404 -0.8014
  404TIP3   OH222626   0.800   2.435  11.401  0.3439  0.2626  0.6520
  404TIP3    H122627   0.774   2.370  11.336 -0.0558 -1.5534  2.5062
  404TIP3    H222628   0.799   2.518  11.354 -1.8200 -0.6898 -1.1826
  405TIP3   OH222629   6.548   2.102   1.936  0.1670  0.3714 -0.1766
  405TIP3    H122630   6.568   2.050   1.858 -1.7640 -0.3633 -0.2478
  405TIP3    H222631   6.603   2.179   1.929  1.2856 -0.5020 -1.3762
  406TIP3   OH222632   3.230   3.827  12.761  0.7341  1.0884  0.3460
  406TIP3    H122633   3.260   3.915  12.785  0.1969  1.3857 -0.0369
  406TIP3    H222634   3.134   3.836  12.755  0.7361  0.6613 -0.4164
  407TIP3   OH222635   0.385   0.261  16.133  0.3323  0.0899  0.7675
  407TIP3    H122636   0.423   0.202  16.068 -0.4330  0.9347 -0.5103
  407TIP3    H222637   0.406   0.348  16.101 -1.0852  0.5458  0.9860
  408TIP3   OH222638   3.237   3.359  12.335  0.3794  0.2500  0.3959
  408TIP3    H122639   3.319   3.390  12.296 -0.5955  1.3198 -0.9340
  408TIP3    H222640   3.189   3.320  12.261 -1.1560  1.5285  0.6689
  409TIP3   OH222641   1.022   2.695  14.197 -0.2358  0.5305 -0.2139
  409TIP3    H122642   1.000   2.611  14.236  0.9103  0.9077  1.3743
  409TIP3    H222643   1.024   2.756  14.272  2.7917  1.1544 -0.6654
  410TIP3   OH222644   0.876   5.651  12.385  0.2804  0.2548 -0.2066
  410TIP3    H122645   0.882   5.557  12.404  1.4358  0.4467  0.4849
  410TIP3    H222646   0.799   5.659  12.329 -0.8363 -0.8908  1.0976
  411TIP3   OH222647   4.454   2.446   3.241 -0.0931  0.1861 -0.0340
  411TIP3    H122648   4.405   2.412   3.166 -1.0893 -0.0262  0.7053
  411TIP3    H222649   4.524   2.499   3.201 -0.2445 -0.4047 -1.1185
  412TIP3   OH222650   6.692   1.164   3.299  0.0654  0.1050  0.0938
  412TIP3    H122651   6.668   1.072   3.308 -0.3926  0.2034 -0.0788
  412TIP3    H222652   6.682   1.182   3.205 -0.4226  0.4827  0.2181
  413TIP3   OH222653   0.232   6.148   1.460  0.3424 -0.2867  0.8001
  413TIP3    H122654   0.157   6.196   1.496  1.9009  1.5983  1.7327
  413TIP3    H222655   0.218   6.058   1.488 -1.0858  0.2028  1.7930
  414TIP3   OH222656   1.507   5.812   5.418 -0.1492 -0.5412 -0.1030
  414TIP3    H122657   1.527   5.834   5.508 -1.0485  1.0363 -0.2545
  414TIP3    H222658   1.590   5.822   5.371 -0.1669  0.8817  0.1551
  415TIP3   OH222659   1.010   4.484   0.647  0.2176  0.4623 -0.2773
  415TIP3    H122660   0.936   4.544   0.640 -0.1029  0.0901 -0.1040
  415TIP3    H222661   0.980   4.403   0.605  1.1432  0.8668 -1.7802
  416TIP3   OH222662   0.822   5.919   3.919  0.1773  0.3168 -0.2137
  416TIP3    H122663   0.829   5.824   3.907 -1.4206  0.0462  0.6463
  416TIP3    H222664   0.913   5.950   3.921  0.7348 -0.8315 -2.8629
  417TIP3   OH222665   1.397   1.172   3.246  0.0842  0.2564 -0.1073
  417TIP3    H122666   1.314   1.152   3.291 -0.1183 -2.4348 -1.4412
  417TIP3    H222667   1.463   1.168   3.316 -0.6263 -0.2162  0.5666
  418TIP3   OH222668   1.949   1.618   3.605 -0.3083  0.9516  0.1718
  418TIP3    H122669   2.037   1.580   3.602 -0.8864 -0.4195 -2.0988
  418TIP3    H222670   1.925   1.615   3.697  1.2590 -0.5505  0.5854
  419TIP3   OH222671   3.111   3.333  13.099 -1.0244 -0.3745 -0.1252
  419TIP3    H122672   3.108   3.393  13.174 -0.3912 -0.2166 -0.2244
  419TIP3    H222673   3.190   3.358  13.051 -1.7552 -0.0527 -1.2004
  420TIP3   OH222674   6.697   0.488  14.564  0.2461  0.3490  0.2508
  420TIP3    H122675   6.754   0.530  14.628  1.2648  2.0074 -1.6671
  420TIP3    H222676   6.756   0.453  14.498 -0.8082 -1.0043 -0.0239
  421TIP3   OH222677   5.719   6.692  16.864 -0.2521  0.2590  0.4733
  421TIP3    H122678   5.637   6.705  16.913 -0.3809 -0.8557  0.5725
  421TIP3    H222679   5.749   6.605  16.890  0.1657  0.0235 -0.7258
  422TIP3   OH222680   3.803   5.571   1.936 -0.1032 -0.4714 -0.1498
  422TIP3    H122681   3.769   5.629   2.004 -0.6423 -0.8158 -0.1203
  422TIP3    H222682   3.895   5.559   1.959 -0.3875 -0.9540  0.7870
  423TIP3   OH222683   1.198   2.157   2.782  0.3058 -0.5984 -0.1653
  423TIP3    H122684   1.105   2.175   2.799  0.3285 -0.7875  0.1561
  423TIP3    H222685   1.197   2.080   2.726  0.3271 -1.7664  1.4027
  424TIP3   OH222686   2.423   0.307  16.782 -0.0725 -0.5445 -0.1669
  424TIP3    H122687   2.517   0.321  16.782 -0.0817 -0.2533  1.7587
  424TIP3    H222688   2.387   0.385  16.825 -1.0767 -1.2605  0.3302
  425TIP3   OH222689   2.811   4.305   4.701 -0.3176  0.2467 -0.0545
  425TIP3    H122690   2.815   4.223   4.651 -0.2089  0.6272 -0.6905
  425TIP3    H222691   2.880   4.297   4.767  0.3752  0.2342 -0.7670
  426TIP3   OH222692   6.179   3.242   4.908  0.0231  0.3327  0.9525
  426TIP3    H122693   6.140   3.281   4.829  0.5515 -0.3821  0.3246
  426TIP3    H222694   6.272   3.264   4.901  0.5009 -1.7181  0.1320
  427TIP3   OH222695   1.550   4.097  12.056 -0.8956  0.3587 -0.6839
  427TIP3    H122696   1.516   4.104  11.967 -1.5546  0.1332 -0.4560
  427TIP3    H222697   1.594   4.181  12.071 -1.1670  0.5730 -1.0630
  428TIP3   OH222698   1.986   5.393   3.204 -0.1395  0.1194  0.5194
  428TIP3    H122699   1.940   5.353   3.278  1.3636  1.4932  2.2973
  428TIP3    H222700   1.990   5.486   3.225  0.6610  0.5070 -1.1401
  429TIP3   OH222701   6.193   5.522   1.032 -0.2592 -0.0799  0.4385
  429TIP3    H122702   6.268   5.489   0.982 -0.2733 -1.2513  1.1636
  429TIP3    H222703   6.147   5.444   1.061 -1.0268  0.6076  1.1161
  430TIP3   OH222704   6.207   5.530  14.033 -0.1222  0.4103  0.5952
  430TIP3    H122705   6.218   5.558  13.942 -1.2922  0.1085  0.3362
  430TIP3    H222706   6.208   5.434  14.028 -0.0515  0.3938  0.9204
  431TIP3   OH222707   3.401   2.784   4.032 -0.1594  0.1224 -0.3016
  431TIP3    H122708   3.311   2.804   4.008 -0.2659  2.2515  1.5126
  431TIP3    H222709   3.393   2.729   4.110  0.1751 -1.9482 -1.6498
  432TIP3   OH222710   1.395   6.645   3.291  0.5617 -0.0946  0.1098
  432TIP3    H122711   1.470   6.596   3.258  1.7503 -0.1041  2.5755
  432TIP3    H222712   1.380   6.713   3.225  2.9381  0.0837 -0.3355
  433TIP3   OH222713   5.014   4.884  17.111  0.3811  0.4055  0.2691
  433TIP3    H122714   4.948   4.929  17.163  1.1665  1.0477  0.7472
  433TIP3    H222715   5.030   4.802  17.158  0.1621  0.4045  0.3407
  434TIP3   OH222716   4.494   1.152  14.712 -0.1075 -0.4087  0.0574
  434TIP3    H122717   4.533   1.233  14.679 -0.8203 -0.1902 -0.2698
  434TIP3    H222718   4.564   1.088  14.706 -0.0212 -0.2167 -1.2819
  435TIP3   OH222719   5.039   5.768   2.574 -0.0421  0.4507 -0.3710
  435TIP3    H122720   5.067   5.678   2.554  0.1914  0.8302 -1.8628
  435TIP3    H222721   5.105   5.800   2.636  0.5706 -0.0128 -0.7670
  436TIP3   OH222722   2.855   5.641  15.229  0.5936 -0.4494 -0.1278
  436TIP3    H122723   2.803   5.660  15.150  1.2236 -0.9323 -0.6600
  436TIP3    H222724   2.939   5.683  15.213  0.4771  0.1080  0.6292
  437TIP3   OH222725   5.509   0.575  14.047 -0.0433 -0.0286  0.2992
  437TIP3    H122726   5.492   0.495  14.096  0.9940  0.4944  1.5620
  437TIP3    H222727   5.426   0.595  14.003 -0.5979 -1.2327  0.7596
  438TIP3   OH222728   3.068   4.026   0.830  0.0031  0.0699  0.6477
  438TIP3    H122729   3.159   4.040   0.805 -0.1749  1.0670  0.4764
  438TIP3    H222730   3.035   4.114   0.850 -1.6786  0.1743 -1.9847
  439TIP3   OH222731   6.158   0.854   5.476 -0.0183 -0.0940 -0.4417
  439TIP3    H122732   6.089   0.811   5.425 -2.9978  3.6964 -0.1038
  439TIP3    H222733   6.218   0.891   5.411 -1.5584  1.2991 -1.1518
  440TIP3   OH222734   5.497   0.492   1.401  0.4493  0.0613  0.1918
  440TIP3    H122735   5.566   0.460   1.459  0.9711  0.6365 -0.1017
  440TIP3    H222736   5.417   0.483   1.453  0.6779 -1.0031  0.3806
  441TIP3   OH222737   3.486   6.071  16.204  0.3525 -0.3646 -0.3897
  441TIP3    H122738   3.521   5.982  16.207 -0.5012 -0.6838  0.5402
  441TIP3    H222739   3.520   6.113  16.283  0.4213  0.0151 -0.6161
  442TIP3   OH222740   4.970   1.805  13.297  0.2630  0.0840 -0.7593
  442TIP3    H122741   5.026   1.736  13.263 -0.0137 -0.0868 -0.8655
  442TIP3    H222742   4.941   1.773  13.382 -0.9951 -0.5484 -1.4132
  443TIP3   OH222743   3.955   0.054  13.359  0.5214 -0.6963  0.1053
  443TIP3    H122744   3.961   0.145  13.329 -0.5931 -0.4138  0.6720
  443TIP3    H222745   3.970   0.002  13.280 -0.1441  0.0065 -0.5058
  444TIP3   OH222746   0.398   3.781   1.582 -0.4205 -0.4075  0.1693
  444TIP3    H122747   0.318   3.810   1.537 -1.2726 -0.7276  1.4288
  444TIP3    H222748   0.429   3.707   1.530 -1.4123 -0.8015  0.1111
  445TIP3   OH222749   1.075   2.056   4.354  0.0321 -0.1006 -0.6515
  445TIP3    H122750   1.103   2.120   4.289  0.6447 -0.1638 -0.4633
  445TIP3    H222751   0.990   2.026   4.323 -0.5578  1.2527 -0.4096
  446TIP3   OH222752   2.087   2.209  14.986  0.1798  0.1000  0.1947
  446TIP3    H122753   2.067   2.134  14.930 -2.1605 -1.3162  2.6555
  446TIP3    H222754   2.162   2.179  15.038 -0.9266 -0.7568  1.3726
  447TIP3   OH222755   4.031   2.557  13.924  0.1507 -0.5476  0.2768
  447TIP3    H122756   4.112   2.540  13.876  1.8188 -3.4715  3.6986
  447TIP3    H222757   4.054   2.628  13.985 -0.5343  0.0186 -0.1084
  448TIP3   OH222758   4.891   1.180  16.130 -0.3766  0.1862  0.1881
  448TIP3    H122759   4.853   1.210  16.047  1.6903 -2.2559 -1.8227
  448TIP3    H222760   4.936   1.257  16.165 -0.7361  1.1029 -1.2762
  449TIP3   OH222761   1.807   3.243   3.590 -0.4059 -0.2402 -0.2982
  449TIP3    H122762   1.813   3.332   3.556  1.4605  0.2296  1.1425
  449TIP3    H222763   1.774   3.192   3.516 -1.5786  1.6296 -1.1301
  450TIP3   OH222764   3.199   1.959   3.562  0.1325 -0.4482 -0.3788
  450TIP3    H122765   3.273   1.900   3.545  0.4156 -0.0669 -0.4945
  450TIP3    H222766   3.126   1.901   3.581  0.6007 -0.8235  0.3145
  451TIP3   OH222767   3.321   5.550   1.713 -0.2970  0.7697  0.1789
  451TIP3    H122768   3.341   5.576   1.803 -1.6116  0.0840  0.6916
  451TIP3    H222769   3.382   5.477   1.696  0.1604  1.0951  0.3959
  452TIP3   OH222770   3.628   5.629   0.837  0.0220 -0.1596  0.1625
  452TIP3    H122771   3.595   5.561   0.778 -1.0996 -0.4549  1.0989
  452TIP3    H222772   3.580   5.708   0.812 -0.2173 -0.2092  0.4654
  453TIP3   OH222773   2.948   1.086   6.094 -0.8185  0.7695 -0.0563
  453TIP3    H122774   2.984   1.077   6.183  0.6843 -0.4075 -0.7193
  453TIP3    H222775   2.986   1.167   6.061  0.5114  0.0658 -0.3746
  454TIP3   OH222776   2.794   5.739  17.079  0.7851  0.5455  0.1481
  454TIP3    H122777   2.714   5.731  17.131  0.6049  0.4944 -0.1322
  454TIP3    H222778   2.860   5.688  17.126  0.1639 -1.0297 -0.6122
  455TIP3   OH222779   1.180   4.231   4.873 -0.4483 -0.1762 -0.2618
  455TIP3    H122780   1.094   4.273   4.874 -0.1280  0.4876  0.2773
  455TIP3    H222781   1.180   4.176   4.951 -0.8374 -1.1512 -0.9244
  456TIP3   OH222782   3.707   2.549   4.880 -0.2129 -0.5102 -0.8292
  456TIP3    H122783   3.773   2.537   4.948  0.7105  1.2851 -1.3588
  456TIP3    H222784   3.657   2.467   4.882 -0.3233 -0.4808  2.0673
  457TIP3   OH222785   2.204   3.524   5.306  0.1497  0.4387  0.0756
  457TIP3    H122786   2.206   3.599   5.366 -0.1956 -0.0029  0.6492
  457TIP3    H222787   2.130   3.471   5.336 -0.1628  0.3174 -0.8813
  458TIP3   OH222788   4.335   0.149   2.468  0.0371  0.4135  0.0131
  458TIP3    H122789   4.253   0.190   2.439 -0.6296 -0.9833 -0.1582
  458TIP3    H222790   4.379   0.124   2.387  0.2840  0.4879  0.1228
  459TIP3   OH222791   1.293   3.626  16.967  0.2196  0.4757 -0.3250
  459TIP3    H122792   1.359   3.562  16.942 -0.9879 -1.3312  0.9116
  459TIP3    H222793   1.227   3.620  16.898 -0.2527 -0.1797  0.1753
  460TIP3   OH222794   2.484   5.727  15.226 -0.3177 -0.5811 -0.7048
  460TIP3    H122795   2.528   5.812  15.222  1.5203 -1.4841 -0.6001
  460TIP3    H222796   2.391   5.748  15.213 -0.4389  1.8656  2.6630
  461TIP3   OH222797   2.654   3.678  16.553  0.1078  0.1729  0.5270
  461TIP3    H122798   2.729   3.722  16.592 -0.3355  0.5861  0.9429
  461TIP3    H222799   2.643   3.719  16.467  1.1941 -0.8594 -0.1176
  462TIP3   OH222800   2.929   3.607   3.288 -0.0718 -0.1861  0.3287
  462TIP3    H122801   3.007   3.553   3.302  0.7104  0.5949 -0.8675
  462TIP3    H222802   2.892   3.619   3.375  0.2812 -1.8191  0.7403
  463TIP3   OH222803   1.356   4.709  13.669  0.0782 -0.4358  0.3188
  463TIP3    H122804   1.413   4.661  13.728 -0.7004 -0.4235  1.1005
  463TIP3    H222805   1.289   4.747  13.726  0.2504  0.9617 -0.3636
  464TIP3   OH222806   5.041   0.526   1.086  0.4918  0.0719  0.2477
  464TIP3    H122807   5.092   0.470   1.145  0.9222 -2.0175 -1.9306
  464TIP3    H222808   4.954   0.531   1.127  0.5834 -1.8779  0.7773
  465TIP3   OH222809   1.280   5.801   0.863  0.1976  0.6192  0.2982
  465TIP3    H122810   1.285   5.786   0.958  4.2113 -0.9581  0.0355
  465TIP3    H222811   1.332   5.880   0.848  0.3195  0.3746 -0.6414
  466TIP3   OH222812   0.270   1.132   1.919 -0.7591  0.0717 -0.1292
  466TIP3    H122813   0.197   1.194   1.921  0.1618  1.1942  0.9712
  466TIP3    H222814   0.281   1.106   2.011  0.0694 -0.2612 -0.3150
  467TIP3   OH222815   4.550   6.109  13.413 -0.4745  0.0907  0.0891
  467TIP3    H122816   4.499   6.043  13.460  0.4392 -0.1656  0.7636
  467TIP3    H222817   4.510   6.193  13.437 -1.7013 -0.1909 -0.8462
  468TIP3   OH222818   6.559   4.105   5.013  0.0617  0.1365  0.0322
  468TIP3    H122819   6.540   4.015   5.042  1.1660 -0.4378 -0.9313
  468TIP3    H222820   6.505   4.160   5.069 -0.6604 -1.1346  0.6295
  469TIP3   OH222821   3.026   2.620  15.056 -0.3086 -0.3290 -0.1868
  469TIP3    H122822   3.009   2.587  15.144 -1.0560 -1.4543 -0.7395
  469TIP3    H222823   3.087   2.557  15.018 -2.1902 -1.4590 -1.4560
  470TIP3   OH222824   5.702   0.747   6.860 -0.7446  0.2784 -0.6117
  470TIP3    H122825   5.704   0.655   6.885 -1.1784 -0.0462 -1.7104
  470TIP3    H222826   5.609   0.767   6.848 -0.6428  0.8093 -0.5693
  471TIP3   OH222827   3.341   4.169  13.025  0.0750  0.0343 -0.1091
  471TIP3    H122828   3.344   4.147  12.932 -2.2600 -2.2726  0.2478
  471TIP3    H222829   3.349   4.264  13.027  1.0221  0.0871 -2.5775
  472TIP3   OH222830   0.627   2.585   3.731  0.4128 -0.4125 -0.7546
  472TIP3    H122831   0.585   2.526   3.794  1.5937 -2.0588 -1.4302
  472TIP3    H222832   0.661   2.656   3.785  0.1313 -1.0294  0.2781
  473TIP3   OH222833   6.634   2.150   1.220 -1.1716  0.0216  0.4427
  473TIP3    H122834   6.646   2.139   1.126  0.9061  1.3161  0.4981
  473TIP3    H222835   6.631   2.060   1.254  0.3143 -0.4646 -0.6219
  474TIP3   OH222836   3.726   3.739   4.981 -0.0127 -0.1928 -0.2460
  474TIP3    H122837   3.770   3.667   4.935  0.1595 -0.3469  0.1563
  474TIP3    H222838   3.691   3.793   4.911  2.2172  0.8274 -0.6789
  475TIP3   OH222839   3.631   0.400   1.805 -0.3829 -0.5089  0.1611
  475TIP3    H122840   3.628   0.372   1.896 -0.2131  0.9875  0.6550
  475TIP3    H222841   3.614   0.494   1.808  0.6745 -0.2349 -1.2412
  476TIP3   OH222842   4.674   2.158  16.875 -0.1630  0.0898  0.3130
  476TIP3    H122843   4.766   2.185  16.871 -0.2070  0.2461 -3.7247
  476TIP3    H222844   4.676   2.063  16.870 -0.1845  0.1470 -1.1198
  477TIP3   OH222845   4.950   4.290   5.829 -0.1660 -0.1203  0.3307
  477TIP3    H122846   5.042   4.307   5.808 -0.4168  0.8219 -0.0559
  477TIP3    H222847   4.936   4.336   5.912 -0.5858  0.7304 -0.2007
  478TIP3   OH222848   0.239   0.961   4.561  0.1618  0.3929  0.2214
  478TIP3    H122849   0.182   0.892   4.597 -0.2081 -0.5778 -2.0852
  478TIP3    H222850   0.178   1.026   4.526  0.5217  1.3524  1.3028
  479TIP3   OH222851   5.434   3.907   3.326  0.1585  0.1069 -0.4841
  479TIP3    H122852   5.344   3.923   3.298  0.1354 -0.4729 -0.7616
  479TIP3    H222853   5.436   3.933   3.418 -0.2012  0.4403 -0.5698
  480TIP3   OH222854   1.585   1.925   6.424  0.1853 -0.1786  0.4023
  480TIP3    H122855   1.592   1.880   6.340  0.3003  1.0122 -0.2388
  480TIP3    H222856   1.666   1.902   6.470  0.3423 -0.4532 -0.0001
  481TIP3   OH222857   3.209   1.328  12.532 -0.3277 -0.1581  0.4227
  481TIP3    H122858   3.208   1.410  12.581 -2.3865  0.2234 -0.1612
  481TIP3    H222859   3.251   1.350  12.449 -1.3236  0.4675  0.0652
  482TIP3   OH222860   1.995   1.679   2.505 -0.0316  0.4825  0.4552
  482TIP3    H122861   2.046   1.638   2.574  1.3210  0.6307 -0.4127
  482TIP3    H222862   2.022   1.771   2.505 -0.8615  0.7392  0.4638
  483TIP3   OH222863   3.534   4.271   2.812  0.1967  0.8067  0.5947
  483TIP3    H122864   3.597   4.317   2.867  1.6487  1.1020 -1.2352
  483TIP3    H222865   3.570   4.183   2.802 -0.8621  0.2570  1.3338
  484TIP3   OH222866   5.329   3.963   5.536 -0.2598  0.3256 -0.4624
  484TIP3    H122867   5.398   3.955   5.471  0.1178 -1.9500  0.1116
  484TIP3    H222868   5.339   3.885   5.591 -1.3630  1.4977  1.5385
  485TIP3   OH222869   2.613   0.957  11.957 -0.2073 -0.2340  0.1865
  485TIP3    H122870   2.523   0.987  11.944  0.0870  0.1440 -1.1151
  485TIP3    H222871   2.645   0.939  11.869  1.8745  2.2458  0.3444
  486TIP3   OH222872   2.338   5.319  17.225 -0.0301  0.1195 -0.3575
  486TIP3    H122873   2.249   5.285  17.232  0.3975 -0.8280  0.6814
  486TIP3    H222874   2.383   5.258  17.167  0.4704 -0.5410  0.7108
  487TIP3   OH222875   0.905   3.102   3.354  0.1693 -0.2125  0.1892
  487TIP3    H122876   0.826   3.122   3.305  0.1875  0.3481  0.3900
  487TIP3    H222877   0.901   3.007   3.367  0.3793 -0.4560 -1.2627
  488TIP3   OH222878   6.214   2.418  12.596  0.5801  0.0960  1.4182
  488TIP3    H122879   6.141   2.390  12.652 -0.2422  2.2900  1.5340
  488TIP3    H222880   6.188   2.391  12.508 -0.9459  1.8097  1.2957
  489TIP3   OH222881   5.875   0.937   4.870 -0.7034  0.0752  0.6010
  489TIP3    H122882   5.799   0.979   4.911 -0.0482  0.7602  1.1516
  489TIP3    H222883   5.921   1.008   4.825  0.9724  0.2210  2.3921
  490TIP3   OH222884   2.859   2.564  16.959 -0.1340  0.3559  0.1310
  490TIP3    H122885   2.827   2.640  17.007 -0.0628  0.4984 -0.0508
  490TIP3    H222886   2.955   2.569  16.967 -0.0249  1.3568 -1.5336
  491TIP3   OH222887   0.200   2.005   1.756  0.0745  0.8711  0.2963
  491TIP3    H122888   0.255   2.048   1.689  0.5329  0.6208  0.5103
  491TIP3    H222889   0.260   1.948   1.803 -0.4004  0.5077  0.4618
  492TIP3   OH222890   2.957   4.646  12.025 -0.3433 -0.2544  0.3916
  492TIP3    H122891   2.965   4.679  11.935 -0.4916 -1.7463 -0.2000
  492TIP3    H222892   3.045   4.659  12.063  0.2205 -1.2050 -0.5503
  493TIP3   OH222893   6.403   2.356  12.930 -0.1052  0.0979 -0.0377
  493TIP3    H122894   6.310   2.376  12.914 -0.1769 -0.2805 -0.0970
  493TIP3    H222895   6.427   2.296  12.860  0.6895  1.6046 -1.1031
  494TIP3   OH222896   5.989   6.583   1.243  0.1876 -0.0333 -0.2206
  494TIP3    H122897   6.023   6.547   1.160 -1.2279  0.3024 -0.9816
  494TIP3    H222898   5.913   6.529   1.263  0.0000  0.4498  0.3954
  495TIP3   OH222899   2.494   3.125   6.618 -0.4556  0.3599 -0.3543
  495TIP3    H122900   2.506   3.167   6.703  0.8561 -0.6658  0.0079
  495TIP3    H222901   2.485   3.198   6.557 -1.0574  1.1173  0.6020
  496TIP3   OH222902   0.469   6.533   2.610  0.3680 -0.4633 -0.3756
  496TIP3    H122903   0.458   6.440   2.590 -2.1224 -0.3976  0.4082
  496TIP3    H222904   0.530   6.535   2.684  0.8883 -1.3982 -0.7540
  497TIP3   OH222905   2.260   5.306  15.023  0.0562  0.0062 -0.1850
  497TIP3    H122906   2.244   5.274  15.111  0.5069  0.1161 -0.0586
  497TIP3    H222907   2.300   5.392  15.036 -0.4249  0.2798 -0.5068
  498TIP3   OH222908   5.658   2.924   1.004  0.4357  0.2394  0.6561
  498TIP3    H122909   5.686   3.015   1.006 -1.2364  0.8117  0.0570
  498TIP3    H222910   5.568   2.927   0.972  0.7083 -1.7251 -0.4893
  499TIP3   OH222911   4.897   0.201   1.688 -0.2230  0.5902 -0.2478
  499TIP3    H122912   4.855   0.266   1.631 -1.6089 -2.2804 -2.7664
  499TIP3    H222913   4.990   0.205   1.664 -0.8046 -0.7400 -3.1053
  500TIP3   OH222914   3.532   2.158  16.674 -0.5258  0.0835  0.0549
  500TIP3    H122915   3.620   2.152  16.639 -0.2271 -3.3808  1.0573
  500TIP3    H222916   3.543   2.196  16.761 -0.3618  1.7449 -0.6612
  501TIP3   OH222917   5.438   0.864   2.675  0.4933  0.1936 -0.6242
  501TIP3    H122918   5.412   0.866   2.767 -0.8061 -3.3896 -0.7451
  501TIP3    H222919   5.531   0.843   2.677  0.0723 -1.8744 -0.0099
  502TIP3   OH222920   1.577   1.388   1.425  0.0297 -0.3837  0.3915
  502TIP3    H122921   1.509   1.416   1.486  1.8138  0.1404  2.2288
  502TIP3    H222922   1.543   1.307   1.387 -0.6747 -1.3403  2.9094
  503TIP3   OH222923   1.772   5.148   6.201  0.1290 -0.6135 -0.1812
  503TIP3    H122924   1.807   5.199   6.274 -2.0956 -1.1879  1.3785
  503TIP3    H222925   1.714   5.084   6.242 -1.9890 -0.3290 -2.5002
  504TIP3   OH222926   4.149   0.832  11.003  0.0615 -0.5385  0.0334
  504TIP3    H122927   4.122   0.796  11.087  1.6256  1.6809  1.6278
  504TIP3    H222928   4.211   0.768  10.968  0.8689 -0.6325  1.5412
  505TIP3   OH222929   4.410   3.811   2.945 -0.6198  0.1005  0.1885
  505TIP3    H122930   4.316   3.798   2.937 -0.5138 -0.5858 -0.0238
  505TIP3    H222931   4.433   3.765   3.026 -0.4212  0.0027  0.0768
  506TIP3   OH222932   2.798   5.404   4.199  0.3392 -0.1336 -0.4281
  506TIP3    H122933   2.851   5.480   4.175 -1.9805  1.4904 -0.7822
  506TIP3    H222934   2.809   5.343   4.125  1.2546  0.3750 -0.7281
  507TIP3   OH222935   3.092   3.543   4.713 -0.7242 -0.0700  0.2348
  507TIP3    H122936   3.091   3.628   4.758 -0.9338 -0.3542  0.7860
  507TIP3    H222937   3.156   3.492   4.762 -3.1634 -1.4217  2.2299
  508TIP3   OH222938   0.550   6.744  17.028  0.4764  0.0243  0.0236
  508TIP3    H122939   0.533   6.653  17.005  0.5369  0.0022  0.0661
  508TIP3    H222940   0.643   6.746  17.051  0.2405 -0.1096  1.0174
  509TIP3   OH222941   6.634   2.016   3.677  0.4429 -0.1113 -0.2504
  509TIP3    H122942   6.630   2.074   3.752  1.5679  0.2433 -0.4393
  509TIP3    H222943   6.551   1.968   3.678 -0.0925  0.8126  0.4564
  510TIP3   OH222944   1.767   4.685   1.369 -0.1326 -0.2578 -0.0459
  510TIP3    H122945   1.749   4.645   1.454  0.5724 -1.1696 -0.3144
  510TIP3    H222946   1.766   4.612   1.308 -2.7608  0.6190 -1.2015
  511TIP3   OH222947   5.860   1.216  12.502 -0.1027  0.3237  0.0792
  511TIP3    H122948   5.799   1.284  12.473 -0.2741 -0.0900 -0.5594
  511TIP3    H222949   5.865   1.226  12.597 -2.6962 -0.8632  0.4208
  512TIP3   OH222950   6.708   4.665   4.970 -0.1703  0.1185 -0.1275
  512TIP3    H122951   6.643   4.700   4.909  0.1280  0.0098 -0.5112
  512TIP3    H222952   6.666   4.670   5.055 -0.4917  0.5192 -0.3062
  513TIP3   OH222953   4.644   2.232   0.545  0.4527 -0.4494 -1.1661
  513TIP3    H122954   4.737   2.238   0.569  1.7795 -2.9693 -4.7756
  513TIP3    H222955   4.622   2.140   0.561 -2.2712  0.5443  1.7344
  514TIP3   OH222956   3.753   0.298   2.764 -0.3187  0.1014  0.0098
  514TIP3    H122957   3.744   0.258   2.850 -2.3171  0.5314  0.0450
  514TIP3    H222958   3.784   0.228   2.708 -0.6107 -0.6220  0.7353
  515TIP3   OH222959   1.339   1.933  15.923  0.5509 -0.0104 -0.9591
  515TIP3    H122960   1.411   1.992  15.947  0.2598  0.8019 -2.0091
  515TIP3    H222961   1.376   1.845  15.935  0.4392  0.2847  2.2956
  516TIP3   OH222962   5.026   5.424  13.681  0.2395  0.0385 -0.2306
  516TIP3    H122963   5.005   5.332  13.665  1.1336 -0.0377 -1.1411
  516TIP3    H222964   4.994   5.441  13.769 -0.8371 -0.8639 -0.4196
  517TIP3   OH222965   4.546   1.840  11.650 -0.1270  0.0494  0.1286
  517TIP3    H122966   4.578   1.869  11.735 -0.4756 -0.8470  0.5775
  517TIP3    H222967   4.508   1.754  11.667 -0.5249  0.0178 -0.8661
  518TIP3   OH222968   1.908   3.225   2.484 -0.0738 -0.0528 -0.6168
  518TIP3    H122969   1.942   3.203   2.571 -0.9931 -1.7199 -0.6475
  518TIP3    H222970   1.986   3.247   2.433  0.6648 -0.8386  0.1360
  519TIP3   OH222971   6.229   3.401  13.307  0.7633 -0.2157 -0.0496
  519TIP3    H122972   6.283   3.468  13.348  0.1893  0.2034  0.0302
  519TIP3    H222973   6.290   3.353  13.251  0.9496  1.1586 -1.0725
  520TIP3   OH222974   5.059   4.096   0.337  0.3394 -0.1575  0.2659
  520TIP3    H122975   5.104   4.129   0.259  2.5044  0.3344  1.6306
  520TIP3    H222976   5.013   4.017   0.306 -0.2253  0.8899 -1.8088
  521TIP3   OH222977   1.218   3.301  17.183  0.0457 -0.3063 -0.0114
  521TIP3    H122978   1.160   3.228  17.206  2.6118 -2.1218  1.2058
  521TIP3    H222979   1.258   3.327  17.266  0.7139  1.1236 -0.7442
  522TIP3   OH222980   5.366   3.363  13.314  0.2989 -0.1486 -0.4834
  522TIP3    H122981   5.300   3.423  13.349  1.3915  1.1117 -0.4904
  522TIP3    H222982   5.449   3.407  13.330  1.0972 -1.3638 -1.1255
  523TIP3   OH222983   0.137   2.069   4.371 -0.4061  0.4322 -0.5703
  523TIP3    H122984   0.103   2.006   4.435  0.4946  0.8437  0.3449
  523TIP3    H222985   0.202   2.019   4.321 -2.6120 -0.5111 -2.6888
  524TIP3   OH222986   0.160   2.601   5.033 -0.1634  0.7178  0.1457
  524TIP3    H122987   0.139   2.607   5.126 -0.1747  0.1912  0.1811
  524TIP3    H222988   0.246   2.641   5.025  1.2795 -1.9323  0.9201
  525TIP3   OH222989   2.508   2.077  14.894 -0.1039 -0.2708  0.5046
  525TIP3    H122990   2.561   2.056  14.817  0.6571  0.2660  0.8783
  525TIP3    H222991   2.434   2.127  14.860 -0.2408 -0.8025  0.0134
  526TIP3   OH222992   1.045   3.708   4.476  0.5086  0.5878 -0.2213
  526TIP3    H122993   0.998   3.625   4.486  0.1441  0.6511 -1.2875
  526TIP3    H222994   1.056   3.740   4.566  0.3913 -0.4612  0.1840
  527TIP3   OH222995   5.039   3.934   4.589  0.2020  0.2841  0.7570
  527TIP3    H122996   5.026   3.925   4.683  2.2791  0.8711  1.1493
  527TIP3    H222997   4.991   3.860   4.551 -2.8402  1.4269  2.0089
  528TIP3   OH222998   1.485   1.302  12.819  0.4466 -0.2789  0.2250
  528TIP3    H122999   1.480   1.367  12.750  1.5020  0.3531  0.7190
  528TIP3    H223000   1.455   1.348  12.898 -0.7003 -0.9751  0.2140
  529TIP3   OH223001   5.034   0.412  15.797  0.4873  0.0985 -0.0808
  529TIP3    H123002   5.023   0.507  15.800  2.5612  0.3806  0.2157
  529TIP3    H223003   4.945   0.378  15.800 -0.2722  1.9918  1.2240
  530TIP3   OH223004   1.432   4.210  16.339  0.9029  0.1993  0.0764
  530TIP3    H123005   1.451   4.249  16.253  2.2638 -1.2559 -0.3221
  530TIP3    H223006   1.518   4.195  16.378  0.3041  1.7150  2.1586
  531TIP3   OH223007   1.505   3.503   4.430 -0.0863  0.2080  0.4090
  531TIP3    H123008   1.441   3.450   4.478  0.3185  0.3320  1.1003
  531TIP3    H223009   1.590   3.477   4.467  0.1194  1.3033  0.7352
  532TIP3   OH223010   3.295   5.622   0.161  0.4982 -0.0419 -0.1869
  532TIP3    H123011   3.321   5.587   0.247 -1.1062 -0.3507  0.2076
  532TIP3    H223012   3.302   5.547   0.102 -1.1520 -0.5984  0.2819
  533TIP3   OH223013   5.696   0.571   1.976 -0.0099 -0.1121  0.5666
  533TIP3    H123014   5.639   0.518   1.920  0.8401  0.1151 -0.5479
  533TIP3    H223015   5.784   0.543   1.953  0.3516 -0.2301  2.0448
  534TIP3   OH223016   4.034   0.530  13.185  0.9738  0.4893  0.0923
  534TIP3    H123017   4.008   0.441  13.161 -0.2299  0.1111  2.4241
  534TIP3    H223018   4.130   0.529  13.182  1.0633 -1.3660  1.3872
  535TIP3   OH223019   1.263   2.415   2.878 -1.0111 -0.3604 -0.3150
  535TIP3    H123020   1.221   2.402   2.963  0.5989 -0.2606  0.5360
  535TIP3    H223021   1.254   2.331   2.833 -0.5319 -0.8969  0.5785
  536TIP3   OH223022   5.610   1.800  14.680  0.0461  0.0621 -0.5110
  536TIP3    H123023   5.638   1.784  14.590  0.7352 -1.4188 -0.0698
  536TIP3    H223024   5.689   1.829  14.725 -0.2861  0.7539 -0.3730
  537TIP3   OH223025   2.882   0.238   5.423 -0.4223  0.8873  0.0130
  537TIP3    H123026   2.837   0.321   5.406  1.1527  2.0317  1.1931
  537TIP3    H223027   2.974   0.262   5.434  0.1424 -1.0850 -0.0404
  538TIP3   OH223028   5.962   3.850  11.774  0.4442  0.5321 -0.3742
  538TIP3    H123029   5.924   3.905  11.843  0.5639  1.6050 -1.1309
  538TIP3    H223030   5.891   3.840  11.711  0.3502 -0.4082 -0.1269
  539TIP3   OH223031   3.860   3.273   4.457 -0.1021 -0.0068 -0.0925
  539TIP3    H123032   3.792   3.301   4.519 -1.4071 -2.8441 -0.0786
  539TIP3    H223033   3.942   3.302   4.496 -1.1376  1.9096  0.8244
  540TIP3   OH223034   4.901   2.681   3.795 -0.4232  0.0765 -0.1007
  540TIP3    H123035   4.870   2.592   3.810 -0.6040 -0.4936 -3.2630
  540TIP3    H223036   4.823   2.735   3.800 -1.3765 -0.7613 -3.5233
  541TIP3   OH223037   2.881   3.133  15.313 -0.8615  0.3258  0.1569
  541TIP3    H123038   2.884   3.176  15.399  0.4872 -0.2203  0.4090
  541TIP3    H223039   2.921   3.047  15.328  0.4951  0.6731 -1.2620
  542TIP3   OH223040   5.090   2.054  13.282 -0.0275  0.6803  0.3661
  542TIP3    H123041   5.037   1.996  13.229  1.4893  0.5496 -1.1067
  542TIP3    H223042   5.111   2.004  13.360 -0.9857  0.2716  0.3631
  543TIP3   OH223043   6.058   5.270  14.173  0.1708  0.0006 -0.2692
  543TIP3    H123044   6.045   5.318  14.255 -0.2183 -1.1224  0.3486
  543TIP3    H223045   6.121   5.201  14.195 -0.1842 -0.5165 -0.8306
  544TIP3   OH223046   0.756   1.631  11.575 -0.2339  0.2471 -0.4025
  544TIP3    H123047   0.706   1.594  11.502  0.8509 -1.0965 -0.4970
  544TIP3    H223048   0.733   1.575  11.650 -0.7102  1.1151  0.1152
  545TIP3   OH223049   0.495   4.956  15.706  0.2753 -0.3105  0.5938
  545TIP3    H123050   0.511   4.897  15.632  1.1162 -1.7544  1.8731
  545TIP3    H223051   0.583   4.982  15.735 -0.0824  2.1948 -0.3798
  546TIP3   OH223052   3.425   2.541   5.865  0.2257  0.1679  0.2622
  546TIP3    H123053   3.503   2.564   5.915  1.5310 -0.3086 -1.4760
  546TIP3    H223054   3.408   2.450   5.888  0.2301  0.2398  0.5587
  547TIP3   OH223055   2.604   4.147   0.768 -0.1651 -0.3400 -0.5108
  547TIP3    H123056   2.515   4.118   0.788 -0.0971  0.0317  0.3650
  547TIP3    H223057   2.656   4.120   0.844  1.0974 -3.1975 -2.2314
  548TIP3   OH223058   0.030   0.781  17.391 -0.7025  0.2865  0.6997
  548TIP3    H123059   0.115   0.750  17.422 -0.5128 -2.9601 -2.4596
  548TIP3    H223060   0.051   0.840  17.318 -1.2021  1.4716  1.4855
  549TIP3   OH223061   0.084   3.772   4.189 -0.6757  0.0419 -0.1123
  549TIP3    H123062   0.152   3.794   4.253 -0.0628 -1.3424 -0.2527
  549TIP3    H223063   0.131   3.765   4.106 -0.9922 -0.8673 -0.2211
  550TIP3   OH223064   0.990   2.700   4.691 -0.0989  0.4510  0.1250
  550TIP3    H123065   1.008   2.790   4.662 -1.0008  0.3728 -0.7094
  550TIP3    H223066   1.053   2.646   4.642 -0.7780  0.4499 -0.7644
  551TIP3   OH223067   1.818   1.182  15.904 -0.2734  0.1696  0.4576
  551TIP3    H123068   1.805   1.273  15.879 -1.5390  0.2256  1.2230
  551TIP3    H223069   1.769   1.132  15.839  1.6625 -0.1076 -0.8809
  552TIP3   OH223070   0.559   0.651  12.101  0.2185 -0.0972  0.2809
  552TIP3    H123071   0.629   0.712  12.123 -0.6737  1.1264 -0.1814
  552TIP3    H223072   0.588   0.567  12.138  1.1848  0.7187  1.4519
  553TIP3   OH223073   2.269   1.298   0.815  0.0177 -0.3677  0.3862
  553TIP3    H123074   2.228   1.328   0.896 -1.5144 -0.0238 -0.4650
  553TIP3    H223075   2.357   1.271   0.841  0.2237  1.4695  1.8266
  554TIP3   OH223076   4.700   5.037   5.993  0.7067  0.0659 -0.4882
  554TIP3    H123077   4.634   5.012   6.058 -0.3442 -0.3121 -1.6610
  554TIP3    H223078   4.660   5.108   5.944  2.4165  1.9843  0.7256
  555TIP3   OH223079   6.144   1.357  13.469  0.2596  0.5374  0.1418
  555TIP3    H123080   6.158   1.273  13.423  2.9832 -0.4970  2.5854
  555TIP3    H223081   6.075   1.400  13.418 -0.3071 -2.5684 -2.0324
  556TIP3   OH223082   5.222   0.192  14.033  0.0806 -0.1023  0.1087
  556TIP3    H123083   5.192   0.125  14.094 -0.3720  0.3192  0.3562
  556TIP3    H223084   5.149   0.255  14.029 -0.1631 -0.4511 -1.3593
  557TIP3   OH223085   0.321   3.034  15.775 -0.3874  0.5624 -0.2933
  557TIP3    H123086   0.354   3.104  15.831  1.1135 -0.8255  0.6510
  557TIP3    H223087   0.393   3.015  15.715 -1.3229  0.7933 -1.5406
  558TIP3   OH223088   0.093   1.515  15.919 -0.2865  0.5230  0.1620
  558TIP3    H123089   0.084   1.568  15.840  0.3085  1.1122  0.4806
  558TIP3    H223090   0.057   1.429  15.894 -0.5034  0.8263 -0.6083
  559TIP3   OH223091   4.074   3.258   6.340 -0.1465  0.2318  0.3956
  559TIP3    H123092   4.105   3.169   6.323 -0.2195  0.3426 -0.3546
  559TIP3    H223093   3.979   3.252   6.326 -0.2438  0.2863  0.9907
  560TIP3   OH223094   3.495   1.317   2.088 -0.6181 -0.0585  0.3858
  560TIP3    H123095   3.589   1.322   2.105 -0.7301 -0.9588  1.3618
  560TIP3    H223096   3.485   1.238   2.033 -0.8532 -0.2547  0.7087
  561TIP3   OH223097   4.793   1.766  12.964  0.8210 -0.7512 -0.2123
  561TIP3    H123098   4.768   1.814  12.885 -1.9849  1.2821  1.7194
  561TIP3    H223099   4.745   1.683  12.958  0.6348 -0.6176 -0.6449
  562TIP3   OH223100   6.339   6.208   6.107 -0.1049  0.6927 -0.2752
  562TIP3    H123101   6.298   6.121   6.106 -0.4349  0.8203  0.7242
  562TIP3    H223102   6.272   6.266   6.142 -0.0679  1.4664 -1.4331
  563TIP3   OH223103   6.476   5.224  16.996 -0.1646 -0.2195 -0.0470
  563TIP3    H123104   6.508   5.216  17.086 -2.9189 -1.7248  0.9256
  563TIP3    H223105   6.551   5.198  16.942  0.8726 -1.6443  1.9337
  564TIP3   OH223106   1.159   3.364  12.691 -0.9021 -0.2012 -0.2156
  564TIP3    H123107   1.093   3.391  12.755 -0.0838  1.7681 -0.1014
  564TIP3    H223108   1.172   3.271  12.707 -1.7868 -0.0745  1.5062
  565TIP3   OH223109   1.587   6.457  14.035  0.0455  0.0824  0.4653
  565TIP3    H123110   1.668   6.467  13.986 -0.2824  0.1696 -0.0705
  565TIP3    H223111   1.518   6.484  13.973 -0.6266 -2.3565  0.0245
  566TIP3   OH223112   5.332   4.678  14.148 -0.5756  0.5132 -0.4293
  566TIP3    H123113   5.352   4.678  14.241  1.2876  0.0903 -0.7921
  566TIP3    H223114   5.321   4.586  14.125 -2.2651  0.6905 -0.4050
  567TIP3   OH223115   6.022   3.077   0.894 -0.4283 -0.4022 -0.0349
  567TIP3    H123116   6.071   3.019   0.836 -0.6068 -2.7455  1.9766
  567TIP3    H223117   6.087   3.139   0.927  0.5410 -1.5281  0.2421
  568TIP3   OH223118   2.002   1.226   0.716 -0.7310  0.3343  0.0306
  568TIP3    H123119   1.970   1.162   0.779  0.7548  0.1313  0.6195
  568TIP3    H223120   2.089   1.251   0.748  0.7873 -0.9543 -2.7227
  569TIP3   OH223121   1.167   1.169   3.399 -0.5640 -0.0769  0.0958
  569TIP3    H123122   1.225   1.135   3.467 -0.3674  0.4282  0.1848
  569TIP3    H223123   1.107   1.228   3.445 -0.9884 -0.3965 -0.0349
  570TIP3   OH223124   6.037   0.446  13.446  0.1192 -0.1319 -0.3203
  570TIP3    H123125   6.005   0.438  13.536 -0.7324 -0.1006 -0.6074
  570TIP3    H223126   6.018   0.361  13.406  1.0183 -0.3398 -0.3159
  571TIP3   OH223127   2.437   3.157   5.164  0.1448  0.0265  0.3153
  571TIP3    H123128   2.358   3.119   5.201  0.5814 -0.1393  1.1066
  571TIP3    H223129   2.406   3.228   5.108 -0.5727 -0.2008  0.4184
  572TIP3   OH223130   6.437   2.713   3.917 -0.2958  0.3751 -0.2271
  572TIP3    H123131   6.490   2.743   3.843  0.0104  0.5064  0.0427
  572TIP3    H223132   6.351   2.752   3.902 -0.2392  0.3881 -0.5223
  573TIP3   OH223133   5.798   3.470   5.044 -0.0342  0.3065 -0.0892
  573TIP3    H123134   5.810   3.376   5.029  1.6417  0.8596 -2.8653
  573TIP3    H223135   5.863   3.512   4.988 -1.7176  3.1803 -0.0911
  574TIP3   OH223136   5.668   0.658   4.189  0.8118  0.2735 -0.8728
  574TIP3    H123137   5.754   0.665   4.229 -0.0062 -2.7518  1.8242
  574TIP3    H223138   5.674   0.584   4.129 -0.8801 -3.5196  3.1246
  575TIP3   OH223139   1.764   4.495   1.176 -0.0418  0.1937  0.0531
  575TIP3    H123140   1.846   4.472   1.134 -0.0438 -1.3781  0.8194
  575TIP3    H223141   1.709   4.531   1.106  1.5725  2.1404 -0.2932
  576TIP3   OH223142   4.794   0.484  10.813 -0.0363  0.9009 -0.3166
  576TIP3    H123143   4.718   0.469  10.870  1.7725  0.1038  2.0663
  576TIP3    H223144   4.784   0.420  10.743 -0.8995 -0.1308  0.7030
  577TIP3   OH223145   6.609   0.842  11.687  1.0991  0.4568  0.2034
  577TIP3    H123146   6.549   0.882  11.750 -0.3848 -0.9371 -0.2470
  577TIP3    H223147   6.659   0.915  11.651 -1.2241  1.8625 -0.3240
  578TIP3   OH223148   5.779   1.425  16.882 -0.1903  0.1324  0.4317
  578TIP3    H123149   5.802   1.348  16.830  0.3534  0.0707  0.7531
  578TIP3    H223150   5.788   1.498  16.821 -0.9127 -0.0666  0.0646
  579TIP3   OH223151   3.566   5.290  15.355 -0.0930 -0.2543 -0.0050
  579TIP3    H123152   3.554   5.265  15.264  0.4263 -1.6942  0.2865
  579TIP3    H223153   3.644   5.241  15.383 -1.2798 -1.3092  1.6991
  580TIP3   OH223154   2.917   2.169   1.523  0.7809  0.2141  0.2637
  580TIP3    H123155   2.866   2.099   1.481  0.2818  0.9387 -0.3688
  580TIP3    H223156   2.951   2.129   1.603  0.8363 -0.8711 -0.2839
  581TIP3   OH223157   1.534   1.143   4.285 -0.3904  0.4964  0.6941
  581TIP3    H123158   1.462   1.120   4.226 -0.6354  0.0549  1.1490
  581TIP3    H223159   1.595   1.193   4.231 -0.4041 -0.2647 -0.0435
  582TIP3   OH223160   6.629   0.392  13.204 -0.6380  0.2548 -0.2307
  582TIP3    H123161   6.645   0.325  13.138 -0.2741  1.0253 -0.9329
  582TIP3    H223162   6.552   0.439  13.174 -1.1537 -0.1057  0.4823
  583TIP3   OH223163   1.341   0.674  13.442 -0.3538  0.4257 -0.0320
  583TIP3    H123164   1.339   0.656  13.348 -0.2185  1.5487 -0.2543
  583TIP3    H223165   1.301   0.760  13.452  0.5964  0.7951  0.8188
  584TIP3   OH223166   2.814   2.310  16.228  0.0999  0.0639  0.0886
  584TIP3    H123167   2.846   2.305  16.318 -0.3279 -2.1060  0.1595
  584TIP3    H223168   2.719   2.320  16.236 -0.3961 -3.4975 -0.0116
  585TIP3   OH223169   0.120   5.256  13.069 -0.2384 -0.0125  0.5574
  585TIP3    H123170   0.191   5.241  13.132  1.6896  1.8104 -1.0046
  585TIP3    H223171   0.119   5.352  13.058 -1.2697 -0.1966 -1.3143
  586TIP3   OH223172   3.259   6.112   5.559 -0.3315  0.7423 -0.1650
  586TIP3    H123173   3.345   6.108   5.518 -0.4567  1.3124 -0.4990
  586TIP3    H223174   3.235   6.021   5.574  0.1583  0.5660 -0.4342
  587TIP3   OH223175   2.353   5.611   2.658 -0.4794 -0.3407 -0.0549
  587TIP3    H123176   2.299   5.640   2.585  0.2984 -0.4003 -0.6605
  587TIP3    H223177   2.303   5.538   2.697 -1.5773  0.6143  0.3820
  588TIP3   OH223178   0.246   4.926   5.797 -0.5364  0.0009  0.1893
  588TIP3    H123179   0.152   4.945   5.799 -1.2515 -2.9672  0.1468
  588TIP3    H223180   0.251   4.831   5.804  2.4621 -0.0027 -0.5883
  589TIP3   OH223181   3.403   1.215  10.935 -0.3208 -0.8325  0.2006
  589TIP3    H123182   3.316   1.223  10.896 -0.3135 -2.5119 -0.2150
  589TIP3    H223183   3.402   1.277  11.008 -1.0642  0.8044 -1.1370
  590TIP3   OH223184   1.964   5.840  12.455 -0.2160  0.0078  0.5321
  590TIP3    H123185   1.932   5.910  12.513  2.1271  0.5554  1.2651
  590TIP3    H223186   2.004   5.886  12.382  0.0300 -0.6136  0.2689
  591TIP3   OH223187   5.903   1.520   3.651  0.4281 -0.0369 -0.1948
  591TIP3    H123188   5.939   1.536   3.739  0.1610 -0.6860  0.0348
  591TIP3    H223189   5.946   1.440   3.622 -0.8755 -0.8655  0.1175
  592TIP3   OH223190   2.283   5.945  11.974 -0.1507 -0.3404 -0.5468
  592TIP3    H123191   2.267   6.001  12.050  2.2857  0.6290 -0.6623
  592TIP3    H223192   2.222   5.872  11.985 -0.3290  0.0989  1.9974
  593TIP3   OH223193   5.099   0.927  16.921  0.0286 -0.0071  0.3271
  593TIP3    H123194   5.186   0.931  16.883  0.1503  1.9692  0.6943
  593TIP3    H223195   5.039   0.934  16.846  0.2585  2.7291  0.3044
  594TIP3   OH223196   4.996   5.201  17.152 -0.0255  0.2776 -0.1343
  594TIP3    H123197   5.080   5.166  17.123  0.2418  0.4152  0.4608
  594TIP3    H223198   5.019   5.271  17.212 -0.5687  0.4314 -0.1041
  595TIP3   OH223199   3.972   6.372  11.066  0.2559 -0.1720  0.5776
  595TIP3    H123200   4.005   6.301  11.121 -1.1392  0.0470  1.7677
  595TIP3    H223201   3.893   6.336  11.026  0.5101  0.1402 -0.2381
  596TIP3   OH223202   2.605   1.829   0.705 -0.3221  0.4069 -0.0320
  596TIP3    H123203   2.596   1.811   0.611  0.0221  2.4333 -0.4824
  596TIP3    H223204   2.699   1.843   0.718 -0.5575  1.8290  0.2627
  597TIP3   OH223205   2.265   0.890  17.025  0.8415 -0.0106  0.2225
  597TIP3    H123206   2.179   0.858  16.998  0.6288  1.5133 -1.0668
  597TIP3    H223207   2.248   0.945  17.101  0.3440  1.8476 -1.1551
  598TIP3   OH223208   6.423   3.712  16.319  0.5481 -0.2022 -0.2426
  598TIP3    H123209   6.449   3.621  16.337  0.1502 -0.4107 -0.7156
  598TIP3    H223210   6.385   3.709  16.231 -1.6171 -0.0153  0.6238
  599TIP3   OH223211   1.832   5.755   1.947  0.3839  0.2522 -0.2933
  599TIP3    H123212   1.816   5.667   1.981  2.8017 -0.2068 -0.1664
  599TIP3    H223213   1.790   5.814   2.010 -1.1222 -0.7785 -0.2946
  600TIP3   OH223214   4.140   1.627   0.364 -0.0983 -0.1491 -0.0641
  600TIP3    H123215   4.104   1.557   0.419 -1.7502 -0.2004 -1.1253
  600TIP3    H223216   4.068   1.650   0.305  0.9495  1.3187 -0.8341
  601TIP3   OH223217   5.708   3.371   0.550 -0.1512  0.2222  0.2151
  601TIP3    H123218   5.751   3.452   0.525 -0.4214  0.5867  0.8977
  601TIP3    H223219   5.710   3.371   0.646 -1.9846  0.4325  0.2938
  602TIP3   OH223220   1.680   2.620  13.208  0.0694  0.5678 -0.0453
  602TIP3    H123221   1.608   2.683  13.208 -1.7165 -1.3473  1.2484
  602TIP3    H223222   1.728   2.639  13.289  0.7544  1.4848 -0.6365
  603TIP3   OH223223   3.264   1.907   3.932  0.1915  0.0530  0.0407
  603TIP3    H123224   3.225   1.948   4.009 -0.5883 -1.2840  0.3938
  603TIP3    H223225   3.312   1.977   3.889 -1.2580  1.3824  0.4955
  604TIP3   OH223226   0.175   1.018   5.275 -0.4264  0.4112  0.2547
  604TIP3    H123227   0.083   1.008   5.298 -0.6322 -0.0460 -0.6840
  604TIP3    H223228   0.188   0.956   5.203  0.2254  1.5571 -0.6444
  605TIP3   OH223229   0.774   2.679  11.301  0.0666 -0.5847 -0.0164
  605TIP3    H123230   0.859   2.721  11.300 -0.6961  1.1194  1.2347
  605TIP3    H223231   0.745   2.681  11.209  2.4369 -3.7068 -0.9864
  606TIP3   OH223232   6.697   6.571   0.834  0.5774 -1.0725 -0.0687
  606TIP3    H123233   6.779   6.587   0.788  1.7188 -1.4007  1.7409
  606TIP3    H223234   6.699   6.478   0.855  0.7659 -0.6877  1.7911
  607TIP3   OH223235   4.709   1.710  16.501 -0.5145 -0.0659 -0.2698
  607TIP3    H123236   4.797   1.689  16.530 -0.9825 -0.1752  1.1698
  607TIP3    H223237   4.692   1.797  16.536 -0.4408  0.6377 -1.8721
  608TIP3   OH223238   6.650   1.238  16.404  0.2439  0.2452 -0.2210
  608TIP3    H123239   6.647   1.166  16.341 -2.0195  0.6363 -0.6365
  608TIP3    H223240   6.668   1.196  16.488  2.7298 -0.3397 -0.9668
  609TIP3   OH223241   1.317   2.097   3.088  0.1679 -0.2352  0.2904
  609TIP3    H123242   1.367   2.052   3.019 -0.3451 -0.1769 -0.1263
  609TIP3    H223243   1.361   2.182   3.098  1.6529 -1.1075  1.6622
  610TIP3   OH223244   0.071   0.412  15.229  0.3615  0.7069  0.1806
  610TIP3    H123245   0.145   0.464  15.261  0.3445  0.4657  0.6171
  610TIP3    H223246   0.037   0.462  15.155 -1.5411  2.9952  2.3675
  611TIP3   OH223247   1.284   6.136  15.610  0.5481 -0.0924  0.1175
  611TIP3    H123248   1.351   6.077  15.644  0.6514  1.0055  1.9398
  611TIP3    H223249   1.329   6.219  15.597  0.0561  0.0229 -0.9242
  612TIP3   OH223250   6.432   1.668   5.218 -0.0430  0.1566 -0.0901
  612TIP3    H123251   6.459   1.610   5.288 -0.8861  2.4135  2.2547
  612TIP3    H223252   6.338   1.682   5.233 -0.1501  1.0410 -1.3889
  613TIP3   OH223253   4.537   5.791  16.052  0.1164  1.1344  0.1916
  613TIP3    H123254   4.527   5.879  16.087 -0.0550  1.9135 -1.7429
  613TIP3    H223255   4.601   5.800  15.981 -0.2133 -0.2147 -0.3048
  614TIP3   OH223256   0.638   5.979   4.135  0.5334  0.2926 -0.4531
  614TIP3    H123257   0.699   6.004   4.065 -1.7899 -0.2430 -2.8024
  614TIP3    H223258   0.588   6.059   4.152  1.3975  0.5574  1.0309
  615TIP3   OH223259   1.089   2.400   4.811  0.7196  0.1735  0.1570
  615TIP3    H123260   0.999   2.375   4.830  0.1775  0.4012 -1.8942
  615TIP3    H223261   1.124   2.328   4.757  0.9251  1.1922 -1.1389
  616TIP3   OH223262   0.360   3.498   1.033  0.5062 -0.4966 -0.2100
  616TIP3    H123263   0.374   3.406   1.012  0.6568 -1.0646  2.1486
  616TIP3    H223264   0.280   3.499   1.085  0.5014  0.7261 -0.2066
  617TIP3   OH223265   2.036   6.745  11.338  0.1570  0.1819  0.2530
  617TIP3    H123266   2.120   6.791  11.332  1.2706 -1.5847  1.4358
  617TIP3    H223267   2.027   6.700  11.255  0.9636 -0.5546  0.5602
  618TIP3   OH223268   4.281   3.581   0.027 -0.8546  0.1561  0.3617
  618TIP3    H123269   4.205   3.605   0.081 -1.2646  0.7950 -0.4801
  618TIP3    H223270   4.283   3.646  -0.043  1.2600  0.9567  1.0904
  619TIP3   OH223271   3.210   3.620  15.582  0.1141 -0.2502  0.0193
  619TIP3    H123272   3.283   3.649  15.637 -0.3593  0.3480  0.3404
  619TIP3    H223273   3.236   3.533  15.552  0.5707 -0.4131  0.8508
  620TIP3   OH223274   1.679   0.078  15.224  0.3656  0.5724  0.0371
  620TIP3    H123275   1.766   0.085  15.264 -0.6046  2.0697  2.0272
  620TIP3    H223276   1.671   0.156  15.169  0.1032  0.7022  0.2564
  621TIP3   OH223277   6.439   3.396   3.096 -0.3926 -0.3870 -0.7076
  621TIP3    H123278   6.385   3.446   3.156 -0.0763 -1.3784  0.4242
  621TIP3    H223279   6.493   3.463   3.052 -0.2785  0.3135  0.4539
  622TIP3   OH223280   3.953   1.608   2.434  0.2177 -0.1210  0.6405
  622TIP3    H123281   3.915   1.582   2.350 -0.5049  2.2875  0.1677
  622TIP3    H223282   4.044   1.631   2.413  0.6546 -1.4751  0.9376
  623TIP3   OH223283   1.864   5.480  14.647  0.1214  0.6220 -0.6906
  623TIP3    H123284   1.915   5.494  14.567  1.5075 -2.3622 -0.5002
  623TIP3    H223285   1.776   5.510  14.626  0.4889  0.0912 -3.2934
  624TIP3   OH223286   6.244   6.327   5.275 -0.8821  0.5143 -0.8317
  624TIP3    H123287   6.240   6.380   5.354 -0.3075 -1.7850  0.8373
  624TIP3    H223288   6.336   6.332   5.248 -0.7601  0.1436 -0.4944
  625TIP3   OH223289   6.266   5.613  14.790 -0.6098  0.0993  0.1825
  625TIP3    H123290   6.256   5.577  14.702 -1.8513 -0.7356  0.6420
  625TIP3    H223291   6.269   5.537  14.847 -1.3709  0.6618  0.9970
  626TIP3   OH223292   0.966   5.093  16.397 -0.2303  0.0656  0.3555
  626TIP3    H123293   1.057   5.111  16.422  0.2591  0.0825 -1.3267
  626TIP3    H223294   0.943   5.013  16.445  1.3628 -1.0799 -0.6888
  627TIP3   OH223295   2.148   1.421  12.701  0.7206  0.0954  0.1624
  627TIP3    H123296   2.216   1.437  12.635  0.6416  1.4732  0.3969
  627TIP3    H223297   2.186   1.354  12.758  0.7834 -1.1408 -1.2732
  628TIP3   OH223298   0.289   4.757   2.926  0.0913 -0.4949  0.1488
  628TIP3    H123299   0.301   4.805   3.008 -2.8747 -0.3821  0.6396
  628TIP3    H223300   0.236   4.681   2.950 -0.6966 -0.5565 -1.5990
  629TIP3   OH223301   0.525   5.292  13.039  0.0261  0.0892  0.1583
  629TIP3    H123302   0.601   5.234  13.033 -0.7776 -0.9340 -0.4546
  629TIP3    H223303   0.450   5.233  13.042 -0.7367  1.0532  1.4692
  630TIP3   OH223304   4.663   4.051  13.640  0.4188 -0.1626  0.3028
  630TIP3    H123305   4.591   4.094  13.593 -0.8737 -1.4210  1.0348
  630TIP3    H223306   4.739   4.063  13.583 -0.5927  0.3178 -1.0115
  631TIP3   OH223307   4.584   3.277  12.522  0.5605  0.0581 -0.7523
  631TIP3    H123308   4.563   3.187  12.546 -1.0643  0.3826 -0.8221
  631TIP3    H223309   4.676   3.288  12.545  0.7852 -1.6129 -0.7457
  632TIP3   OH223310   5.793   3.867   1.951  0.6210  0.1287  0.2828
  632TIP3    H123311   5.801   3.811   2.028  3.2525  0.3651  0.2567
  632TIP3    H223312   5.860   3.934   1.963  2.2321 -0.7082 -2.8878
  633TIP3   OH223313   1.638   5.341  15.955  0.3802 -0.6730 -0.6342
  633TIP3    H123314   1.702   5.283  15.913 -1.1657 -1.3439 -2.1528
  633TIP3    H223315   1.564   5.283  15.976  0.1962  0.1073  0.9898
  634TIP3   OH223316   4.132   6.385   1.525  0.4298  0.5241  0.0506
  634TIP3    H123317   4.073   6.411   1.454  0.6109  3.0090  0.7363
  634TIP3    H223318   4.220   6.391   1.486  0.3868 -2.2075 -0.6728
  635TIP3   OH223319   2.914   0.593  15.939 -0.2247  0.1452  0.3423
  635TIP3    H123320   2.825   0.627  15.935 -0.7399 -1.1687  0.1056
  635TIP3    H223321   2.963   0.646  15.876 -0.7630  1.0676  0.6811
  636TIP3   OH223322   6.606   6.672   4.096  0.6204  0.2587  0.1075
  636TIP3    H123323   6.628   6.678   4.189  0.4677  1.3722  0.0868
  636TIP3    H223324   6.672   6.726   4.052 -1.2892  2.6105 -0.0696
  637TIP3   OH223325   4.494   1.732   1.684  0.1405  0.4306 -0.0427
  637TIP3    H123326   4.429   1.711   1.751 -0.7181  2.6121 -0.1127
  637TIP3    H223327   4.526   1.647   1.654  0.6807 -0.6375  3.1991
  638TIP3   OH223328   2.512   5.574  11.489 -0.5890 -0.0575  0.2619
  638TIP3    H123329   2.447   5.557  11.556  1.2203  0.0230  2.1572
  638TIP3    H223330   2.553   5.656  11.515 -0.1991  0.2624 -1.2560
  639TIP3   OH223331   4.431   2.880   4.160  0.0654 -0.1407 -0.0886
  639TIP3    H123332   4.339   2.894   4.136 -0.5630  0.5382  2.4440
  639TIP3    H223333   4.474   2.962   4.139  0.0552 -0.3667 -1.0326
  640TIP3   OH223334   0.345   4.282   0.113  0.0804  0.8337  0.1535
  640TIP3    H123335   0.382   4.220   0.176 -0.8014  1.5705  1.4519
  640TIP3    H223336   0.282   4.333   0.164 -0.6544  1.4774 -1.3381
  641TIP3   OH223337   3.715   4.740  13.370 -0.8303 -0.5487  0.2684
  641TIP3    H123338   3.637   4.781  13.332 -0.5648 -0.4530 -0.1889
  641TIP3    H223339   3.779   4.739  13.298  0.6069  2.0302  1.3759
  642TIP3   OH223340   6.700   0.196   5.574  0.6229  0.6748 -0.1298
  642TIP3    H123341   6.701   0.271   5.515 -3.2071 -1.9794 -4.3420
  642TIP3    H223342   6.616   0.202   5.619  0.8657 -0.3728  0.5062
  643TIP3   OH223343   5.787   1.542  14.817  0.2089  0.2370 -0.3061
  643TIP3    H123344   5.787   1.630  14.854  0.4346  0.1518 -0.1058
  643TIP3    H223345   5.748   1.553  14.730 -0.9921  0.3209  0.2170
  644TIP3   OH223346   4.491   4.713   2.514 -0.1819 -0.0182 -0.2357
  644TIP3    H123347   4.542   4.637   2.487 -1.7033 -0.8228 -1.0044
  644TIP3    H223348   4.539   4.750   2.587  0.5358 -1.8023  0.2385
  645TIP3   OH223349   2.522   0.015   3.491 -0.1312  0.3156 -0.0174
  645TIP3    H123350   2.530  -0.033   3.409 -1.0792 -0.8822  0.5681
  645TIP3    H223351   2.607   0.058   3.502  0.2170 -0.0084 -1.3022
  646TIP3   OH223352   2.376   1.374  14.549  0.1341  0.4107 -0.0960
  646TIP3    H123353   2.470   1.389  14.535  0.3577 -0.2017  0.6845
  646TIP3    H223354   2.357   1.419  14.632  0.3034 -1.5166  1.0476
  647TIP3   OH223355   3.354   1.985   0.659 -0.3554  0.0459  0.0719
  647TIP3    H123356   3.371   2.072   0.623  0.4816  0.1003  0.5709
  647TIP3    H223357   3.440   1.953   0.685 -0.7157 -0.7463  0.3228
  648TIP3   OH223358   3.915   4.820  13.987 -0.3808 -0.3309 -0.3819
  648TIP3    H123359   3.982   4.754  14.000  0.9301  0.9506 -0.3774
  648TIP3    H223360   3.862   4.817  14.067  0.6861 -0.2433  0.3453
  649TIP3   OH223361   1.637   0.426  11.733  0.0679  0.0237 -0.0863
  649TIP3    H123362   1.572   0.380  11.785 -0.3048  0.7383  0.0907
  649TIP3    H223363   1.611   0.412  11.642  2.0027 -3.1860 -0.2938
  650TIP3   OH223364   5.391   4.372   4.855 -0.5352  0.4768 -0.0947
  650TIP3    H123365   5.375   4.358   4.949 -1.4182 -0.1059 -0.3120
  650TIP3    H223366   5.315   4.332   4.812 -0.6482  1.6310 -1.0164
  651TIP3   OH223367   1.209   4.336  17.341  0.2299  0.6707  1.1779
  651TIP3    H123368   1.235   4.251  17.306  0.5493  0.3582  2.1449
  651TIP3    H223369   1.116   4.344  17.318  0.1805  0.0297  1.1398
  652TIP3   OH223370   5.562   5.670  17.052 -0.2786 -0.2788 -0.3196
  652TIP3    H123371   5.577   5.684  17.146  0.3574 -2.3827 -0.0750
  652TIP3    H223372   5.608   5.743  17.010  1.8324 -0.8346  0.9016
  653TIP3   OH223373   3.179   0.684   4.178  0.6906  0.5270  0.2278
  653TIP3    H123374   3.273   0.702   4.170  0.8158 -0.2584 -0.2040
  653TIP3    H223375   3.169   0.596   4.141 -0.3112  0.8538 -0.3080
  654TIP3   OH223376   4.181   3.114  12.019 -0.2509 -0.2153  0.4469
  654TIP3    H123377   4.196   3.026  11.985  0.4759  0.0444  0.0670
  654TIP3    H223378   4.208   3.172  11.948 -1.7099  0.3115  0.3032
  655TIP3   OH223379   0.431   5.968  11.642 -0.2197 -0.6436  0.0709
  655TIP3    H123380   0.341   5.989  11.665  0.0803  0.4994  0.2689
  655TIP3    H223381   0.425   5.918  11.561 -1.0494 -0.9147  0.2977
  656TIP3   OH223382   0.841   2.024   5.008  0.2674  0.3112  0.3772
  656TIP3    H123383   0.763   2.036   5.063 -0.3363 -0.1205 -0.3625
  656TIP3    H223384   0.842   1.930   4.989  0.0502  0.5467 -0.9171
  657TIP3   OH223385   1.625   2.347  15.492  0.1546  0.0955  0.2738
  657TIP3    H123386   1.695   2.388  15.442  0.0384 -0.0699 -0.0264
  657TIP3    H223387   1.637   2.379  15.582  1.4386 -1.0050  0.5164
  658TIP3   OH223388   3.615   0.025   6.063 -0.1044  0.1994  0.1062
  658TIP3    H123389   3.576  -0.037   6.126  1.1813  0.2040  0.9571
  658TIP3    H223390   3.546   0.088   6.046 -1.7060 -1.8107 -1.3217
  659TIP3   OH223391   0.401   2.935   4.671  0.6678  0.2281 -0.1203
  659TIP3    H123392   0.379   2.872   4.603  1.0544  1.4472 -1.4263
  659TIP3    H223393   0.497   2.932   4.676  0.6245 -0.1003  0.6316
  660TIP3   OH223394   3.659   0.374   2.156  0.6237 -0.0409 -0.4461
  660TIP3    H123395   3.628   0.463   2.172  0.5069 -0.0077 -0.8649
  660TIP3    H223396   3.628   0.324   2.232  0.5214  0.2298 -0.3067
  661TIP3   OH223397   6.409   5.054   1.754 -0.4109 -0.4631 -0.5758
  661TIP3    H123398   6.367   5.066   1.669  0.6487 -0.6101 -1.1229
  661TIP3    H223399   6.399   4.961   1.772  0.5113 -0.6749 -1.1460
  662TIP3   OH223400   5.415   3.688  14.576  0.3941 -0.0541  0.2329
  662TIP3    H123401   5.489   3.738  14.611  0.2688 -1.2364  2.3345
  662TIP3    H223402   5.345   3.753  14.567  0.7148  0.4714  1.3679
  663TIP3   OH223403   2.241   5.119  15.506 -0.1134  0.6837 -0.2226
  663TIP3    H123404   2.153   5.097  15.476 -0.5060  1.0410  0.6415
  663TIP3    H223405   2.228   5.163  15.590  0.8877  0.7845 -0.1043
  664TIP3   OH223406   4.637   0.075   0.608 -0.0058 -0.0433  0.3740
  664TIP3    H123407   4.669   0.017   0.678 -1.6932 -0.8157  0.5456
  664TIP3    H223408   4.542   0.076   0.619 -0.2936  0.0358 -1.7661
  665TIP3   OH223409   5.218   1.396  15.349 -0.2092  0.3658 -0.0571
  665TIP3    H123410   5.127   1.418  15.330 -0.5639 -0.2118  0.9124
  665TIP3    H223411   5.247   1.463  15.411 -0.8213 -0.9154  1.7024
  666TIP3   OH223412   6.441   6.470   4.011 -0.1137  0.0469 -0.2546
  666TIP3    H123413   6.378   6.542   4.003 -1.1446 -0.9441 -1.6842
  666TIP3    H223414   6.527   6.512   4.010 -0.6956  1.2661 -1.0137
  667TIP3   OH223415   6.416   2.939  11.913 -0.4598 -0.1247 -0.4928
  667TIP3    H123416   6.361   3.015  11.898 -0.1338 -0.1796 -2.1774
  667TIP3    H223417   6.357   2.864  11.906 -0.9042 -0.0577  1.7944
  668TIP3   OH223418   0.739   3.985  16.549 -0.5695 -0.5731  0.2960
  668TIP3    H123419   0.748   3.890  16.557  1.0133 -0.3678  1.7852
  668TIP3    H223420   0.829   4.017  16.553 -1.0898  1.0089 -0.0190
  669TIP3   OH223421   4.546   2.907  13.678 -0.3612 -0.2468 -0.4169
  669TIP3    H123422   4.490   2.860  13.740  1.5818 -2.0159  0.1374
  669TIP3    H223423   4.624   2.930  13.728 -0.2311  1.5173 -1.3339
  670TIP3   OH223424   4.241   4.212   4.929  0.7406 -0.2180 -0.1927
  670TIP3    H123425   4.288   4.153   4.988  0.7895  0.9773  1.0177
  670TIP3    H223426   4.148   4.195   4.948  0.6715  2.5673  2.9420
  671TIP3   OH223427   4.635   1.274   5.454  0.3724  0.6833 -0.0289
  671TIP3    H123428   4.664   1.226   5.376  0.1680 -1.2460  1.0224
  671TIP3    H223429   4.542   1.291   5.438  0.1437 -0.3828  0.0984
  672TIP3   OH223430   4.036   4.412  13.722  0.0235  0.2359  0.6917
  672TIP3    H123431   4.120   4.450  13.694 -0.2647  0.4316  0.0979
  672TIP3    H223432   3.978   4.487  13.732 -0.1549  0.0747  0.8779
  673TIP3   OH223433   3.352   4.735   0.909 -0.5831 -0.5271 -0.3422
  673TIP3    H123434   3.431   4.789   0.916 -0.2840 -1.0617  0.5171
  673TIP3    H223435   3.292   4.787   0.856  0.1767  0.0875 -0.6108
  674TIP3   OH223436   4.816   4.154  17.243 -0.1357 -0.4755  0.2402
  674TIP3    H123437   4.750   4.197  17.297  0.6773  1.8248 -0.4648
  674TIP3    H223438   4.770   4.081  17.202 -1.7111 -0.0781  1.2084
  675TIP3   OH223439   1.213   5.720  17.253 -0.3999  0.0693 -0.1435
  675TIP3    H123440   1.179   5.684  17.335 -1.2631  0.6104 -0.2482
  675TIP3    H223441   1.306   5.736  17.270 -0.5894  0.2568  0.7574
  676TIP3   OH223442   1.510   0.168  14.498 -0.6061  0.1151  0.0321
  676TIP3    H123443   1.495   0.075  14.482 -1.1306 -0.2981  2.5412
  676TIP3    H223444   1.424   0.203  14.521 -0.2098  0.9527  0.2792
  677TIP3   OH223445   3.270   2.708  11.443  0.2298  0.4820  1.0523
  677TIP3    H123446   3.278   2.670  11.531 -0.0892  0.7167  1.1834
  677TIP3    H223447   3.193   2.666  11.406  1.1994 -0.7290  0.3143
  678TIP3   OH223448   6.708   4.211   1.932 -0.4673 -0.4212  0.2725
  678TIP3    H123449   6.793   4.199   1.975 -0.7781 -3.0799  0.2991
  678TIP3    H223450   6.720   4.174   1.844 -1.8962 -1.9763  0.6830
  679TIP3   OH223451   4.365   4.848  16.757 -0.1119  0.4751  0.3317
  679TIP3    H123452   4.427   4.775  16.753 -1.3682 -0.5680 -1.9482
  679TIP3    H223453   4.317   4.833  16.839 -0.3445 -1.2975 -0.0776
  680TIP3   OH223454   5.293   3.727   5.121 -0.2417 -0.3367 -0.4074
  680TIP3    H123455   5.310   3.744   5.028  0.3628  0.5688 -0.1449
  680TIP3    H223456   5.241   3.647   5.121  0.6182 -0.9329 -1.4806
  681TIP3   OH223457   2.686   4.894   0.999  0.4930 -0.1094  0.5302
  681TIP3    H123458   2.737   4.843   1.062 -0.7077  0.1543  1.7597
  681TIP3    H223459   2.664   4.975   1.045 -0.1699  0.2129 -0.3198
  682TIP3   OH223460   3.148   0.429  14.572  0.5885  0.7438  0.4420
  682TIP3    H123461   3.128   0.362  14.506  0.5114  1.2596 -0.0598
  682TIP3    H223462   3.244   0.430  14.577  0.6256  1.2633 -0.2475
  683TIP3   OH223463   1.767   4.807   2.528 -0.1415 -0.5535  0.7151
  683TIP3    H123464   1.738   4.766   2.446  0.4853 -0.2151  0.3228
  683TIP3    H223465   1.790   4.897   2.503 -1.5153  0.0596  1.5753
  684TIP3   OH223466   4.670   6.477   1.889  0.2306  0.0238  0.0243
  684TIP3    H123467   4.680   6.566   1.854 -2.2225 -0.0499 -1.0313
  684TIP3    H223468   4.649   6.424   1.813 -0.3576 -1.0809  0.9287
  685TIP3   OH223469   2.482   3.802   2.586 -0.1861 -0.6245 -0.0909
  685TIP3    H123470   2.500   3.876   2.527 -1.2886  1.3874  1.9281
  685TIP3    H223471   2.535   3.820   2.663  0.8062 -2.9189 -0.1729
  686TIP3   OH223472   4.575   5.297  15.255  0.1154  0.1623 -0.5813
  686TIP3    H123473   4.598   5.331  15.168 -0.3716  0.5134 -0.5749
  686TIP3    H223474   4.482   5.317  15.265 -0.1575 -1.0668 -0.5228
  687TIP3   OH223475   5.063   4.402   3.673 -0.0971  0.5476  0.1288
  687TIP3    H123476   5.122   4.326   3.673 -0.5807  0.1649 -0.3517
  687TIP3    H223477   5.077   4.443   3.758  1.0372  0.5999 -0.0686
  688TIP3   OH223478   3.273   0.370  15.733 -0.1959  0.5369  0.3191
  688TIP3    H123479   3.203   0.308  15.711  0.3384  0.2778 -0.7542
  688TIP3    H223480   3.266   0.438  15.666  1.1061  0.0508 -0.3609
  689TIP3   OH223481   2.572   0.905  14.184 -0.4252 -0.0556 -0.4126
  689TIP3    H123482   2.506   0.882  14.119 -1.5085  1.0537  0.2508
  689TIP3    H223483   2.553   0.996  14.206  0.4980 -0.1287  0.7775
  690TIP3   OH223484   5.521   1.760  16.825  0.1552 -0.3050  0.1994
  690TIP3    H123485   5.479   1.774  16.909  1.7643 -0.5286  1.0653
  690TIP3    H223486   5.504   1.840  16.775 -1.7175 -0.5915  0.3016
  691TIP3   OH223487   5.122   2.291   4.320 -0.1236 -0.0572  0.5088
  691TIP3    H123488   5.169   2.372   4.299  1.5147 -1.0012  0.3391
  691TIP3    H223489   5.192   2.227   4.339 -1.3744 -1.3311  0.9945
  692TIP3   OH223490   5.306   2.410  15.031 -0.4449 -0.2651  1.0369
  692TIP3    H123491   5.400   2.392  15.031 -0.4814 -0.6661 -0.9630
  692TIP3    H223492   5.292   2.465  14.955 -2.1742 -2.4070 -0.3214
  693TIP3   OH223493   2.530   2.120  14.151 -0.4479 -0.4634  0.6876
  693TIP3    H123494   2.476   2.042  14.161  1.7365 -2.1013  0.5378
  693TIP3    H223495   2.546   2.126  14.056 -0.1593 -0.1728  0.7510
  694TIP3   OH223496   4.073   1.545  16.030  0.0804  0.1125  0.2874
  694TIP3    H123497   4.018   1.469  16.046 -2.2586  1.1868 -1.9857
  694TIP3    H223498   4.162   1.515  16.049 -0.9372 -2.6077  1.1681
  695TIP3   OH223499   5.776   5.914  11.183  0.1875 -0.4414 -0.1162
  695TIP3    H123500   5.818   5.977  11.241 -1.6213  0.9011 -0.1943
  695TIP3    H223501   5.694   5.891  11.227 -1.4845  0.9812 -2.2356
  696TIP3   OH223502   3.181   0.373   1.226 -0.0023 -0.2312  0.1852
  696TIP3    H123503   3.086   0.361   1.228 -0.0996  0.5641  0.9801
  696TIP3    H223504   3.193   0.468   1.219  0.7239 -0.2481  1.0309
  697TIP3   OH223505   3.755   1.170   3.307  0.0409 -0.4408  0.2229
  697TIP3    H123506   3.812   1.239   3.275 -1.3284  1.0007  0.7707
  697TIP3    H223507   3.813   1.112   3.356  0.9026  1.4821  1.5791
  698TIP3   OH223508   2.600   1.396  17.286 -0.6296 -0.1422 -0.4065
  698TIP3    H123509   2.623   1.412  17.195  0.2181  0.6211 -0.0749
  698TIP3    H223510   2.627   1.476  17.332 -3.7675  0.7489  0.0861
  699TIP3   OH223511   6.511   4.887   2.981 -0.5500 -0.0788  1.2479
  699TIP3    H123512   6.417   4.905   2.987 -0.6608 -0.3487  0.4137
  699TIP3    H223513   6.521   4.798   3.015 -0.7764 -0.5160  0.2108
  700TIP3   OH223514   3.443   0.056   0.449 -0.0454 -0.4569 -0.4957
  700TIP3    H123515   3.377   0.103   0.500 -0.4938 -0.7752 -0.7878
  700TIP3    H223516   3.466   0.116   0.378  0.0201 -0.3304 -0.3703
  701TIP3   OH223517   5.008   0.431   6.281  0.2248 -0.0088  0.2441
  701TIP3    H123518   5.034   0.353   6.330  0.5813  0.5322  0.9509
  701TIP3    H223519   5.015   0.502   6.345  2.0409  0.9548 -0.9125
  702TIP3   OH223520   0.923   1.088   3.308 -0.3936  0.6671  0.0441
  702TIP3    H123521   0.913   1.010   3.362 -3.5257  0.8647 -0.0981
  702TIP3    H223522   1.005   1.128   3.339 -0.7609 -0.5560  2.8900
  703TIP3   OH223523   0.327   5.663  11.300  0.5075  0.2075 -0.2299
  703TIP3    H123524   0.295   5.616  11.377 -0.4435  0.2086 -0.6212
  703TIP3    H223525   0.321   5.599  11.229  4.9604 -1.1454  0.3031
  704TIP3   OH223526   3.454   3.371  16.070 -0.0087 -0.1749 -0.3133
  704TIP3    H123527   3.434   3.413  15.987  0.1959 -0.1859 -0.3691
  704TIP3    H223528   3.427   3.280  16.058 -0.4939 -0.0479 -0.1763
  705TIP3   OH223529   4.326   1.953  11.904  0.0848 -0.1857  0.8263
  705TIP3    H123530   4.261   1.918  11.843  1.1262 -0.1170 -0.3543
  705TIP3    H223531   4.368   2.024  11.855  1.1652 -0.3448  1.5018
  706TIP3   OH223532   2.286   2.343   5.612 -0.5594 -0.6549  0.1822
  706TIP3    H123533   2.224   2.295   5.667  0.7647 -0.7785  1.6489
  706TIP3    H223534   2.299   2.426   5.658  1.4771 -1.2308  0.7561
  707TIP3   OH223535   0.532   5.558   1.830  0.0267  0.1585 -0.3471
  707TIP3    H123536   0.575   5.601   1.904 -1.1866 -0.8129  0.9820
  707TIP3    H223537   0.452   5.610   1.816 -0.5966 -0.6308  0.1677
  708TIP3   OH223538   3.564   5.266  11.212 -0.4171  0.5530  0.1946
  708TIP3    H123539   3.651   5.225  11.215 -1.4848 -1.9106 -0.0265
  708TIP3    H223540   3.547   5.279  11.119 -1.5195 -2.0204 -0.0511
  709TIP3   OH223541   0.050   0.224  10.814 -0.1764  0.1684 -0.2584
  709TIP3    H123542   0.094   0.164  10.753 -0.4700  0.0123 -0.3159
  709TIP3    H223543  -0.005   0.278  10.758  1.0830  1.3930 -0.3697
  710TIP3   OH223544   4.807   6.343  11.330  0.2201 -0.1341  0.7129
  710TIP3    H123545   4.712   6.341  11.339  0.1522 -1.1467 -0.1095
  710TIP3    H223546   4.829   6.264  11.280  1.3957  0.6434 -0.0511
  711TIP3   OH223547   1.355   4.064   6.033  0.3820 -0.5689  0.1580
  711TIP3    H123548   1.270   4.027   6.011  0.9538 -0.5447 -2.4136
  711TIP3    H223549   1.353   4.152   5.996  1.1641 -0.1781  1.0060
  712TIP3   OH223550   1.815   1.880   0.204  0.2853 -0.8859 -0.3138
  712TIP3    H123551   1.900   1.923   0.214  0.8390 -1.9817 -0.1231
  712TIP3    H223552   1.829   1.814   0.137 -0.4146 -1.0975 -0.2597
  713TIP3   OH223553   6.299   0.612   2.938 -0.1522 -0.0520  0.1033
  713TIP3    H123554   6.319   0.522   2.911  3.3989  0.8102 -0.7257
  713TIP3    H223555   6.274   0.656   2.857  0.5599  0.2278  0.0247
  714TIP3   OH223556   6.151   3.113   5.955 -0.2594  0.1188 -0.1726
  714TIP3    H123557   6.213   3.174   5.915 -0.8520  1.2105  0.5113
  714TIP3    H223558   6.066   3.156   5.945 -0.5838 -0.2021  1.0708
  715TIP3   OH223559   2.306   1.018  17.286  0.5597 -0.0734 -0.1924
  715TIP3    H123560   2.234   0.971  17.329  1.7869 -0.4897  1.5159
  715TIP3    H223561   2.278   1.110  17.286 -1.5524 -0.6011 -2.9320
  716TIP3   OH223562   1.224   4.766  15.906 -0.4230 -0.5636  0.5079
  716TIP3    H123563   1.193   4.806  15.988 -0.3371  0.0274  0.2584
  716TIP3    H223564   1.312   4.733  15.927 -0.1849  0.0562  0.5195
  717TIP3   OH223565   4.486   0.643   0.113  0.1256 -0.0505 -0.6549
  717TIP3    H123566   4.578   0.668   0.107  0.1359  0.2798  0.5223
  717TIP3    H223567   4.441   0.723   0.139 -0.2041 -0.6428  0.6868
  718TIP3   OH223568   6.632   4.773  14.787 -0.2217  0.0638  0.1302
  718TIP3    H123569   6.657   4.762  14.696 -0.7215  1.6938 -0.2425
  718TIP3    H223570   6.551   4.724  14.797  0.4683 -1.1220  0.0387
  719TIP3   OH223571   5.258   1.100  13.511  0.3359 -0.5059  0.7072
  719TIP3    H123572   5.276   1.009  13.488 -0.9162 -0.4820 -0.4984
  719TIP3    H223573   5.189   1.096  13.576 -1.4923 -0.4108 -1.1321
  720TIP3   OH223574   1.094   4.550   3.434  0.5476  0.1883  0.6433
  720TIP3    H123575   1.079   4.563   3.527 -0.4956  1.0348  0.3736
  720TIP3    H223576   1.054   4.626   3.392 -2.0882 -1.7955 -0.7413
  721TIP3   OH223577   1.337   5.935  13.897 -0.4666  0.4999 -0.1038
  721TIP3    H123578   1.402   5.995  13.935 -0.1418 -0.1200  0.3230
  721TIP3    H223579   1.348   5.946  13.802 -0.2893  0.9861 -0.0328
  722TIP3   OH223580   3.538   3.217  15.648 -0.0301 -0.0906 -1.0320
  722TIP3    H123581   3.588   3.290  15.685  0.9837 -0.3761 -1.7831
  722TIP3    H223582   3.601   3.146  15.640 -1.2323 -1.4108  0.5898
  723TIP3   OH223583   2.387   5.428   4.319  0.5782  0.0071  0.0017
  723TIP3    H123584   2.425   5.480   4.248 -0.4356 -1.2575 -1.5498
  723TIP3    H223585   2.399   5.337   4.291 -2.3364 -0.4826  0.0442
  724TIP3   OH223586   4.561   4.037  10.631 -0.3219 -0.8606  0.1588
  724TIP3    H123587   4.620   3.981  10.681 -0.2186  0.1287  1.2032
  724TIP3    H223588   4.497   3.977  10.593 -0.6140 -1.6521  1.7777
  725TIP3   OH223589   6.077   2.553   5.845  0.3858 -0.7760 -0.3162
  725TIP3    H123590   6.021   2.631   5.855  2.1823  0.6748 -1.0384
  725TIP3    H223591   6.060   2.501   5.923 -0.4412  0.6273  0.4833
  726TIP3   OH223592   6.344   3.210  14.385 -0.3162 -0.0598  0.0076
  726TIP3    H123593   6.256   3.215  14.345 -0.1053  0.5158 -0.3976
  726TIP3    H223594   6.387   3.139  14.337 -0.7119 -0.6520  0.5191
  727TIP3   OH223595   1.865   0.584  13.723  0.0926  0.0788  0.2168
  727TIP3    H123596   1.864   0.507  13.667  2.8474  0.1118 -0.0249
  727TIP3    H223597   1.781   0.581  13.770 -0.6570 -2.0116 -1.1180
  728TIP3   OH223598   2.608   2.654   0.124  0.1251  0.4665 -0.3847
  728TIP3    H123599   2.588   2.661   0.217  0.3671 -0.2366 -0.2709
  728TIP3    H223600   2.623   2.744   0.095 -1.3445  0.8448 -0.0592
  729TIP3   OH223601   4.838   3.287   2.096  0.3819 -0.1291  0.2141
  729TIP3    H123602   4.766   3.339   2.131  0.5979  1.4645 -1.5836
  729TIP3    H223603   4.904   3.351   2.070  1.3374 -1.4011 -0.6126
  730TIP3   OH223604   2.800   0.440  14.254  0.2859 -0.3371 -0.3011
  730TIP3    H123605   2.817   0.534  14.254  1.1467 -0.4659  0.7789
  730TIP3    H223606   2.867   0.404  14.195  0.0523 -0.2864 -0.5975
  731TIP3   OH223607   6.199   0.673  14.452  0.0464 -0.2174 -0.5233
  731TIP3    H123608   6.122   0.687  14.396  0.6620 -0.7083 -1.5177
  731TIP3    H223609   6.233   0.588  14.425  0.8736 -0.0623 -0.0073
  732TIP3   OH223610   4.712   6.638  16.537  0.2065 -0.6304  0.0721
  732TIP3    H123611   4.768   6.561  16.520  0.4018 -0.2265 -1.2481
  732TIP3    H223612   4.773   6.712  16.536 -0.3006 -0.2092 -1.1630
  733TIP3   OH223613   2.232   0.163   0.992 -0.1408  0.2930 -0.2223
  733TIP3    H123614   2.156   0.216   0.968 -0.4957 -0.0163  0.1942
  733TIP3    H223615   2.221   0.082   0.942  0.4459  0.6318 -0.9254
  734TIP3   OH223616   1.875   3.507   1.821 -0.5064  1.0131  0.2654
  734TIP3    H123617   1.861   3.420   1.860 -0.9586  0.6787 -0.6163
  734TIP3    H223618   1.901   3.489   1.731 -0.7612  1.7970  0.0271
  735TIP3   OH223619   4.626   5.795  14.515 -0.4074  0.0063 -0.0856
  735TIP3    H123620   4.669   5.731  14.458  0.1168  0.6498 -0.4265
  735TIP3    H223621   4.534   5.794  14.487 -1.0973 -2.7533  1.8857
  736TIP3   OH223622   1.998   1.083  14.714  0.2809 -0.2373 -0.0352
  736TIP3    H123623   2.060   1.122  14.653 -0.0546  1.6826  0.7747
  736TIP3    H223624   1.951   1.158  14.752 -2.5936 -1.5599 -0.6472
  737TIP3   OH223625   6.551   2.660  15.325 -0.1735 -0.4729 -0.2055
  737TIP3    H123626   6.641   2.654  15.357 -0.1243  1.4727  0.1590
  737TIP3    H223627   6.509   2.722  15.385 -1.4831 -0.6227 -0.9467
  738TIP3   OH223628   6.477   4.368   3.228  0.0603 -0.2319 -0.0758
  738TIP3    H123629   6.450   4.288   3.274  0.0879  0.1407  0.6029
  738TIP3    H223630   6.555   4.342   3.179  1.4143 -0.1197  1.8754
  739TIP3   OH223631   3.190   0.449   0.229 -0.5199  0.2577  0.4559
  739TIP3    H123632   3.130   0.487   0.293 -1.3395  0.3524 -0.3567
  739TIP3    H223633   3.136   0.393   0.174 -0.0892  1.2046 -0.9891
  740TIP3   OH223634   4.261   0.978  11.210  0.4846 -0.4341 -0.5037
  740TIP3    H123635   4.237   0.935  11.128  0.6474  1.5859 -1.6758
  740TIP3    H223636   4.183   1.027  11.236  0.3187 -1.3184  0.7690
  741TIP3   OH223637   6.267   1.985  13.021 -0.0688  0.1887 -0.7242
  741TIP3    H123638   6.273   1.893  13.047 -0.0099  0.2242 -0.6113
  741TIP3    H223639   6.321   1.992  12.942  2.2822  0.7246  0.8436
  742TIP3   OH223640   5.992   0.208   3.951 -0.0702  0.2389  0.2534
  742TIP3    H123641   6.032   0.241   4.032  0.4383  2.0626 -0.6940
  742TIP3    H223642   6.061   0.157   3.909  0.0716  0.3483  0.3550
  743TIP3   OH223643   0.919   1.480  15.849 -0.3057 -0.5199  0.0726
  743TIP3    H123644   0.834   1.517  15.871 -0.4589 -0.5654 -0.4293
  743TIP3    H223645   0.924   1.486  15.754  0.9727  1.0275  0.1961
  744TIP3   OH223646   6.283   2.902   4.862  0.5745 -0.2041 -0.3556
  744TIP3    H123647   6.290   2.840   4.789  0.5729 -1.2132  0.4784
  744TIP3    H223648   6.209   2.958   4.839 -1.5480 -2.5379  0.3150
  745TIP3   OH223649   2.346   5.820  15.500  0.6672 -0.1281  0.1764
  745TIP3    H123650   2.345   5.754  15.570  3.3374 -0.4730 -0.0002
  745TIP3    H223651   2.399   5.780  15.431 -0.6222  0.8414 -1.4573
  746TIP3   OH223652   5.988   0.941  14.871 -0.3496  0.1692 -0.2102
  746TIP3    H123653   6.061   0.969  14.926  1.1361  0.0378 -2.0132
  746TIP3    H223654   5.962   0.856  14.907  0.9228 -0.1498  0.0241
  747TIP3   OH223655   2.307   2.359  15.271  0.7353  0.7407 -0.6637
  747TIP3    H123656   2.246   2.404  15.330  0.9272  0.5811 -0.3414
  747TIP3    H223657   2.391   2.363  15.316  0.3978 -1.6342  0.3156
  748TIP3   OH223658   3.790   4.340   2.660 -0.2375 -0.2209 -0.5177
  748TIP3    H123659   3.734   4.273   2.698  0.9736  0.0227  1.8956
  748TIP3    H223660   3.740   4.421   2.668 -0.3877 -0.3282 -0.3740
  749TIP3   OH223661   4.942   2.952   0.411  0.3662  0.4090  0.0185
  749TIP3    H123662   4.876   2.938   0.479 -0.4482 -1.2123 -1.0489
  749TIP3    H223663   4.893   2.955   0.329  1.5092  0.3638 -0.6880
  750TIP3   OH223664   3.806   4.550  14.062  0.0581  0.3406 -0.4540
  750TIP3    H123665   3.802   4.530  13.969  1.0125  0.8699 -0.6220
  750TIP3    H223666   3.896   4.529  14.087 -0.1748  0.2629  0.3347
  751TIP3   OH223667   2.143   1.523  11.850 -0.1785  0.1426  0.0383
  751TIP3    H123668   2.093   1.452  11.808 -0.6330  0.2871  0.3253
  751TIP3    H223669   2.200   1.477  11.911  0.0638 -0.0278 -0.3111
  752TIP3   OH223670   2.027   5.320  13.592  0.0173 -0.5494 -0.0677
  752TIP3    H123671   2.097   5.315  13.527 -1.4384 -2.7475 -1.6336
  752TIP3    H223672   2.026   5.232  13.632  0.5718  0.5944  2.7004
  753TIP3   OH223673   5.771   0.602  15.297  0.0127  0.0912 -0.1026
  753TIP3    H123674   5.688   0.644  15.316  0.1010  0.2787 -0.1322
  753TIP3    H223675   5.825   0.617  15.375 -1.1039 -2.9187  1.3931
  754TIP3   OH223676   2.858   4.598  12.781  0.2187  0.2764  0.1900
  754TIP3    H123677   2.795   4.586  12.853 -0.7780  1.5226 -0.4334
  754TIP3    H223678   2.941   4.618  12.825  0.2270 -1.3964  1.0259
  755TIP3   OH223679   1.552   2.212   0.742 -0.2896 -0.1628  0.1388
  755TIP3    H123680   1.593   2.125   0.747  0.4669  0.1236 -0.8116
  755TIP3    H223681   1.578   2.246   0.657  0.9970  1.7787  1.2415
  756TIP3   OH223682   4.120   3.548  11.902 -0.0721 -0.1152 -0.1478
  756TIP3    H123683   4.087   3.552  11.992 -1.6440  0.5167 -0.7108
  756TIP3    H223684   4.134   3.639  11.877 -0.9229 -0.1879 -0.9645
  757TIP3   OH223685   5.920   1.557   6.448 -0.6824 -0.6333  0.3307
  757TIP3    H123686   5.941   1.464   6.453  0.1632 -0.5596 -1.2547
  757TIP3    H223687   5.845   1.562   6.389 -1.0264 -0.3330  0.7822
  758TIP3   OH223688   0.862   3.576  14.240  0.2938 -0.4037  0.3405
  758TIP3    H123689   0.768   3.563  14.247  0.2763 -0.8910 -0.6244
  758TIP3    H223690   0.871   3.665  14.205  0.0969 -1.0669 -1.5121
  759TIP3   OH223691   1.368   5.309   0.085  0.5275 -0.4838  0.1233
  759TIP3    H123692   1.389   5.246   0.154  1.9902 -1.0655 -0.8159
  759TIP3    H223693   1.377   5.395   0.128 -2.4779 -0.8224  1.6885
  760TIP3   OH223694   3.887   3.090   2.691  0.4290 -0.4076  0.3579
  760TIP3    H123695   3.860   3.181   2.682 -0.2745 -0.7273 -1.0758
  760TIP3    H223696   3.914   3.064   2.602 -0.4589 -1.9129  0.5026
  761TIP3   OH223697   0.955   2.964  12.766 -0.3280 -0.0762  0.0589
  761TIP3    H123698   0.967   2.976  12.672  2.1618  0.9682  0.4486
  761TIP3    H223699   0.955   2.869  12.777 -0.2893 -0.2134 -0.9516
  762TIP3   OH223700   4.399   1.313  13.125 -0.5404 -0.4499  0.1727
  762TIP3    H123701   4.317   1.320  13.174 -1.9617 -2.7499 -1.6560
  762TIP3    H223702   4.399   1.389  13.067  0.1595  1.1843  2.2114
  763TIP3   OH223703   3.923   4.860  16.954  0.1596 -0.0052  0.0499
  763TIP3    H123704   3.895   4.879  17.044  1.2090 -0.7640  0.5644
  763TIP3    H223705   3.857   4.800  16.920 -0.4202  0.5401  0.1840
  764TIP3   OH223706   5.296   4.873  12.552 -0.7567 -0.9014  0.1241
  764TIP3    H123707   5.313   4.779  12.554 -2.3370 -1.2627 -1.4001
  764TIP3    H223708   5.308   4.902  12.643  1.9864 -2.1049  0.2475
  765TIP3   OH223709   3.559   2.147  15.303  0.2386 -0.3607  0.6425
  765TIP3    H123710   3.486   2.145  15.365  0.1982  1.1920  0.6918
  765TIP3    H223711   3.629   2.100  15.346  0.1853  0.6225  1.8537
  766TIP3   OH223712   0.242   1.108   6.459 -0.1483 -0.3053  0.1199
  766TIP3    H123713   0.262   1.019   6.431  0.6922 -0.0107 -0.2162
  766TIP3    H223714   0.148   1.118   6.440  0.5618  0.2980 -3.8066
  767TIP3   OH223715   0.734   6.357   5.045 -0.0675  0.6620  0.1482
  767TIP3    H123716   0.673   6.413   4.997  2.4337  3.0156 -0.5647
  767TIP3    H223717   0.772   6.414   5.111  0.7765 -0.9363  1.1116
  768TIP3   OH223718   2.637   2.870  16.997 -0.4582 -0.2606 -0.0468
  768TIP3    H123719   2.590   2.805  17.049 -0.1929 -0.3422  0.0926
  768TIP3    H223720   2.708   2.900  17.054 -1.0788  0.7694  0.2103
  769TIP3   OH223721   3.808   2.699  16.304 -0.3864  0.4724  0.2102
  769TIP3    H123722   3.806   2.644  16.383 -0.9139 -0.5113 -0.4749
  769TIP3    H223723   3.761   2.649  16.238  1.1971  0.6630 -1.1404
  770TIP3   OH223724   5.678   0.589   4.960  0.1633 -0.4364 -0.2290
  770TIP3    H123725   5.635   0.537   4.893  0.2491 -0.8932  0.0593
  770TIP3    H223726   5.607   0.628   5.011  0.0892 -0.7977 -0.0511
  771TIP3   OH223727   0.361   1.917   5.270 -0.0541  0.2702 -0.0713
  771TIP3    H123728   0.276   1.961   5.263  0.1456  0.6468 -0.1857
  771TIP3    H223729   0.357   1.846   5.206 -0.0478  0.6811 -0.5349
  772TIP3   OH223730   3.395   0.210   6.051 -0.6320  0.6969 -0.0366
  772TIP3    H123731   3.354   0.182   5.969  0.2800  1.3392 -0.7332
  772TIP3    H223732   3.324   0.252   6.100 -1.5931 -1.1719  0.2595
  773TIP3   OH223733   2.968   3.221   1.397  0.3998 -0.5982 -0.0645
  773TIP3    H123734   2.901   3.282   1.366 -0.4943 -0.5478  1.8483
  773TIP3    H223735   2.980   3.159   1.324 -1.7270 -0.6005 -0.4632
  774TIP3   OH223736   5.635   1.120   5.516  0.1282 -0.0574  0.6019
  774TIP3    H123737   5.582   1.041   5.522 -0.4893  0.3105  0.0772
  774TIP3    H223738   5.696   1.113   5.589 -0.9353 -0.2791  1.4982
  775TIP3   OH223739   0.919   3.050  16.500  0.1825  0.7595 -0.2434
  775TIP3    H123740   0.880   3.134  16.477  3.0377  1.8387 -1.5839
  775TIP3    H223741   0.993   3.072  16.556  0.3372 -0.9747  0.3074
  776TIP3   OH223742   2.153   6.516   5.666 -0.1674 -0.3208  0.2376
  776TIP3    H123743   2.202   6.435   5.656  0.5870  0.0623  0.7008
  776TIP3    H223744   2.206   6.569   5.726 -1.6857 -0.3124  1.6629
  777TIP3   OH223745   4.982   0.623  17.123  0.1552 -0.6639  0.1686
  777TIP3    H123746   4.930   0.544  17.137  0.0998 -0.4490  1.2448
  777TIP3    H223747   5.000   0.623  17.029  2.1550 -3.2265  0.4243
  778TIP3   OH223748   1.885   5.213  13.271 -0.3881 -0.3254  0.3362
  778TIP3    H123749   1.797   5.213  13.308 -0.9918 -2.3176 -0.9709
  778TIP3    H223750   1.872   5.186  13.180  1.5690 -0.5221  0.0869
  779TIP3   OH223751   3.901   6.637   3.813  0.1186 -0.0794 -0.1529
  779TIP3    H123752   3.807   6.652   3.806 -0.1000 -0.4016  1.6296
  779TIP3    H223753   3.939   6.694   3.746 -1.2248  1.6621  0.4790
  780TIP3   OH223754   5.200   0.927  11.362  0.1631 -0.2268 -0.0615
  780TIP3    H123755   5.105   0.929  11.351  0.1168 -2.7986 -0.7820
  780TIP3    H223756   5.233   0.928  11.272  0.6925 -1.4865  0.1020
  781TIP3   OH223757   3.642   3.518   4.541 -0.1051 -0.1812  0.1649
  781TIP3    H123758   3.678   3.453   4.601  0.3587 -0.6155 -0.5697
  781TIP3    H223759   3.688   3.599   4.563  0.3143 -0.4153  0.1698
  782TIP3   OH223760   2.802   4.937   5.877  0.5755  0.3823 -0.0666
  782TIP3    H123761   2.894   4.942   5.903  0.9927  0.2529 -1.4095
  782TIP3    H223762   2.806   4.925   5.782 -0.7718 -1.7314  0.0799
  783TIP3   OH223763   2.198   2.543  15.446  0.6020  0.7724  0.1542
  783TIP3    H123764   2.159   2.537  15.533  2.8062  0.9233  1.2458
  783TIP3    H223765   2.235   2.631  15.443  2.2801  0.0945 -0.0993
  784TIP3   OH223766   4.898   4.602  14.196  0.0623 -0.0569 -0.1975
  784TIP3    H123767   4.901   4.694  14.223  3.8240  0.6033 -2.1755
  784TIP3    H223768   4.907   4.552  14.277  1.4461  1.4796  0.6599
  785TIP3   OH223769   5.609   3.928  16.578  0.2679 -0.0216 -0.1454
  785TIP3    H123770   5.646   3.845  16.549  0.5497  0.9994 -2.9440
  785TIP3    H223771   5.682   3.975  16.618  0.6212 -0.2769 -0.4896
  786TIP3   OH223772   1.441   5.276   6.365 -0.1836  0.1212 -0.6338
  786TIP3    H123773   1.473   5.193   6.399 -1.0588  0.0683  0.1049
  786TIP3    H223774   1.514   5.337   6.376  0.9012 -0.8124 -2.3304
  787TIP3   OH223775   6.365   5.482  15.689 -0.0891 -0.2207 -0.4229
  787TIP3    H123776   6.454   5.470  15.656  0.7646  1.2626  1.1803
  787TIP3    H223777   6.331   5.558  15.642 -0.1532 -0.1783 -0.3083
  788TIP3   OH223778   5.143   3.099  13.589  0.0520 -0.5129 -0.1000
  788TIP3    H123779   5.190   3.020  13.619  2.4359  0.3435 -1.2977
  788TIP3    H223780   5.181   3.118  13.504 -1.7067  0.9908 -0.6026
  789TIP3   OH223781   6.685   3.384   4.779 -1.1448 -0.5599 -0.0353
  789TIP3    H123782   6.649   3.360   4.694 -0.9046 -1.6034  0.1535
  789TIP3    H223783   6.769   3.425   4.759 -2.1354  1.4120 -0.4445
  790TIP3   OH223784   6.290   5.565  13.708 -0.1098  0.1211 -0.2582
  790TIP3    H123785   6.363   5.550  13.648  0.0991  1.3577 -0.3444
  790TIP3    H223786   6.247   5.480  13.715  0.3691 -0.2485 -1.4763
  791TIP3   OH223787   0.508   0.874  11.419  0.4855  0.0985  0.4728
  791TIP3    H123788   0.511   0.787  11.458  0.5565  0.9636  2.4869
  791TIP3    H223789   0.581   0.921  11.458  0.7184  0.9486 -0.9147
  792TIP3   OH223790   6.467   4.213  15.518  0.1676 -0.5718  0.0294
  792TIP3    H123791   6.517   4.171  15.588  2.0236 -0.9958 -1.4391
  792TIP3    H223792   6.443   4.141  15.459  0.0694 -0.0491 -0.5853
  793TIP3   OH223793   0.719   4.444   5.174  0.0783  0.6462  0.1597
  793TIP3    H123794   0.651   4.437   5.241 -0.4651  0.9755 -0.3508
  793TIP3    H223795   0.799   4.463   5.223 -0.9616  5.2046  0.5578
  794TIP3   OH223796   5.603   4.715  12.894 -0.6053 -0.4245 -0.4505
  794TIP3    H123797   5.636   4.796  12.853 -1.4181 -0.4776 -1.2374
  794TIP3    H223798   5.517   4.702  12.855 -0.8324 -1.2276  0.2959
  795TIP3   OH223799   4.064   1.060  16.513  0.1088  0.1441  0.1143
  795TIP3    H123800   4.109   0.976  16.515 -0.0207  0.0554  2.6700
  795TIP3    H223801   4.134   1.125  16.525 -0.0080  0.2678  0.1332
  796TIP3   OH223802   1.890   5.743   4.942 -0.4085 -0.4681  0.5302
  796TIP3    H123803   1.797   5.728   4.960 -0.6394  1.8618  1.5989
  796TIP3    H223804   1.936   5.696   5.012 -0.9457  0.8729  1.8321
  797TIP3   OH223805   6.253   2.770   5.141 -0.1621  0.7333 -0.6588
  797TIP3    H123806   6.201   2.692   5.123  2.4498 -1.0910 -0.7372
  797TIP3    H223807   6.255   2.817   5.058  0.5282 -0.5878 -1.4159
  798TIP3   OH223808   3.022   0.986  14.984 -0.0105 -0.0347 -0.1474
  798TIP3    H123809   3.110   0.953  15.000 -0.1723 -0.8293 -0.8660
  798TIP3    H223810   2.969   0.908  14.966 -0.6970  0.4982 -0.4939
  799TIP3   OH223811   6.027   1.407   5.107  0.0238 -0.5665 -0.5506
  799TIP3    H123812   5.970   1.345   5.062  1.8595 -2.3940 -0.5193
  799TIP3    H223813   6.110   1.359   5.119  1.8284  2.1491 -1.2438
  800TIP3   OH223814   3.561   6.645  15.389  0.5321 -0.3856 -0.6464
  800TIP3    H123815   3.561   6.581  15.318 -0.9107  0.8914 -1.8592
  800TIP3    H223816   3.561   6.730  15.345 -2.3549  0.4620  0.7631
  801TIP3   OH223817   1.059   2.298  12.455 -0.1799  0.2733 -0.1204
  801TIP3    H123818   1.002   2.342  12.518  2.0130  0.9998  1.4863
  801TIP3    H223819   1.105   2.231  12.507  0.4083 -0.3216 -1.3637
  802TIP3   OH223820   2.670   0.197  13.695  0.4249 -0.6373 -0.1981
  802TIP3    H123821   2.606   0.187  13.625 -0.4200  0.3935  0.4033
  802TIP3    H223822   2.752   0.216  13.650  0.0880 -0.8957 -0.9355
  803TIP3   OH223823   4.870   1.255   5.587  0.7841 -0.1371  0.2335
  803TIP3    H123824   4.785   1.293   5.565  1.6867  0.7076 -2.0087
  803TIP3    H223825   4.912   1.320   5.644  0.7105  0.3660 -0.2820
  804TIP3   OH223826   3.797   1.947   0.905  0.0476 -0.0674  0.2650
  804TIP3    H123827   3.878   1.980   0.865 -0.8299  1.2967 -0.4739
  804TIP3    H223828   3.787   2.001   0.984  0.2026 -0.6981  0.7192
  805TIP3   OH223829   3.702   2.806  15.237  0.1608  0.5945 -0.3378
  805TIP3    H123830   3.652   2.826  15.317 -0.2681  1.1789 -0.7397
  805TIP3    H223831   3.792   2.827  15.260  0.1595 -0.0409  0.2570
  806TIP3   OH223832   2.464   3.782  11.932  0.2857  0.3486  0.1135
  806TIP3    H123833   2.487   3.705  11.879 -1.6814 -1.3358  1.5496
  806TIP3    H223834   2.530   3.847  11.909  2.8371 -2.1630 -0.2638
  807TIP3   OH223835   4.810   1.010  11.348 -0.0599  0.4704 -0.3101
  807TIP3    H123836   4.891   1.050  11.316 -0.5994  0.8705 -1.2177
  807TIP3    H223837   4.749   1.019  11.275  0.2678 -3.6747 -1.3824
  808TIP3   OH223838   3.260   5.611   4.274  0.1242 -0.0475 -0.0892
  808TIP3    H123839   3.203   5.534   4.268 -0.3777  0.3254 -0.1838
  808TIP3    H223840   3.211   5.674   4.327  0.3869  0.3282 -0.2803
  809TIP3   OH223841   3.616   0.257   1.270 -0.0000 -0.2494 -0.2495
  809TIP3    H123842   3.545   0.321   1.277 -0.5340 -0.5439 -2.2530
  809TIP3    H223843   3.574   0.178   1.235  1.1384 -0.7392 -0.5559
  810TIP3   OH223844   1.944   5.477   2.299  0.2775 -0.0486 -0.1305
  810TIP3    H123845   1.901   5.419   2.362 -0.2274  0.4666  0.0064
  810TIP3    H223846   1.957   5.559   2.347  0.4110  0.1615 -0.5195
  811TIP3   OH223847   1.199   2.493   5.490 -0.1076  0.1305 -0.1338
  811TIP3    H123848   1.109   2.526   5.500 -0.2751 -0.5166  0.5865
  811TIP3    H223849   1.243   2.518   5.571  0.0139 -0.6223  0.0382
  812TIP3   OH223850   6.250   5.154   1.224 -0.7350 -0.1676 -0.2148
  812TIP3    H123851   6.206   5.238   1.232 -1.5641 -0.4391 -1.5644
  812TIP3    H223852   6.181   5.093   1.198  0.1080 -0.9905 -0.5959
  813TIP3   OH223853   2.823   2.713   1.773  0.4279  0.9693  0.4002
  813TIP3    H123854   2.910   2.725   1.734  1.6291 -0.0379  2.5637
  813TIP3    H223855   2.804   2.796   1.815  0.0295  1.4093 -0.6367
  814TIP3   OH223856   6.719   0.690   0.853 -0.0669 -0.3164  0.1411
  814TIP3    H123857   6.801   0.720   0.814 -0.6608  0.8091 -0.2757
  814TIP3    H223858   6.691   0.762   0.910 -1.1033 -0.3977 -0.2425
  815TIP3   OH223859   5.985   0.320  14.005 -0.1187 -0.1683 -0.3882
  815TIP3    H123860   6.072   0.279  14.004  0.8583  1.7998 -1.3638
  815TIP3    H223861   5.927   0.254  13.968  1.3768 -0.7195 -1.8705
  816TIP3   OH223862   1.726   3.559  16.436  0.1759  0.2872 -0.0918
  816TIP3    H123863   1.801   3.562  16.377 -0.3599 -0.6570 -0.8642
  816TIP3    H223864   1.685   3.645  16.427 -1.0510 -0.4642 -2.7243
  817TIP3   OH223865   3.999   0.517  13.793  0.4804 -0.2195  0.4431
  817TIP3    H123866   4.086   0.535  13.827 -0.1234 -0.8758  2.4606
  817TIP3    H223867   4.013   0.501  13.700  2.0639  2.7652  0.0375
  818TIP3   OH223868   2.918   5.645  12.523 -0.0913  0.4410  0.4985
  818TIP3    H123869   2.865   5.661  12.445  0.6431 -0.9759 -0.3299
  818TIP3    H223870   2.855   5.640  12.595 -0.9648  0.0280 -0.2795
  819TIP3   OH223871   0.203   2.283  11.594 -0.3860  0.0508  0.3421
  819TIP3    H123872   0.128   2.266  11.537 -0.3015  4.1385 -1.3464
  819TIP3    H223873   0.170   2.343  11.661  0.8938  0.2421  0.8374
  820TIP3   OH223874   0.502   1.133  15.992  0.0959  0.4048  0.2234
  820TIP3    H123875   0.465   1.190  16.060  2.2377  0.5655  1.3230
  820TIP3    H223876   0.430   1.121  15.930 -1.8076  0.6535  2.2446
  821TIP3   OH223877   5.063   2.277  16.447  0.1179  0.0890 -0.2391
  821TIP3    H123878   5.038   2.212  16.382 -0.9283  1.8572 -1.7171
  821TIP3    H223879   5.088   2.354  16.395  0.0443  1.2974  1.4367
  822TIP3   OH223880   5.847   4.858  14.097 -0.3976 -0.5315  0.3216
  822TIP3    H123881   5.896   4.787  14.139  0.3800  0.2270  0.7203
  822TIP3    H223882   5.913   4.924  14.077 -0.7504 -0.8056 -2.0005
  823TIP3   OH223883   1.527   6.192  11.824  0.2302 -0.2503 -0.3507
  823TIP3    H123884   1.434   6.173  11.833 -0.0269  1.0749 -0.0098
  823TIP3    H223885   1.554   6.144  11.746 -0.6980 -0.7920 -0.3473
  824TIP3   OH223886   1.805   2.534   0.852 -0.7031  0.0433 -0.1991
  824TIP3    H123887   1.832   2.592   0.923 -0.1329  0.5079 -0.7875
  824TIP3    H223888   1.887   2.499   0.817 -0.8920  0.6386 -1.3073
  825TIP3   OH223889   1.335   5.939   4.428  0.2204 -0.3892  0.8307
  825TIP3    H123890   1.409   5.998   4.415 -0.0968  0.4115  2.3585
  825TIP3    H223891   1.360   5.885   4.503 -0.9788  0.3598  1.8172
  826TIP3   OH223892   4.468   1.327   0.362  0.1441  0.2227 -0.1969
  826TIP3    H123893   4.551   1.370   0.344 -0.4795  1.5845  0.0923
  826TIP3    H223894   4.414   1.345   0.286  0.0347 -0.5073 -0.3054
  827TIP3   OH223895   6.541   0.637  16.224 -0.0814  0.4398  0.1734
  827TIP3    H123896   6.573   0.608  16.139 -1.2023 -1.0799  0.2330
  827TIP3    H223897   6.454   0.674  16.206 -1.3547 -2.0141  0.8982
  828TIP3   OH223898   1.903   3.662   5.800  0.2233 -0.5328 -0.0932
  828TIP3    H123899   1.911   3.640   5.707  0.6115 -0.6941 -0.0250
  828TIP3    H223900   1.905   3.757   5.803  0.2102 -0.5276 -0.2509
  829TIP3   OH223901   2.480   1.712   5.849 -0.2615 -0.7295 -0.0723
  829TIP3    H123902   2.544   1.777   5.878 -1.0784  0.1530 -0.1724
  829TIP3    H223903   2.489   1.710   5.754  0.1180 -1.1593 -0.0325
  830TIP3   OH223904   5.417   5.745   5.557 -0.0863 -0.5428  0.1933
  830TIP3    H123905   5.484   5.709   5.614  1.3737  0.6149 -0.7345
  830TIP3    H223906   5.372   5.810   5.611  1.0010  0.2430  0.1750
  831TIP3   OH223907   6.025   1.506  15.673  0.3223  0.4794 -0.5569
  831TIP3    H123908   5.979   1.470  15.598 -1.6483 -1.1081  1.3146
  831TIP3    H223909   5.963   1.565  15.714  0.5638 -0.2865  0.9918
  832TIP3   OH223910   3.023   6.272   2.245 -0.0431 -0.4090  0.4820
  832TIP3    H123911   2.928   6.271   2.240 -0.0242 -1.6608  0.2581
  832TIP3    H223912   3.048   6.181   2.260  1.1751 -0.2944 -0.6819
  833TIP3   OH223913   2.247   2.806  13.317 -0.3085 -0.5960  0.5550
  833TIP3    H123914   2.157   2.810  13.285 -0.5243 -0.9394  1.1147
  833TIP3    H223915   2.257   2.885  13.370 -0.8035 -1.3690  1.8309
  834TIP3   OH223916   2.006   0.818   5.771 -0.1893  0.5049  0.1219
  834TIP3    H123917   2.062   0.887   5.736 -0.7911  1.0087  0.1383
  834TIP3    H223918   1.987   0.845   5.861 -2.0382  1.3669 -0.4733
  835TIP3   OH223919   2.340   3.660   0.740 -0.7258 -0.1711 -0.1588
  835TIP3    H123920   2.393   3.734   0.770 -1.9861  0.9029 -0.4658
  835TIP3    H223921   2.319   3.681   0.649 -2.7115  0.0900  0.3190
  836TIP3   OH223922   6.433   6.175   0.340  0.2053  0.3918  0.7058
  836TIP3    H123923   6.482   6.095   0.324  0.2826  0.6475 -0.4304
  836TIP3    H223924   6.370   6.152   0.408 -0.5171 -0.9484 -0.3669
  837TIP3   OH223925   6.566   2.303  14.652  0.3654 -0.1490 -0.2044
  837TIP3    H123926   6.475   2.330  14.646  0.3399 -0.2706 -0.3780
  837TIP3    H223927   6.597   2.303  14.562  0.7357  0.5626 -0.0768
  838TIP3   OH223928   3.057   0.656  17.352 -0.2575 -0.5101  0.1884
  838TIP3    H123929   3.038   0.740  17.310  0.2721  0.0373  1.0247
  838TIP3    H223930   3.082   0.678  17.441  1.8621 -1.3912 -0.1300
  839TIP3   OH223931   4.497   3.506  12.639  0.1477  0.2148  0.2655
  839TIP3    H123932   4.509   3.428  12.585  0.6804  0.6990 -0.3254
  839TIP3    H223933   4.543   3.486  12.721 -0.7735 -0.5687  0.6162
  840TIP3   OH223934   0.165   4.092  16.429 -1.2161  0.0281 -0.3029
  840TIP3    H123935   0.230   4.073  16.361 -1.0406 -1.8606  0.3082
  840TIP3    H223936   0.213   4.143  16.494 -0.7561 -0.0887 -0.5462
  841TIP3   OH223937   1.254   1.039  15.610  0.0268 -0.0087  0.3152
  841TIP3    H123938   1.347   1.052  15.632 -0.4338  1.1931  1.7658
  841TIP3    H223939   1.236   1.105  15.542  0.9710 -2.4309 -2.5005
  842TIP3   OH223940   0.119   4.449   5.723  0.4658  0.2341 -0.2211
  842TIP3    H123941   0.087   4.359   5.712 -1.5831  0.9936 -1.0876
  842TIP3    H223942   0.044   4.496   5.761  1.7809  1.4249  1.0175
  843TIP3   OH223943   6.406   1.935  16.826 -0.0243  0.0822  0.3464
  843TIP3    H123944   6.474   2.002  16.832 -0.9525  1.4580 -2.4192
  843TIP3    H223945   6.324   1.984  16.820 -0.7878 -1.2575 -1.1652
  844TIP3   OH223946   1.605   6.488   1.942  0.4244  0.7469  0.3988
  844TIP3    H123947   1.593   6.454   2.031  1.8693 -0.2010  0.2732
  844TIP3    H223948   1.688   6.536   1.947 -0.3468  2.1393 -0.0431
  845TIP3   OH223949   4.211   1.502  13.988  0.6024  0.0351 -0.5346
  845TIP3    H123950   4.200   1.544  14.074 -3.3573 -0.7326 -0.4719
  845TIP3    H223951   4.236   1.412  14.008 -1.1694 -0.3809 -0.0788
  846TIP3   OH223952   1.568   3.972   5.372 -0.2501  0.1709 -0.1461
  846TIP3    H123953   1.507   3.922   5.427 -0.8951 -0.0574 -1.0458
  846TIP3    H223954   1.602   3.909   5.309  0.8292  0.3301  0.2502
  847TIP3   OH223955   6.533   1.743  12.126 -0.1571  0.0450  0.2668
  847TIP3    H123956   6.513   1.816  12.067  2.1339  1.3590  0.9742
  847TIP3    H223957   6.524   1.781  12.213  1.0806 -0.4928  0.6388
  848TIP3   OH223958   1.543   0.145   4.628  0.3314 -0.7803  0.5234
  848TIP3    H123959   1.603   0.127   4.556 -0.7173  1.0749 -0.9049
  848TIP3    H223960   1.554   0.238   4.646 -2.2174 -0.3083  0.0530
  849TIP3   OH223961   4.818   6.053   1.954 -0.2476 -0.1893 -0.0463
  849TIP3    H123962   4.767   6.121   1.998  0.2504 -1.0129  1.9545
  849TIP3    H223963   4.753   5.988   1.927 -0.4190 -0.7242  1.5359
  850TIP3   OH223964   6.617   3.099   5.819 -0.2263  0.3460 -0.2256
  850TIP3    H123965   6.607   3.055   5.735 -0.7179  0.8531 -0.4346
  850TIP3    H223966   6.662   3.035   5.874  1.8202  0.6999 -1.4156
  851TIP3   OH223967   3.240   3.457  11.928  0.0013 -0.5485  0.2006
  851TIP3    H123968   3.181   3.422  11.861 -1.1393  1.1179  0.2835
  851TIP3    H223969   3.182   3.486  11.999  1.1079 -1.2459  1.4509
  852TIP3   OH223970   1.141   1.084  16.406 -0.1606 -0.9802 -0.4963
  852TIP3    H123971   1.175   1.066  16.494  1.3243 -0.0821 -0.8647
  852TIP3    H223972   1.179   1.168  16.382 -0.2535 -1.3749 -2.1509
  853TIP3   OH223973   6.538   3.850   3.906  0.0144 -0.0597  0.0233
  853TIP3    H123974   6.481   3.831   3.981 -0.4727  1.4134  0.0622
  853TIP3    H223975   6.601   3.914   3.940 -0.5426  1.0362 -0.9427
  854TIP3   OH223976   5.508   1.782  13.183 -0.4641  0.0385 -0.2850
  854TIP3    H123977   5.545   1.865  13.153  0.4400 -0.3816 -0.3447
  854TIP3    H223978   5.514   1.786  13.278 -1.6001  0.5691 -0.2138
  855TIP3   OH223979   3.850   5.330  17.218 -0.2183 -0.4722 -0.3976
  855TIP3    H123980   3.831   5.336  17.125 -0.9863 -0.2921 -0.2367
  855TIP3    H223981   3.937   5.291  17.222  1.0225  2.0135 -1.2590
  856TIP3   OH223982   0.078   2.011   0.262  0.3585 -0.0754  0.2246
  856TIP3    H123983   0.113   2.080   0.206  0.8022  0.0194  0.6101
  856TIP3    H223984   0.069   2.053   0.348 -2.7024  0.5424 -0.2782
  857TIP3   OH223985   5.741   0.938   2.278 -0.3596  0.0105 -0.6382
  857TIP3    H123986   5.810   0.999   2.304  0.2668  0.3663 -2.9261
  857TIP3    H223987   5.766   0.855   2.318 -0.2872  0.8171  1.0767
  858TIP3   OH223988   3.779   5.678   5.186  0.3438  0.2779 -0.1399
  858TIP3    H123989   3.818   5.608   5.237  1.3924  1.4971  0.7814
  858TIP3    H223990   3.753   5.636   5.104 -0.5021 -1.5079  0.9846
  859TIP3   OH223991   0.423   5.003   4.072  0.6356 -0.4085  0.0832
  859TIP3    H123992   0.415   4.942   4.146  1.5444  1.0745  1.4682
  859TIP3    H223993   0.518   5.016   4.063  0.4865  0.0970 -0.7920
  860TIP3   OH223994   6.480   0.768  16.828 -0.1660  0.0363  0.6178
  860TIP3    H123995   6.492   0.863  16.832  1.1719  0.0553 -2.0132
  860TIP3    H223996   6.567   0.733  16.811 -1.0387 -1.4014 -1.2633
  861TIP3   OH223997   2.969   6.123   5.059 -0.2267  0.0411 -0.1555
  861TIP3    H123998   2.919   6.048   5.028 -1.7994  0.0061  2.2014
  861TIP3    H223999   2.972   6.112   5.154  0.0992  2.5981  0.2067
  862TIP3   OH224000   5.910   1.120  13.505 -0.4752  0.0600  0.0046
  862TIP3    H124001   5.918   1.106  13.599  0.8183  0.8728  0.0299
  862TIP3    H224002   5.840   1.184  13.495 -1.1428 -0.5986  0.3451
  863TIP3   OH224003   3.099   0.352   2.996 -0.0682 -0.1870 -0.0637
  863TIP3    H124004   3.129   0.263   2.975  0.4208 -0.4580  1.6026
  863TIP3    H224005   3.179   0.405   2.997 -0.2878  0.1569 -0.5027
  864TIP3   OH224006   0.666   2.831   4.684 -0.3196 -0.2134 -0.3175
  864TIP3    H124007   0.674   2.736   4.674 -2.2290 -0.4024 -0.4730
  864TIP3    H224008   0.719   2.867   4.612  0.6622 -1.1311 -0.0791
  865TIP3   OH224009   2.314   5.916  16.469 -0.2159  0.0938 -0.4457
  865TIP3    H124010   2.240   5.953  16.516 -0.7770  0.1405 -1.3327
  865TIP3    H224011   2.275   5.875  16.391  0.7763  1.0660 -1.4949
  866TIP3   OH224012   6.056   4.655   1.621 -0.2602  0.6520  0.6911
  866TIP3    H124013   6.030   4.624   1.707  2.3985  1.4791  1.8982
  866TIP3    H224014   5.974   4.660   1.571 -1.9799  0.7895  3.3495
  867TIP3   OH224015   2.197   6.266  13.285 -0.3976 -0.3463  0.7234
  867TIP3    H124016   2.215   6.211  13.209 -3.0905  0.8772 -0.9523
  867TIP3    H224017   2.272   6.326  13.290  0.4893 -1.3623 -0.0473
  868TIP3   OH224018   4.246   6.086  14.137  0.4576 -0.3652 -0.5122
  868TIP3    H124019   4.174   6.069  14.077 -0.3625 -3.4526  1.0861
  868TIP3    H224020   4.211   6.061  14.223  2.8868 -0.2440  0.5887
  869TIP3   OH224021   6.473   0.667  14.536  0.6630  0.1420  0.5226
  869TIP3    H124022   6.385   0.636  14.557  1.3891 -2.4568  0.0846
  869TIP3    H224023   6.529   0.591  14.550  2.5141  1.0353 -1.4705
  870TIP3   OH224024   5.873   0.211   1.468  0.2832  0.1796  0.1910
  870TIP3    H124025   5.948   0.168   1.509  0.9977  1.4955  0.3340
  870TIP3    H224026   5.887   0.199   1.374  0.0692 -0.5535  0.2525
  871TIP3   OH224027   3.002   1.808   3.889 -0.2491 -0.0211 -0.1909
  871TIP3    H124028   3.013   1.832   3.797  1.2965 -0.1304 -0.0520
  871TIP3    H224029   3.088   1.820   3.928 -0.7091 -0.6798  1.0899
  872TIP3   OH224030   2.072   4.418  15.267  0.0857 -0.4723  0.1262
  872TIP3    H124031   1.988   4.405  15.312 -0.4549  2.9743  0.4024
  872TIP3    H224032   2.048   4.421  15.174  0.5321 -3.1291 -0.1315
  873TIP3   OH224033   1.226   5.753  16.205  0.8348  0.6141  0.3198
  873TIP3    H124034   1.299   5.691  16.207 -0.0540 -0.5835 -1.8108
  873TIP3    H224035   1.160   5.711  16.151 -2.1005  0.9972  3.2713
  874TIP3   OH224036   6.338   0.943  14.457 -0.3858 -0.0264 -0.6759
  874TIP3    H124037   6.269   0.985  14.407 -0.5951 -0.1540 -0.4964
  874TIP3    H224038   6.316   0.850  14.456 -0.4353 -0.0201 -0.2797
  875TIP3   OH224039   0.420   4.816   4.267  0.4891  0.5566 -0.1222
  875TIP3    H124040   0.449   4.745   4.211 -0.4464  0.7461 -0.8653
  875TIP3    H224041   0.333   4.789   4.298 -0.0766  1.5570 -0.7809
  876TIP3   OH224042   2.260   3.445   6.129 -0.3526 -0.0684 -0.2503
  876TIP3    H124043   2.259   3.519   6.069  0.2127  2.3475  2.4719
  876TIP3    H224044   2.329   3.467   6.192  0.0492 -3.1104  0.5521
  877TIP3   OH224045   1.277   3.061   4.311  0.0687  0.0594  0.0615
  877TIP3    H124046   1.350   3.083   4.369 -1.5612  0.5630  2.0485
  877TIP3    H224047   1.242   3.146   4.285  0.9760 -0.1472 -2.0416
  878TIP3   OH224048   4.640   5.003   5.009  0.2791  0.1684  0.2993
  878TIP3    H124049   4.732   4.978   5.014  0.2199  0.2453  2.9000
  878TIP3    H224050   4.638   5.096   5.033 -0.6068 -0.3301  2.4202
  879TIP3   OH224051   3.588   4.428  16.887  0.3227  0.8194 -0.7134
  879TIP3    H124052   3.500   4.406  16.917  1.1026  0.0825  1.1355
  879TIP3    H224053   3.611   4.359  16.825 -0.6035  1.3539 -1.6852
  880TIP3   OH224054   0.867   4.451   5.966 -0.0305  0.3329  0.0127
  880TIP3    H124055   0.933   4.453   5.896 -1.2449 -0.9092 -1.2304
  880TIP3    H224056   0.803   4.517   5.941 -0.2384  0.2064  0.2054
  881TIP3   OH224057   5.315   3.167  10.969 -0.5675  0.0625 -0.5450
  881TIP3    H124058   5.302   3.077  10.938 -1.4702  0.0942 -0.2805
  881TIP3    H224059   5.369   3.158  11.047 -1.2695 -0.3223 -0.0950
  882TIP3   OH224060   1.975   0.742   0.783 -0.0994 -0.4390  0.3552
  882TIP3    H124061   1.997   0.762   0.692 -1.3367 -0.8488 -0.0615
  882TIP3    H224062   2.041   0.679   0.811  0.1216 -0.5380 -0.3604
  883TIP3   OH224063   5.967   4.628  14.151 -0.1392  0.1145 -0.0343
  883TIP3    H124064   5.985   4.536  14.167  3.1222  0.7882  0.9198
  883TIP3    H224065   6.026   4.653  14.080  0.8507  1.9240  1.3103
  884TIP3   OH224066   0.692   5.447   5.566 -0.4059  0.8360 -0.1122
  884TIP3    H124067   0.624   5.418   5.627 -1.4688  2.7278 -0.3083
  884TIP3    H224068   0.683   5.390   5.490  0.4071 -1.0394  1.1370
  885TIP3   OH224069   1.933   2.024  16.530  0.4399 -0.2534 -0.3768
  885TIP3    H124070   2.004   2.077  16.494  1.3585 -0.7654  0.6223
  885TIP3    H224071   1.957   2.011  16.622 -1.4568  0.3721  0.2364
  886TIP3   OH224072   0.684   4.610   0.965  0.9534  0.5118  0.3698
  886TIP3    H124073   0.638   4.688   0.996  1.4944  1.0493 -0.1630
  886TIP3    H224074   0.737   4.583   1.040  0.4399  0.3991  0.6981
  887TIP3   OH224075   3.296   6.643   1.780  0.1906  0.1996 -0.3381
  887TIP3    H124076   3.228   6.594   1.825  0.1079  1.4441  0.9590
  887TIP3    H224077   3.256   6.670   1.697 -1.8498  2.9588  1.3777
  888TIP3   OH224078   6.267   3.143   1.689  0.3852  0.3407  0.2356
  888TIP3    H124079   6.355   3.109   1.707  0.1898 -0.1618  0.2657
  888TIP3    H224080   6.208   3.081   1.733 -0.0563 -0.3677 -1.2810
  889TIP3   OH224081   3.950   0.637  16.344  0.4277  0.2725  0.0884
  889TIP3    H124082   4.016   0.705  16.333  0.8512 -0.2096 -0.4185
  889TIP3    H224083   3.995   0.556  16.320 -0.3504 -0.0571 -0.2879
  890TIP3   OH224084   0.463   4.303  15.221  0.3468 -0.5652  0.3011
  890TIP3    H124085   0.519   4.226  15.223  2.1517  0.6211 -1.3811
  890TIP3    H224086   0.427   4.304  15.132 -1.2997 -0.5347  0.9264
  891TIP3   OH224087   6.722   0.733   4.345  0.0122  0.3453 -0.3613
  891TIP3    H124088   6.816   0.716   4.337  0.0621  0.4219  0.0538
  891TIP3    H224089   6.716   0.804   4.409 -0.4049 -0.5674  0.6313
  892TIP3   OH224090   3.165   2.969   1.727  0.1287  0.2753  0.0044
  892TIP3    H124091   3.170   3.007   1.640  0.5620 -0.5809 -0.3509
  892TIP3    H224092   3.115   3.033   1.778  2.1673  2.1063 -0.1373
  893TIP3   OH224093   3.603   6.610   5.468 -0.0768 -0.2746 -0.3923
  893TIP3    H124094   3.508   6.593   5.466 -0.0371 -0.6553  0.4602
  893TIP3    H224095   3.641   6.529   5.500  0.3701  0.4472  0.9975
  894TIP3   OH224096   3.062   5.580   5.315  0.4130  0.1578 -0.7837
  894TIP3    H124097   3.115   5.503   5.291 -0.0232 -0.5712  0.4535
  894TIP3    H224098   3.125   5.639   5.356  0.4275 -0.3923  0.0189
  895TIP3   OH224099   2.792   2.537   2.346 -0.0878  0.2642  0.4285
  895TIP3    H124100   2.749   2.512   2.264  0.7062 -0.3904  0.1992
  895TIP3    H224101   2.772   2.465   2.406  0.5791  0.0008  0.3497
  896TIP3   OH224102   4.692   3.533   4.000 -0.3320  0.5818  0.1496
  896TIP3    H124103   4.680   3.624   4.028  0.7373  0.3211  1.6221
  896TIP3    H224104   4.777   3.533   3.955 -1.0955  0.5984 -1.3408
  897TIP3   OH224105   3.071   0.810  13.218  0.0214  0.5488 -0.6289
  897TIP3    H124106   2.978   0.806  13.197 -0.1976  1.6138  0.0310
  897TIP3    H224107   3.075   0.863  13.298  0.9634 -1.7236  0.9362
  898TIP3   OH224108   1.999   0.377   4.207  0.2407 -0.3746 -0.0959
  898TIP3    H124109   1.910   0.368   4.242 -0.2611  0.5925 -1.0737
  898TIP3    H224110   1.993   0.345   4.117  0.8882 -0.2844 -0.1748
  899TIP3   OH224111   0.391   3.579  11.971 -0.1409  0.1776 -0.2925
  899TIP3    H124112   0.416   3.575  11.879 -1.7300  0.1802 -0.7471
  899TIP3    H224113   0.347   3.663  11.981 -1.1798 -0.3910  0.1273
  900TIP3   OH224114   1.495   2.239   6.161 -0.5043 -0.7501  0.3498
  900TIP3    H124115   1.427   2.290   6.116  0.4977  1.3372  1.0442
  900TIP3    H224116   1.521   2.294   6.235  0.8701 -2.1836  0.9878
  901TIP3   OH224117   5.613   2.030  13.920 -0.5507  0.3880 -0.3637
  901TIP3    H124118   5.565   2.028  14.003 -0.7611  1.4842 -0.4477
  901TIP3    H224119   5.640   1.939  13.906  0.7916  0.4074  1.6788
  902TIP3   OH224120   5.275   0.788  13.515  0.1178  0.2159  0.4925
  902TIP3    H124121   5.369   0.776  13.503  0.0797  1.5280 -1.6896
  902TIP3    H224122   5.265   0.813  13.607  2.0927  1.5307  0.3943
  903TIP3   OH224123   3.085   5.466   0.480 -0.7276  0.1198  0.5246
  903TIP3    H124124   3.014   5.526   0.504 -0.6901  0.6578 -0.6663
  903TIP3    H224125   3.156   5.524   0.451 -0.9538 -0.4910 -1.3677
  904TIP3   OH224126   4.346   4.216  11.793 -0.1138  0.1793 -0.3696
  904TIP3    H124127   4.369   4.275  11.721  0.5230  0.9227  0.4210
  904TIP3    H224128   4.383   4.132  11.768  2.3735  1.0269  0.2445
  905TIP3   OH224129   6.240   5.828  15.159 -0.4225  0.0181 -0.3213
  905TIP3    H124130   6.215   5.916  15.189 -0.8567 -0.7943  1.9047
  905TIP3    H224131   6.335   5.824  15.175 -0.5777 -0.2533  0.6165
  906TIP3   OH224132   0.862   1.905  11.470  0.1695  0.3239 -0.4887
  906TIP3    H124133   0.857   1.889  11.376 -0.9336  2.8629 -0.9567
  906TIP3    H224134   0.812   1.833  11.510  0.0286 -0.3855 -1.8894
  907TIP3   OH224135   1.483   3.698   2.505  0.4871 -0.6138  0.0202
  907TIP3    H124136   1.499   3.743   2.422  1.5236  0.6894  0.8732
  907TIP3    H224137   1.536   3.746   2.568 -0.0306 -1.7735  1.3874
  908TIP3   OH224138   3.621   6.556   3.777 -0.1500 -0.5953  0.1726
  908TIP3    H124139   3.614   6.642   3.736  0.2645 -0.0047  1.3190
  908TIP3    H224140   3.545   6.550   3.835  0.4061 -0.5497  0.9175
  909TIP3   OH224141   5.310   0.574   0.439  0.3457 -0.5066  0.0155
  909TIP3    H124142   5.296   0.527   0.356  0.1218  0.0924 -0.2948
  909TIP3    H224143   5.222   0.585   0.475  0.4443 -0.7783  0.3445
  910TIP3   OH224144   0.595   6.426   1.654  0.0476  0.1864 -0.0332
  910TIP3    H124145   0.544   6.447   1.576  1.3315  2.3519 -0.3712
  910TIP3    H224146   0.581   6.500   1.713  0.7434 -0.4154  0.9158
  911TIP3   OH224147   0.523   5.179   5.164 -0.0672  0.1247  0.7611
  911TIP3    H124148   0.452   5.154   5.104 -0.2252  0.0115  0.9935
  911TIP3    H224149   0.481   5.183   5.250  0.3124 -0.4615  0.9806
  912TIP3   OH224150   1.292   3.036  11.525  0.7204  0.4607 -0.4360
  912TIP3    H124151   1.318   3.049  11.616 -0.7271 -0.6014  0.1737
  912TIP3    H224152   1.356   2.974  11.491 -0.6904 -1.9080  0.9566
  913TIP3   OH224153   0.995   5.387   3.440  0.6534 -0.0756  0.3067
  913TIP3    H124154   1.029   5.435   3.365  0.0708 -1.1977 -0.7049
  913TIP3    H224155   0.929   5.445   3.478  0.7490  0.3803 -0.2121
  914TIP3   OH224156   4.965   4.789   0.806  0.1357 -0.2214 -0.5463
  914TIP3    H124157   4.876   4.753   0.807 -0.7823  1.8471  1.8556
  914TIP3    H224158   5.018   4.723   0.851 -0.7208 -0.3388  0.3317
  915TIP3   OH224159   0.479   3.599  12.448 -0.1249  0.0265 -0.5284
  915TIP3    H124160   0.502   3.645  12.529  3.8729 -1.2138 -0.7409
  915TIP3    H224161   0.421   3.529  12.477 -0.6796  0.9934  0.8477
  916TIP3   OH224162   1.794   5.262   4.379  0.3309  0.4008 -0.0237
  916TIP3    H124163   1.859   5.329   4.399  0.0875  0.6185  0.0468
  916TIP3    H224164   1.710   5.304   4.396  0.1493  0.2917 -0.6160
  917TIP3   OH224165   2.490   5.851  13.030 -0.1493 -0.4859  0.5380
  917TIP3    H124166   2.575   5.847  12.986 -0.4551 -1.4217  0.0114
  917TIP3    H224167   2.511   5.842  13.123  0.5751  2.3149  0.7382
  918TIP3   OH224168   4.840   5.280  16.932 -0.1175  0.5055  0.3095
  918TIP3    H124169   4.861   5.227  17.008  2.0004 -0.0907 -0.6203
  918TIP3    H224170   4.811   5.217  16.865 -0.2573  0.8220  0.0663
  919TIP3   OH224171   6.514   5.483   2.861 -0.4801  0.3054  0.0888
  919TIP3    H124172   6.587   5.466   2.801 -1.6104 -0.8866 -1.0116
  919TIP3    H224173   6.490   5.396   2.894  0.4134  0.9433  2.7336
  920TIP3   OH224174   0.699   4.881   6.806  0.1679 -0.1371  0.1385
  920TIP3    H124175   0.707   4.815   6.737 -2.2276 -0.4087  0.0129
  920TIP3    H224176   0.689   4.830   6.887 -0.4227  0.0740  0.2072
  921TIP3   OH224177   6.347   4.529   1.947 -0.3472  0.2013 -0.6590
  921TIP3    H124178   6.431   4.510   1.905 -0.5291  0.8417 -1.3328
  921TIP3    H224179   6.317   4.609   1.904 -0.6481  0.7525  0.5535
  922TIP3   OH224180   2.389   0.488  15.717 -0.4425 -0.1663 -0.1767
  922TIP3    H124181   2.347   0.573  15.732  0.2727  0.1554  0.0954
  922TIP3    H224182   2.401   0.484  15.622 -0.0865  0.2414 -0.1547
  923TIP3   OH224183   6.031   5.162   4.179 -0.0951  0.1126 -0.2178
  923TIP3    H124184   6.088   5.169   4.103 -1.5938 -0.6868 -1.4619
  923TIP3    H224185   6.044   5.073   4.212  0.9050  0.6071  0.7856
  924TIP3   OH224186   4.706   1.557   2.303  0.5045 -0.0558  0.1296
  924TIP3    H124187   4.785   1.572   2.251  0.6208 -0.5955  0.1478
  924TIP3    H224188   4.735   1.505   2.377  0.5514  1.6344  1.3543
  925TIP3   OH224189   0.642   0.424  15.548 -0.1927 -0.6120 -0.0518
  925TIP3    H124190   0.715   0.441  15.608 -0.0414  1.7290 -0.7850
  925TIP3    H224191   0.646   0.496  15.485 -3.5755  0.0608  0.3143
  926TIP3   OH224192   4.100   0.345  16.602 -0.3083  0.0829 -0.1007
  926TIP3    H124193   4.174   0.302  16.560 -0.2281 -0.1129  0.2352
  926TIP3    H224194   4.110   0.437  16.579 -0.0845  0.0265 -0.2382
  927TIP3   OH224195   5.938   2.820   6.166 -0.0416 -0.1817  0.0398
  927TIP3    H124196   5.854   2.850   6.200  0.2221  0.8309 -0.1796
  927TIP3    H224197   6.003   2.856   6.228  0.4118  1.2867 -1.2303
  928TIP3   OH224198   3.469   5.388  11.443  0.2141 -0.3300  0.0989
  928TIP3    H124199   3.445   5.477  11.417 -0.0424 -0.5085 -0.2724
  928TIP3    H224200   3.523   5.355  11.371 -2.0838 -1.5285 -1.2031
  929TIP3   OH224201   5.113   1.791   2.996 -0.7149  0.1935 -0.3040
  929TIP3    H124202   5.097   1.817   3.086  0.9907  0.7796 -0.1408
  929TIP3    H224203   5.035   1.821   2.948 -0.7284  1.7193  0.6231
  930TIP3   OH224204   0.892   3.075   3.631 -0.8749  0.3323 -0.3707
  930TIP3    H124205   0.868   3.081   3.538  0.6289 -0.3509 -0.8474
  930TIP3    H224206   0.904   3.166   3.658 -2.9533  0.6436 -0.3460
  931TIP3   OH224207   1.312   4.538  12.709  0.3991 -0.1260 -0.6768
  931TIP3    H124208   1.349   4.451  12.698 -3.2407 -2.0086  0.4584
  931TIP3    H224209   1.292   4.567  12.620  1.5991 -0.3803 -1.0557
  932TIP3   OH224210   5.683   3.779  15.762 -0.0991  0.5533  0.3868
  932TIP3    H124211   5.758   3.775  15.702  0.0054  0.0130  0.5471
  932TIP3    H224212   5.641   3.693  15.754 -1.7805  1.4355 -1.0535
  933TIP3   OH224213   4.548   4.172  16.694  0.3873 -0.4473  0.3454
  933TIP3    H124214   4.634   4.131  16.708  0.5036 -0.0018  0.9714
  933TIP3    H224215   4.526   4.210  16.779  0.2296  0.6947 -0.1935
  934TIP3   OH224216   4.521   5.418   4.746  0.3660 -0.6211  0.3004
  934TIP3    H124217   4.590   5.386   4.805  0.1573 -0.9194  0.3901
  934TIP3    H224218   4.536   5.371   4.664  0.6874 -0.1671  0.0980
  935TIP3   OH224219   4.885   2.747   1.607 -0.2423 -0.0486  0.7059
  935TIP3    H124220   4.954   2.812   1.620 -0.4807  0.2036  0.7113
  935TIP3    H224221   4.805   2.790   1.638 -0.3680 -0.4133  0.8872
  936TIP3   OH224222   3.392   0.353  16.269 -0.8074 -0.1282  0.0034
  936TIP3    H124223   3.297   0.351  16.257 -0.6619  2.5460 -2.6887
  936TIP3    H224224   3.409   0.435  16.314  0.2755 -0.4432  0.2086
  937TIP3   OH224225   0.930   0.698  16.163 -0.9180 -0.0491 -0.2865
  937TIP3    H124226   0.975   0.658  16.239  0.2650  0.7308 -0.5515
  937TIP3    H224227   0.962   0.788  16.161 -1.4765  0.1378 -1.3131
  938TIP3   OH224228   1.242   0.192  12.053 -0.5137 -0.5193  0.2613
  938TIP3    H124229   1.222   0.184  12.146 -1.7018  1.4502  0.2466
  938TIP3    H224230   1.337   0.201  12.049 -0.5465  0.5488  1.4211
  939TIP3   OH224231   3.408   1.886  16.921 -0.0340  0.1059 -0.9010
  939TIP3    H124232   3.470   1.938  16.869  0.7444  0.5354  0.3829
  939TIP3    H224233   3.454   1.804  16.938  0.8411  0.9590  1.2346
  940TIP3   OH224234   5.808   0.459  16.399 -0.1622 -0.4665  0.0385
  940TIP3    H124235   5.761   0.507  16.330 -0.6757 -0.3760  0.4486
  940TIP3    H224236   5.780   0.368  16.388  1.4109 -0.8400 -1.2383
  941TIP3   OH224237   1.855   1.998  15.264 -0.1210  0.8169  0.3467
  941TIP3    H124238   1.845   2.079  15.216  1.4808  1.3575  0.8354
  941TIP3    H224239   1.884   2.025  15.351  0.8552 -0.2657  0.3911
  942TIP3   OH224240   1.615   0.127  12.124  0.2001 -0.0633  0.1468
  942TIP3    H124241   1.654   0.131  12.211 -1.6414 -0.5562  1.0584
  942TIP3    H224242   1.643   0.043  12.088 -0.0798 -0.4522  0.8209
  943TIP3   OH224243   5.320   1.928  12.536  0.8314 -0.7826 -0.6897
  943TIP3    H124244   5.375   1.975  12.474  0.0006 -0.2997 -1.0738
  943TIP3    H224245   5.381   1.872  12.584  1.7253  0.0956 -0.7717
  944TIP3   OH224246   1.950   1.213  12.107  0.1873  0.6805  0.3892
  944TIP3    H124247   2.037   1.176  12.124 -0.2486 -0.5251  0.1099
  944TIP3    H224248   1.963   1.272  12.033  0.4950 -0.8022 -0.7918
  945TIP3   OH224249   2.601   2.656  13.952  0.3746 -0.3040  0.1792
  945TIP3    H124250   2.608   2.685  14.043 -1.2814  0.6836  0.0490
  945TIP3    H224251   2.656   2.717  13.903 -0.7319  0.8134  0.2639
  946TIP3   OH224252   4.878   4.695  16.201 -0.1301  0.0043  0.1608
  946TIP3    H124253   4.811   4.749  16.160  0.7683 -0.1827 -1.6255
  946TIP3    H224254   4.915   4.643  16.129  3.4920  1.7178  0.5888
  947TIP3   OH224255   6.370   0.327  17.226 -0.0006  0.4773  0.1792
  947TIP3    H124256   6.292   0.274  17.242 -0.2484 -0.4626 -3.4263
  947TIP3    H224257   6.338   0.417  17.219 -0.3114  0.4701  1.2985
  948TIP3   OH224258   4.478   1.630   2.031  0.5196  0.2633 -0.1766
  948TIP3    H124259   4.407   1.677   1.988 -1.2084 -2.1269 -0.2042
  948TIP3    H224260   4.438   1.596   2.111  1.9096 -0.3888  0.2729
  949TIP3   OH224261   4.503   1.706  15.830 -0.4114 -0.2710  0.3035
  949TIP3    H124262   4.563   1.761  15.780  0.5957 -1.1580  0.4923
  949TIP3    H224263   4.440   1.767  15.868  0.8627  0.8030  0.7684
  950TIP3   OH224264   5.071   2.113   6.435 -0.1340  0.1826 -0.0159
  950TIP3    H124265   4.989   2.160   6.422 -0.1488  0.2257  0.2392
  950TIP3    H224266   5.139   2.178   6.418 -0.1441 -0.0188 -0.8709
  951TIP3   OH224267   3.632   3.885   5.252 -0.0037  0.3572  0.1550
  951TIP3    H124268   3.670   3.860   5.336  0.7776  0.9363 -0.0117
  951TIP3    H224269   3.666   3.820   5.190  1.2045  1.2005 -0.0957
  952TIP3   OH224270   4.498   3.773   5.944 -0.4125  0.0594  0.4452
  952TIP3    H124271   4.413   3.730   5.936 -0.3649  0.0030  0.2370
  952TIP3    H224272   4.534   3.772   5.856  0.2244 -0.7720  0.7026
  953TIP3   OH224273   2.371   1.358   4.386  0.0929  0.1821  0.0059
  953TIP3    H124274   2.463   1.348   4.363  0.0724  1.4232 -0.6738
  953TIP3    H224275   2.369   1.428   4.451 -0.2984 -0.4300  0.6772
  954TIP3   OH224276   2.266   1.189   4.703  0.0965  0.1730  0.0616
  954TIP3    H124277   2.301   1.277   4.712 -0.2172  0.3545 -0.4440
  954TIP3    H224278   2.188   1.199   4.648 -1.0587 -0.1563  1.5695
  955TIP3   OH224279   4.440   3.406   5.728  0.1633  0.5941  0.1691
  955TIP3    H124280   4.377   3.335   5.739  1.0880 -0.5792 -1.6033
  955TIP3    H224281   4.420   3.445   5.643  1.2999  0.7053 -0.0760
  956TIP3   OH224282   2.524   1.587   1.643  0.1534  0.4774 -0.0713
  956TIP3    H124283   2.505   1.556   1.732 -0.6841 -0.3521 -0.5261
  956TIP3    H224284   2.442   1.627   1.614 -0.1154 -0.7354 -1.0703
  957TIP3   OH224285   2.335   0.351  14.341  0.4594 -0.0632 -0.3451
  957TIP3    H124286   2.341   0.341  14.246  0.0741 -1.4141 -0.2511
  957TIP3    H224287   2.424   0.373  14.369  0.6316  0.0772 -0.9927
  958TIP3   OH224288   1.841   5.611   5.533 -0.2456  0.6102  0.5374
  958TIP3    H124289   1.847   5.575   5.622 -0.5723 -0.2294  0.2308
  958TIP3    H224290   1.784   5.550   5.486 -1.5446  2.0075  0.2179
  959TIP3   OH224291   2.758   0.227  15.627  0.0346  0.1102  0.0552
  959TIP3    H124292   2.749   0.311  15.673  0.6918 -1.4895  3.3977
  959TIP3    H224293   2.669   0.207  15.597 -0.9157  0.3904  2.4287
  960TIP3   OH224294   1.377   5.146   3.429 -0.3438 -0.0433  0.1306
  960TIP3    H124295   1.307   5.094   3.469 -0.0205 -0.6343 -0.0616
  960TIP3    H224296   1.384   5.223   3.485 -0.1417 -0.6926  1.0330
  961TIP3   OH224297   2.390   5.654   0.035 -0.7442 -0.6075  0.2281
  961TIP3    H124298   2.387   5.584   0.101  3.6504 -0.2005  1.2093
  961TIP3    H224299   2.406   5.609  -0.047  0.5615 -0.9140  0.6202
  962TIP3   OH224300   4.539   6.467   4.024 -0.4235 -0.6704  0.3799
  962TIP3    H124301   4.510   6.533   4.087  0.7223 -0.4045  0.6647
  962TIP3    H224302   4.575   6.518   3.951  0.9300 -0.9396  0.8196
  963TIP3   OH224303   1.378   4.640   6.340 -0.0114 -0.2075 -0.3180
  963TIP3    H124304   1.293   4.682   6.337  0.0423 -0.1298 -1.9446
  963TIP3    H224305   1.421   4.676   6.418 -1.3666 -0.0994  0.4032
  964TIP3   OH224306   6.091   0.602   6.050  0.1485 -0.1521  0.1626
  964TIP3    H124307   6.072   0.509   6.066  0.7314  0.1123  2.8044
  964TIP3    H224308   6.186   0.608   6.054  0.0672  0.7424  1.5583
  965TIP3   OH224309   4.322   4.532   1.170 -0.5890 -0.2352  0.0922
  965TIP3    H124310   4.403   4.529   1.119 -1.1861  1.0137 -0.9991
  965TIP3    H224311   4.256   4.495   1.112 -0.9831 -0.3657  0.6192
  966TIP3   OH224312   3.063   4.678  11.176  0.6834 -0.3281  0.1738
  966TIP3    H124313   3.011   4.601  11.198  0.0794 -0.4378 -1.4774
  966TIP3    H224314   3.070   4.675  11.080 -0.4990  2.3685 -0.0770
  967TIP3   OH224315   0.609   1.381  13.685  0.5653  0.0042  0.1924
  967TIP3    H124316   0.549   1.442  13.727  0.9718  0.4317  0.1581
  967TIP3    H224317   0.610   1.304  13.742  0.3110  0.1625  0.4106
  968TIP3   OH224318   5.179   6.290  15.354 -0.1594  0.3072 -0.4625
  968TIP3    H124319   5.124   6.366  15.376 -0.8961 -0.8719  2.1565
  968TIP3    H224320   5.117   6.219  15.339  0.5737 -0.2871 -0.7450
  969TIP3   OH224321   1.719   5.064  13.747  0.2277 -0.3536  0.9730
  969TIP3    H124322   1.791   5.071  13.809 -1.3959 -1.0679  3.0690
  969TIP3    H224323   1.656   5.006  13.789 -1.1058 -0.6802 -1.2667
  970TIP3   OH224324   4.614   4.738   6.260  0.1670 -0.4808 -0.1103
  970TIP3    H124325   4.666   4.662   6.232 -0.6992 -1.3383  0.5477
  970TIP3    H224326   4.629   4.744   6.354 -1.1378 -0.9306  0.1487
  971TIP3   OH224327   3.746   0.987  12.635 -0.4254 -0.0801 -0.8269
  971TIP3    H124328   3.748   0.945  12.721 -0.8035  0.4197 -0.5724
  971TIP3    H224329   3.718   0.917  12.575 -0.3951 -0.3657 -0.5108
  972TIP3   OH224330   4.925   3.023   3.026 -0.1384 -0.0892  0.5628
  972TIP3    H124331   4.973   2.942   3.048  0.3208 -0.5059 -1.6408
  972TIP3    H224332   4.922   3.022   2.930  0.4079  2.8252  0.4421
  973TIP3   OH224333   0.103   2.428  14.979 -0.0226  0.2372  0.0598
  973TIP3    H124334   0.049   2.396  15.052 -0.9066 -0.0390 -0.6969
  973TIP3    H224335   0.115   2.352  14.923  0.1125  0.6024 -0.4097
  974TIP3   OH224336   0.749   1.463  15.341 -0.2938 -0.1735  0.0533
  974TIP3    H124337   0.683   1.402  15.373  0.4439 -1.0320 -0.0405
  974TIP3    H224338   0.742   1.457  15.246  1.0121 -1.5009  0.0161
  975TIP3   OH224339   0.293   0.416   1.640  0.1092 -0.0726 -0.0736
  975TIP3    H124340   0.283   0.497   1.591  1.3013  0.5562  0.6608
  975TIP3    H224341   0.293   0.443   1.732  3.0158 -0.5299  0.1440
  976TIP3   OH224342   1.700   5.922  15.308 -0.0965 -0.2449  0.0039
  976TIP3    H124343   1.718   6.016  15.306  1.5349 -0.5366  0.0123
  976TIP3    H224344   1.692   5.902  15.402  0.5198 -0.2780  0.0528
  977TIP3   OH224345   0.864   6.741   1.427  0.2360  0.1378 -0.2181
  977TIP3    H124346   0.896   6.829   1.441  0.6446  0.2913 -1.9013
  977TIP3    H224347   0.941   6.691   1.399 -0.5684  0.1063 -2.6139
  978TIP3   OH224348   0.750   1.575  16.354  0.3556 -0.1663  0.4275
  978TIP3    H124349   0.721   1.490  16.323  0.1076  0.7909 -2.1783
  978TIP3    H224350   0.840   1.583  16.324 -0.4033  1.4450 -1.5969
  979TIP3   OH224351   4.132   3.826   6.028 -0.0460  0.2382 -0.1079
  979TIP3    H124352   4.129   3.732   6.048  0.5618  0.2987  0.2862
  979TIP3    H224353   4.189   3.863   6.096  1.3933  0.5849 -1.4521
  980TIP3   OH224354   0.933   5.261  13.013  0.4079 -0.3643 -0.1896
  980TIP3    H124355   0.898   5.309  12.938  0.4815  0.3079  0.1979
  980TIP3    H224356   0.937   5.170  12.983 -0.6318 -0.2838 -0.6104
  981TIP3   OH224357   6.487   0.097   3.081 -0.0681  0.3602 -0.1959
  981TIP3    H124358   6.459   0.044   3.156 -1.7216 -0.5995 -1.4246
  981TIP3    H224359   6.452   0.185   3.100  0.4687  0.4143  0.6313
  982TIP3   OH224360   5.911   3.157  13.347  0.0345 -0.2252  0.0929
  982TIP3    H124361   5.955   3.165  13.263 -0.6882 -2.1856 -0.5124
  982TIP3    H224362   5.955   3.221  13.403  1.8532 -0.2639 -1.2190
  983TIP3   OH224363   3.218   3.771  14.506  0.1315  0.7454  0.0768
  983TIP3    H124364   3.269   3.843  14.467 -0.0184  0.9853  0.3178
  983TIP3    H224365   3.127   3.801  14.501  0.0079  0.3131 -0.3645
  984TIP3   OH224366   0.011   1.259   1.991 -0.0521 -0.1417  0.4572
  984TIP3    H124367   0.056   1.271   2.075  0.8261 -0.6266  0.0719
  984TIP3    H224368  -0.075   1.299   2.004  1.0209  2.2633  0.7270
  985TIP3   OH224369   6.043   4.152   3.392 -0.3994 -0.4566 -0.0749
  985TIP3    H124370   6.122   4.129   3.442  0.3571  1.0965 -0.4953
  985TIP3    H224371   6.076   4.178   3.306 -1.5496 -1.5042 -0.8627
  986TIP3   OH224372   1.547   6.567   4.089 -0.0293  0.1750 -0.1945
  986TIP3    H124373   1.607   6.536   4.155  1.5874  0.1196 -1.6247
  986TIP3    H224374   1.603   6.593   4.016 -1.7956 -2.0835 -2.5383
  987TIP3   OH224375   3.200   0.754  12.845  0.4299 -0.2129  0.2009
  987TIP3    H124376   3.277   0.698  12.834  0.5501  0.0071 -0.0736
  987TIP3    H224377   3.221   0.809  12.920 -0.2625 -1.4965  1.4034
  988TIP3   OH224378   1.170   4.699   4.719  0.1215  0.4548 -0.2488
  988TIP3    H124379   1.247   4.646   4.742  1.4697  1.6603 -1.7387
  988TIP3    H224380   1.161   4.761   4.791  1.5663  1.3324 -0.7800
  989TIP3   OH224381   6.390   1.691  16.734 -0.6473 -0.8792 -0.0645
  989TIP3    H124382   6.415   1.619  16.792  3.2024 -1.2956 -1.9426
  989TIP3    H224383   6.422   1.769  16.779 -2.5283 -0.5206  0.7602
  990TIP3   OH224384   1.579   1.681   2.621  0.8976  0.3544 -0.5777
  990TIP3    H124385   1.505   1.704   2.679  0.6904  0.4201 -0.8678
  990TIP3    H224386   1.578   1.585   2.619  0.4935  0.3645 -0.9986
  991TIP3   OH224387   5.724   6.325  10.761  0.5653  0.1064 -0.0440
  991TIP3    H124388   5.766   6.397  10.808  0.6283  0.7055 -1.0122
  991TIP3    H224389   5.797   6.276  10.723  0.5066 -0.3258  0.3799
  992TIP3   OH224390   4.453   2.163   4.965  0.3131 -0.1972 -0.3508
  992TIP3    H124391   4.382   2.195   4.910  0.1426  0.9291  0.4791
  992TIP3    H224392   4.533   2.198   4.924  0.0695  2.2525  1.0793
  993TIP3   OH224393   3.012   5.980   2.342  0.1519 -0.1033 -0.2682
  993TIP3    H124394   3.076   5.928   2.294 -0.1580 -1.3815  0.6684
  993TIP3    H224395   2.965   5.917   2.396 -1.5611  0.8720 -0.5386
  994TIP3   OH224396   4.984   2.147  14.237  0.4296 -0.1604 -0.2731
  994TIP3    H124397   4.947   2.105  14.159  0.3991  0.0262 -0.3611
  994TIP3    H224398   5.079   2.143  14.224  0.4094  0.8005 -0.8253
  995TIP3   OH224399   5.546   5.886  15.032  0.1965 -0.2146 -0.7243
  995TIP3    H124400   5.599   5.843  14.964 -0.6950 -1.3588 -0.7220
  995TIP3    H224401   5.479   5.821  15.055  0.4229  0.1771  1.2023
  996TIP3   OH224402   2.783   5.221   3.370 -0.1875  0.2156  0.3181
  996TIP3    H124403   2.802   5.215   3.464  0.8325  3.2707  0.4148
  996TIP3    H224404   2.829   5.147   3.332  0.3364 -0.4352  2.0965
  997TIP3   OH224405   5.999   3.017  12.368 -0.2160  0.2427 -0.4738
  997TIP3    H124406   6.052   2.961  12.312  0.8657 -0.0023  0.7572
  997TIP3    H224407   5.974   2.962  12.442 -1.7529  0.5114 -0.7462
  998TIP3   OH224408   2.008   0.811  13.696  0.0525 -0.2956  0.2651
  998TIP3    H124409   1.961   0.729  13.705  1.5586 -1.4116 -1.3965
  998TIP3    H224410   1.997   0.835  13.603 -0.9841  1.8063  0.8636
  999TIP3   OH224411   0.268   4.713  14.254 -0.1964 -0.1227  0.0438
  999TIP3    H124412   0.361   4.728  14.240 -1.0364  2.7055 -4.2641
  999TIP3    H224413   0.241   4.784  14.312 -0.1484  0.8732 -1.1383
 1000TIP3   OH224414   1.487   0.531  14.463 -1.4042 -0.4187  0.0298
 1000TIP3    H124415   1.504   0.463  14.397  1.1189 -0.8999  1.0536
 1000TIP3    H224416   1.512   0.491  14.546 -2.0295  1.0454  0.9693
 1001TIP3   OH224417   0.950   5.024   1.590 -0.1182 -0.2332 -0.6803
 1001TIP3    H124418   0.882   4.998   1.527 -0.3362  1.7420 -1.3276
 1001TIP3    H224419   0.903   5.072   1.658  0.5639  1.0562 -1.0723
 1002TIP3   OH224420   2.224   5.720   2.433 -0.1019 -0.2953 -0.8598
 1002TIP3    H124421   2.244   5.812   2.418  0.0391  0.0149  0.9764
 1002TIP3    H224422   2.128   5.715   2.427 -0.0276 -0.3065 -2.2537
 1003TIP3   OH224423   2.403   3.914  14.287 -0.3163 -0.6630  0.7794
 1003TIP3    H124424   2.494   3.912  14.258 -0.2030 -0.0177  1.0748
 1003TIP3    H224425   2.356   3.957  14.215  0.0152  1.2252  1.6393
 1004TIP3   OH224426   2.050   5.986  16.181  0.0058  0.0729 -0.0179
 1004TIP3    H124427   2.095   5.905  16.205 -0.4776 -0.5883 -1.2107
 1004TIP3    H224428   1.972   5.957  16.133 -1.0019  1.2213  0.8658
 1005TIP3   OH224429   3.011   3.988   4.839 -0.5660 -0.5786 -0.1564
 1005TIP3    H124430   3.073   3.933   4.791 -1.4778 -2.2610  0.5033
 1005TIP3    H224431   2.954   4.025   4.772  0.9998  0.8853 -0.7611
 1006TIP3   OH224432   6.308   0.265   3.577  0.1116  1.0214 -0.4540
 1006TIP3    H124433   6.395   0.249   3.614  0.2068 -0.4619 -1.2701
 1006TIP3    H224434   6.251   0.273   3.654  0.2941 -2.0853  0.1156
 1007TIP3   OH224435   5.055   4.399  14.970  0.0333  0.0528  0.1418
 1007TIP3    H124436   5.039   4.448  15.050  1.3297 -0.8776  1.0131
 1007TIP3    H224437   5.096   4.317  15.000 -0.6033 -0.8652 -1.3723
 1008TIP3   OH224438   4.000   1.374   1.913  0.2096  0.4044 -0.1362
 1008TIP3    H124439   4.066   1.328   1.964 -0.5192  0.8723  1.2673
 1008TIP3    H224440   3.926   1.384   1.972 -0.6887  0.9238 -1.3074
 1009TIP3   OH224441   2.837   4.353   1.378 -0.3341  0.6569  0.2067
 1009TIP3    H124442   2.778   4.313   1.442 -0.4361  1.1012  0.3966
 1009TIP3    H224443   2.797   4.438   1.359  0.5870  1.2615  0.8646
 1010TIP3   OH224444   1.777   3.446  11.745  0.3270 -0.0664  0.0305
 1010TIP3    H124445   1.696   3.398  11.761  0.1516 -0.1895 -1.1659
 1010TIP3    H224446   1.845   3.378  11.745  0.1129 -0.3082 -1.3803
 1011TIP3   OH224447   1.284   5.058  13.590  0.5076 -0.0923 -0.0467
 1011TIP3    H124448   1.291   4.987  13.655  1.3863 -0.6626 -0.7474
 1011TIP3    H224449   1.318   5.020  13.509 -2.4765 -0.0714 -1.4286
 1012TIP3   OH224450   0.497   3.390   6.431 -0.1178 -0.1411 -0.2767
 1012TIP3    H124451   0.481   3.475   6.389  0.0785  1.7721  3.1548
 1012TIP3    H224452   0.592   3.390   6.447  0.5793 -2.7783 -3.4322
 1013TIP3   OH224453   1.540   4.439   1.619 -0.7325  0.2720 -0.0312
 1013TIP3    H124454   1.494   4.517   1.651 -2.0090  0.4111 -2.0608
 1013TIP3    H224455   1.610   4.474   1.564  1.3941  0.0317  2.3349
 1014TIP3   OH224456   1.621   4.252   1.261 -0.4661  0.0772 -0.2499
 1014TIP3    H124457   1.712   4.232   1.284 -0.9278 -0.9317  0.8292
 1014TIP3    H224458   1.626   4.331   1.207  0.9615  0.7942  0.8523
 1015TIP3   OH224459   4.984   6.669   0.987  0.4093  0.7360  0.2982
 1015TIP3    H124460   4.908   6.716   1.022  0.1602  0.5983 -0.0478
 1015TIP3    H224461   5.040   6.739   0.952 -0.1208  0.7693 -0.5257
 1016TIP3   OH224462   5.314   5.990   4.455 -0.3239  0.5957  0.7294
 1016TIP3    H124463   5.266   6.051   4.511 -0.2490  1.2404  0.1106
 1016TIP3    H224464   5.254   5.917   4.442 -0.2573  0.3323  1.8184
 1017TIP3   OH224465   1.792   0.944   3.412 -0.3846 -0.0421  0.2918
 1017TIP3    H124466   1.814   0.878   3.345  1.4429 -0.2133  1.0036
 1017TIP3    H224467   1.718   0.906   3.460 -0.5279 -0.7452 -0.4587
 1018TIP3   OH224468   4.251   1.265   0.503 -0.3061 -0.1173 -0.1720
 1018TIP3    H124469   4.204   1.345   0.527  0.2504  0.4599 -0.9775
 1018TIP3    H224470   4.325   1.295   0.451  1.4571 -0.9502  1.7185
 1019TIP3   OH224471   5.166   4.585  11.523  0.2062  0.0525  0.9362
 1019TIP3    H124472   5.205   4.522  11.462 -0.5862 -0.8501  1.3243
 1019TIP3    H224473   5.212   4.571  11.606  0.7943  0.7772  0.7364
 1020TIP3   OH224474   2.875   1.627   0.634 -0.2361 -0.1453  0.1271
 1020TIP3    H124475   2.939   1.600   0.700  0.4588 -0.2868 -0.5865
 1020TIP3    H224476   2.876   1.723   0.638 -0.4676 -0.1585  0.5672
 1021TIP3   OH224477   0.857   4.079  11.369  0.2164 -0.5515  0.5552
 1021TIP3    H124478   0.928   4.022  11.400  0.4677 -0.4479  0.1644
 1021TIP3    H224479   0.802   4.092  11.447  0.9340 -0.1608  1.0036
 1022TIP3   OH224480   4.010   5.487  16.209  0.2123  0.0679 -0.0512
 1022TIP3    H124481   3.994   5.482  16.114 -0.1768  1.9713 -0.1183
 1022TIP3    H224482   3.957   5.416  16.246  3.1703 -3.1615 -1.4871
 1023TIP3   OH224483   6.445   4.986  13.091 -0.2087  0.0672 -0.3543
 1023TIP3    H124484   6.399   4.958  13.012 -1.9566  3.1478 -0.5640
 1023TIP3    H224485   6.532   5.011  13.061  0.0611 -1.2705 -0.7817
 1024TIP3   OH224486   1.065   5.541   1.273 -0.2699  0.2078 -0.3709
 1024TIP3    H124487   1.054   5.478   1.344 -0.1491  0.0207 -0.5175
 1024TIP3    H224488   1.019   5.620   1.303  1.6110  0.8971  0.8609
 1025TIP3   OH224489   2.918   4.027  12.087  0.0679 -0.3575  0.1156
 1025TIP3    H124490   2.994   4.069  12.049  0.3917  0.0378  1.1738
 1025TIP3    H224491   2.875   4.096  12.138 -0.8416 -0.6482 -0.2256
 1026TIP3   OH224492   6.320   1.093  11.088 -0.3659 -0.0495  0.2880
 1026TIP3    H124493   6.412   1.076  11.068 -0.1943  2.2976 -1.4215
 1026TIP3    H224494   6.272   1.039  11.026 -0.0900 -0.3210  0.3093
 1027TIP3   OH224495   3.595   4.266  12.850  0.1133 -0.0429  0.3501
 1027TIP3    H124496   3.646   4.191  12.881 -0.4766 -0.8465 -0.5596
 1027TIP3    H224497   3.559   4.304  12.929 -1.2600 -1.9621  0.7245
 1028TIP3   OH224498   6.686   0.203  15.462 -0.1758 -0.6002 -0.7738
 1028TIP3    H124499   6.626   0.275  15.484  0.7401 -0.1660  0.4249
 1028TIP3    H224500   6.633   0.124  15.475 -0.4586 -0.2393  0.4935
 1029TIP3   OH224501   2.916   0.517   3.724 -0.3157 -0.0629  0.2487
 1029TIP3    H124502   2.960   0.588   3.771 -1.5437  0.4689  0.6275
 1029TIP3    H224503   2.982   0.448   3.718  1.2615  1.4680 -1.0271
 1030TIP3   OH224504   0.553   0.241  15.764  0.5995 -0.0815  0.7340
 1030TIP3    H124505   0.577   0.309  15.701  0.2317 -0.1248  0.5448
 1030TIP3    H224506   0.460   0.256  15.781  0.6709 -0.1380  1.1875
 1031TIP3   OH224507   2.239   0.360   5.194 -0.6157 -0.2597 -0.3024
 1031TIP3    H124508   2.152   0.321   5.208 -0.8252  0.3515  0.1331
 1031TIP3    H224509   2.255   0.349   5.100 -1.8994  1.1057 -0.7186
 1032TIP3   OH224510   5.142   0.760   3.306  0.4336 -0.1824  0.0739
 1032TIP3    H124511   5.082   0.685   3.312  1.7765 -1.3912 -0.8796
 1032TIP3    H224512   5.091   0.834   3.340 -1.4571 -1.2183 -0.3427
 1033TIP3   OH224513   5.931   2.868   4.430 -0.5995 -0.0381 -0.1455
 1033TIP3    H124514   6.005   2.907   4.384  0.4929 -0.2935  1.2907
 1033TIP3    H224515   5.923   2.780   4.393  0.3343 -0.2814  0.1887
 1034TIP3   OH224516   5.977   4.257  11.735 -0.5086 -0.0774 -0.2922
 1034TIP3    H124517   5.994   4.250  11.641  1.2346  0.9135 -0.0929
 1034TIP3    H224518   6.001   4.347  11.758  3.0564 -1.3596  1.7768
 1035TIP3   OH224519   5.817   2.811  10.171 -0.7651 -0.3881  0.2115
 1035TIP3    H124520   5.821   2.846  10.260 -0.2848 -0.7964  0.3579
 1035TIP3    H224521   5.791   2.885  10.116 -0.3178  0.0545  0.5934
 1036TIP3   OH224522   4.813   1.545  14.537  0.0728 -0.0935  0.6330
 1036TIP3    H124523   4.754   1.520  14.466  0.1814 -0.0200  0.5153
 1036TIP3    H224524   4.901   1.530  14.501  0.2369 -4.6895  2.3217
 1037TIP3   OH224525   1.649   3.914  14.426 -0.6129 -0.3855  0.3394
 1037TIP3    H124526   1.622   3.829  14.392 -0.4281 -1.4574  2.6655
 1037TIP3    H224527   1.572   3.946  14.473  0.1303 -0.5301  1.7052
 1038TIP3   OH224528   3.808   3.528  14.336 -0.2463 -0.5285 -0.1052
 1038TIP3    H124529   3.884   3.553  14.283  0.5923 -1.4771  0.6189
 1038TIP3    H224530   3.772   3.452  14.291 -0.3605 -0.4996 -0.0617
 1039TIP3   OH224531   2.918   2.130  11.551 -0.9568 -0.6262 -0.0173
 1039TIP3    H124532   2.931   2.191  11.624 -0.2824  0.4006 -0.9450
 1039TIP3    H224533   2.833   2.155  11.514 -0.5188  0.0212 -0.6164
 1040TIP3   OH224534   2.098   5.453   5.703  0.1479  0.3310 -0.2384
 1040TIP3    H124535   2.073   5.530   5.754 -1.5573 -1.4218  1.7387
 1040TIP3    H224536   2.191   5.466   5.685  0.1119  2.4139  0.7717
 1041TIP3   OH224537   6.067   5.907  12.760 -0.5940 -0.0957 -0.9034
 1041TIP3    H124538   6.087   5.952  12.678  0.9121  0.4157 -0.2930
 1041TIP3    H224539   5.982   5.943  12.787 -0.1834  1.1985 -1.2453
 1042TIP3   OH224540   2.278   4.663   3.789  0.4136 -0.3720  0.6040
 1042TIP3    H124541   2.298   4.591   3.730  0.8853 -0.9492  1.4508
 1042TIP3    H224542   2.198   4.636   3.834  0.9335 -0.6605  1.3714
 1043TIP3   OH224543   3.098   3.952   2.145  0.1162  0.5227  0.4619
 1043TIP3    H124544   3.102   3.963   2.050  0.1335  1.0037  0.5165
 1043TIP3    H224545   3.128   4.036   2.180  1.8772 -0.2433  0.9016
 1044TIP3   OH224546   5.004   6.555  11.802 -0.3744  0.1122  0.3896
 1044TIP3    H124547   4.958   6.603  11.733 -1.3272  0.9126  1.5399
 1044TIP3    H224548   5.079   6.515  11.757 -1.8790 -0.8281 -1.4538
 1045TIP3   OH224549   5.470   4.234   1.504  0.4621 -0.2199 -0.2678
 1045TIP3    H124550   5.394   4.208   1.453 -0.0076 -1.2652  0.9119
 1045TIP3    H224551   5.517   4.152   1.521  0.4005  0.0195  1.2435
 1046TIP3   OH224552   0.621   5.213   2.504  0.3716 -0.0864 -0.2164
 1046TIP3    H124553   0.528   5.207   2.485  0.2242 -1.2033  0.7140
 1046TIP3    H224554   0.663   5.211   2.418 -0.4375 -0.1312 -0.6193
 1047TIP3   OH224555   5.627   6.278   1.952 -0.8179  0.7477 -0.5173
 1047TIP3    H124556   5.585   6.338   2.012 -2.5806 -0.4913 -0.4225
 1047TIP3    H224557   5.660   6.333   1.881 -0.8964  1.9689  0.3755
 1048TIP3   OH224558   4.952   2.051   4.019 -0.2109  0.4823 -0.3375
 1048TIP3    H124559   4.961   1.963   3.980  0.6406  0.8126 -0.9256
 1048TIP3    H224560   4.868   2.083   3.986 -0.8892 -0.3895  0.4809
 1049TIP3   OH224561   6.723   0.051  12.643 -0.6640 -0.3495 -0.0469
 1049TIP3    H124562   6.634   0.052  12.679  0.0643  1.6780  1.8978
 1049TIP3    H224563   6.780   0.040  12.719  0.8198  0.1264 -1.0571
 1050TIP3   OH224564   1.102   0.601   1.703 -0.6299  0.2368 -0.1956
 1050TIP3    H124565   1.130   0.637   1.619 -1.8576  1.4466 -0.1171
 1050TIP3    H224566   1.012   0.630   1.713 -0.2181  0.9333  1.9781
 1051TIP3   OH224567   1.543   3.857   2.254 -0.6906 -0.1390 -0.4420
 1051TIP3    H124568   1.554   3.836   2.161 -1.4372  0.6693 -0.7196
 1051TIP3    H224569   1.572   3.947   2.262  0.1324 -0.4539  0.2756
 1052TIP3   OH224570   1.542   3.113   3.127  0.0120  0.2539  0.1859
 1052TIP3    H124571   1.502   3.151   3.205  0.9586  1.3194  0.1909
 1052TIP3    H224572   1.636   3.116   3.145  0.1670 -1.5486 -0.0998
 1053TIP3   OH224573   5.816   4.621   1.046 -0.1269  0.2264  0.3862
 1053TIP3    H124574   5.742   4.574   1.084 -0.7631  1.8218  1.2532
 1053TIP3    H224575   5.890   4.562   1.057 -0.7222 -0.2554  2.1940
 1054TIP3   OH224576   4.801   4.492   2.654  0.0383 -0.2475 -0.7082
 1054TIP3    H124577   4.792   4.443   2.735 -0.8578  3.8238  1.9655
 1054TIP3    H224578   4.896   4.499   2.640  0.2374 -3.4675 -1.9285
 1055TIP3   OH224579   0.802   6.186   2.294  0.3549  0.5583 -0.6086
 1055TIP3    H124580   0.858   6.109   2.282  0.1265  0.3382 -0.2991
 1055TIP3    H224581   0.741   6.183   2.220  0.0076  0.1407 -0.3102
 1056TIP3   OH224582   5.908   1.265  11.419 -0.0220 -0.0656  0.2783
 1056TIP3    H124583   5.914   1.171  11.402  0.4232 -0.1701  0.9950
 1056TIP3    H224584   5.933   1.306  11.336 -1.4146 -0.5648 -0.4211
 1057TIP3   OH224585   3.393   6.706  15.115  0.5400 -0.5575 -0.9074
 1057TIP3    H124586   3.418   6.614  15.122  0.4836 -0.5013  0.4010
 1057TIP3    H224587   3.453   6.751  15.175  2.0009  0.5901 -3.1125
 1058TIP3   OH224588   2.369   0.875  12.987 -1.0330 -0.4601 -0.0277
 1058TIP3    H124589   2.342   0.804  13.045 -1.7853 -0.0691  0.1007
 1058TIP3    H224590   2.428   0.832  12.924  0.7955 -0.6653  1.7190
 1059TIP3   OH224591   2.088   2.137  11.193  0.2242  0.1189  0.3752
 1059TIP3    H124592   2.125   2.203  11.134  1.0716 -0.1516  0.5934
 1059TIP3    H224593   2.142   2.143  11.272 -0.3083 -0.1716  0.7640
 1060TIP3   OH224594   0.032   5.620   1.909 -0.3278 -0.1433 -0.3424
 1060TIP3    H124595   0.114   5.668   1.914  0.2668 -1.1558 -0.2455
 1060TIP3    H224596   0.050   5.548   1.849 -1.0564 -0.5626 -0.0687
 1061TIP3   OH224597   3.279   1.221  15.505  0.3823 -0.2310  0.5389
 1061TIP3    H124598   3.207   1.219  15.569  0.6538 -0.9391  0.8274
 1061TIP3    H224599   3.248   1.280  15.436 -0.2356 -0.0702  0.9483
 1062TIP3   OH224600   5.399   5.483  13.118 -0.3263 -0.2059 -0.1717
 1062TIP3    H124601   5.482   5.436  13.113 -0.8924 -1.2125 -0.3865
 1062TIP3    H224602   5.371   5.471  13.209 -0.4886 -0.3307 -0.2366
 1063TIP3   OH224603   1.055   1.439   0.906 -0.3719  0.1649  0.6399
 1063TIP3    H124604   0.959   1.449   0.901 -0.5272 -0.3617  2.1309
 1063TIP3    H224605   1.089   1.526   0.884 -1.0831 -0.1182 -1.8690
 1064TIP3   OH224606   4.982   5.078   3.291 -0.5960  0.5345 -0.0192
 1064TIP3    H124607   5.036   5.156   3.293 -2.9528  2.2549  1.0847
 1064TIP3    H224608   5.022   5.019   3.355  0.8678  1.0319 -0.4372
 1065TIP3   OH224609   1.335   4.559   3.264 -0.1975  0.6767  0.5006
 1065TIP3    H124610   1.335   4.649   3.231  0.9990  0.6109  0.2729
 1065TIP3    H224611   1.254   4.551   3.313 -1.0227  1.4306 -0.6959
 1066TIP3   OH224612   4.818   1.305  12.169 -0.2153 -0.4783  0.0123
 1066TIP3    H124613   4.866   1.365  12.111 -1.9343 -0.1646 -1.1564
 1066TIP3    H224614   4.743   1.277  12.117 -1.9201 -0.0982  2.1399
 1067TIP3   OH224615   0.152   3.123  14.922  0.1075  0.2335 -0.3425
 1067TIP3    H124616   0.111   3.206  14.946 -1.8733 -0.7953  0.0588
 1067TIP3    H224617   0.246   3.137  14.935 -0.2437  2.1785  0.3490
 1068TIP3   OH224618   5.263   1.458  16.422  0.7441  0.4970  0.3299
 1068TIP3    H124619   5.337   1.407  16.456 -0.6786 -0.9909  1.3837
 1068TIP3    H224620   5.225   1.499  16.500 -0.9930 -0.8092  0.2330
 1069TIP3   OH224621   6.552   6.542  14.478 -0.5403  0.4269  0.4762
 1069TIP3    H124622   6.635   6.530  14.523  0.1039  2.8053  0.0651
 1069TIP3    H224623   6.509   6.457  14.484 -0.4789  0.4200  5.4512
 1070TIP3   OH224624   0.730   0.621   1.925  0.1430 -0.0991 -0.5412
 1070TIP3    H124625   0.693   0.538   1.956 -0.1038 -0.3906 -1.5554
 1070TIP3    H224626   0.819   0.622   1.959 -0.3246 -0.0857  0.7098
 1071TIP3   OH224627   5.467   2.082  14.146  0.0315  0.1092  0.5451
 1071TIP3    H124628   5.502   2.071  14.234  0.1324  0.2607  0.5234
 1071TIP3    H224629   5.379   2.046  14.151 -0.9796  2.5229  1.3985
 1072TIP3   OH224630   5.572   5.953   4.893  0.0632 -0.3277  0.4859
 1072TIP3    H124631   5.534   5.866   4.883 -0.4228 -0.1318  0.5729
 1072TIP3    H224632   5.557   5.974   4.985 -0.0434 -0.0538  0.4064
 1073TIP3   OH224633   0.336   3.484   4.364 -0.4697 -0.7073  0.3273
 1073TIP3    H124634   0.409   3.540   4.336 -1.2403  0.9321  1.3861
 1073TIP3    H224635   0.303   3.446   4.283  0.2324  0.2058 -0.4186
 1074TIP3   OH224636   1.930   0.827  12.668 -0.0285  0.1003  0.3322
 1074TIP3    H124637   1.909   0.895  12.733  0.9913 -1.5200  2.5003
 1074TIP3    H224638   1.975   0.874  12.598  0.0052  1.7531  1.3998
 1075TIP3   OH224639   0.536   0.390  11.314  0.0032 -0.5221 -0.1509
 1075TIP3    H124640   0.590   0.354  11.244  1.1335  0.7525  0.0047
 1075TIP3    H224641   0.509   0.314  11.366  0.7893 -1.2913 -0.8464
 1076TIP3   OH224642   1.559   6.627   6.804  0.0231  0.7999  0.1726
 1076TIP3    H124643   1.519   6.567   6.867 -0.4609  0.7587 -0.1617
 1076TIP3    H224644   1.650   6.633   6.831 -0.2943  1.1974  1.1832
 1077TIP3   OH224645   1.670   3.638  13.345  0.6404  0.1867 -0.1173
 1077TIP3    H124646   1.755   3.637  13.388  1.2923  3.0036 -1.0869
 1077TIP3    H224647   1.685   3.602  13.258  0.5773 -0.3333  0.0842
 1078TIP3   OH224648   1.986   2.079  14.380 -0.0379  0.3590 -0.2802
 1078TIP3    H124649   1.898   2.045  14.397 -0.2030  0.5241 -0.7820
 1078TIP3    H224650   2.034   2.063  14.461 -0.7742  1.0753  0.3157
 1079TIP3   OH224651   1.890   3.605  11.111 -0.6081  0.1382 -0.7245
 1079TIP3    H124652   1.812   3.635  11.065 -0.0750 -1.8979 -3.1663
 1079TIP3    H224653   1.963   3.630  11.055  0.1102 -1.9715 -0.8187
 1080TIP3   OH224654   1.313   0.356   0.224 -0.0872  0.2466 -0.0001
 1080TIP3    H124655   1.279   0.285   0.168 -1.0368  0.1386  0.6915
 1080TIP3    H224656   1.322   0.316   0.310  2.2209  0.1625 -0.2229
 1081TIP3   OH224657   2.768   5.208  15.967 -0.8141  0.3401  0.2425
 1081TIP3    H124658   2.739   5.162  15.889  2.1410  0.9757 -1.3456
 1081TIP3    H224659   2.737   5.298  15.955  2.5807  1.3590 -2.1084
 1082TIP3   OH224660   3.278   3.619   1.349  0.0335 -0.0022  0.2306
 1082TIP3    H124661   3.214   3.677   1.308  1.4820 -0.4520 -3.0384
 1082TIP3    H224662   3.363   3.661   1.333  0.9072 -1.7164  0.0660
 1083TIP3   OH224663   4.735   1.183   1.518  0.0695 -0.1217  0.1565
 1083TIP3    H124664   4.747   1.183   1.613 -2.7151  1.6496  0.6154
 1083TIP3    H224665   4.822   1.163   1.483  0.9762 -1.8602  3.0429
 1084TIP3   OH224666   4.157   6.710   3.064 -0.2908 -0.1267  0.1761
 1084TIP3    H124667   4.084   6.653   3.084 -0.4873 -0.9751 -2.5352
 1084TIP3    H224668   4.117   6.788   3.026  0.1541 -0.7547 -1.6816
 1085TIP3   OH224669   0.839   5.442   2.183 -0.1999  0.4297 -0.7022
 1085TIP3    H124670   0.918   5.488   2.211 -0.0729 -0.0168 -0.3172
 1085TIP3    H224671   0.848   5.436   2.088  0.6753 -0.4146 -0.5822
 1086TIP3   OH224672   3.854   6.647   2.808  0.0059  0.2830 -0.3427
 1086TIP3    H124673   3.905   6.586   2.862 -0.1975  0.1384 -0.3143
 1086TIP3    H224674   3.806   6.700   2.871 -0.1263  0.2057 -0.3787
 1087TIP3   OH224675   4.453   5.763   4.741 -0.2735 -0.1907 -0.1131
 1087TIP3    H124676   4.411   5.699   4.799 -1.2593  0.4009 -0.1538
 1087TIP3    H224677   4.546   5.743   4.747 -0.3517 -0.1113  1.7174
 1088TIP3   OH224678   5.967   1.626  15.189 -0.3192 -0.3469  0.2895
 1088TIP3    H124679   6.006   1.562  15.130  2.5692 -0.1166  1.7454
 1088TIP3    H224680   5.978   1.588  15.277 -2.6276  0.2121  0.8867
 1089TIP3   OH224681   4.079   5.421   0.601 -0.4974  0.1628  0.1554
 1089TIP3    H124682   4.127   5.457   0.527  1.4250 -0.0839  1.2036
 1089TIP3    H224683   4.075   5.492   0.665 -2.3894  0.4682 -0.2402
 1090TIP3   OH224684   5.884   1.842   0.553 -0.1144 -0.2054 -0.3268
 1090TIP3    H124685   5.902   1.797   0.470  0.2187  1.3301 -1.1218
 1090TIP3    H224686   5.958   1.901   0.564 -0.5441  0.1536  0.6924
 1091TIP3   OH224687   5.837   3.546   1.883 -0.1502 -0.3160  0.1957
 1091TIP3    H124688   5.825   3.595   1.801 -0.2011 -1.1773 -0.3303
 1091TIP3    H224689   5.783   3.467   1.871 -0.5207 -0.2378  1.2492
 1092TIP3   OH224690   2.391   6.463   1.977  0.3553 -0.1414 -0.1428
 1092TIP3    H124691   2.422   6.553   1.979  1.4160 -0.4879 -0.7376
 1092TIP3    H224692   2.378   6.443   1.885 -0.7217 -0.3239  0.0344
 1093TIP3   OH224693   1.773   5.592   4.262  0.1185 -0.2660 -0.0151
 1093TIP3    H124694   1.813   5.607   4.348  0.0562 -0.1398 -0.0090
 1093TIP3    H224695   1.694   5.645   4.262 -1.2667 -2.2291  0.8381
 1094TIP3   OH224696   2.867   1.306  14.894 -0.2243 -0.9308  0.2683
 1094TIP3    H124697   2.962   1.296  14.889 -0.3600 -1.7254 -1.2431
 1094TIP3    H224698   2.841   1.254  14.970  0.5053 -1.0080  0.4762
 1095TIP3   OH224699   1.957   5.656   3.214 -0.4463  0.2780  0.2528
 1095TIP3    H124700   1.967   5.678   3.122  0.8996 -0.4335  0.2042
 1095TIP3    H224701   1.935   5.739   3.257 -0.0537  0.8062 -0.5572
 1096TIP3   OH224702   6.268   6.261   0.136 -0.2424  0.2266  0.6955
 1096TIP3    H124703   6.338   6.251   0.071 -0.5839 -4.2500  0.7020
 1096TIP3    H224704   6.307   6.234   0.219 -0.8490  2.0998  1.6393
 1097TIP3   OH224705   3.376   0.704  13.982  0.2431  0.1933  0.0652
 1097TIP3    H124706   3.440   0.673  13.918  0.9383 -1.4225  1.4636
 1097TIP3    H224707   3.427   0.759  14.043 -0.2531  1.0717 -0.2859
 1098TIP3   OH224708   2.484   0.977   2.647 -0.0745 -0.5271 -0.0767
 1098TIP3    H124709   2.514   1.034   2.576  0.5558 -0.8531 -0.0769
 1098TIP3    H224710   2.396   0.948   2.619 -0.3445  0.3254 -0.1394
 1099TIP3   OH224711   5.277   2.838   5.629  0.0552  0.3290  0.4788
 1099TIP3    H124712   5.185   2.861   5.641  0.0983  1.4700 -1.0522
 1099TIP3    H224713   5.324   2.896   5.689 -0.1108  1.5707 -0.5218
 1100TIP3   OH224714   3.783   2.859   3.539  0.2057  0.3554  0.0871
 1100TIP3    H124715   3.783   2.765   3.519 -0.1685  0.4023 -0.1539
 1100TIP3    H224716   3.849   2.897   3.482  1.5495  0.0093  1.3559
 1101TIP3   OH224717   3.616   4.213  16.742  0.1762 -0.2360 -0.1138
 1101TIP3    H124718   3.530   4.204  16.700  1.0245 -1.2694 -1.7357
 1101TIP3    H224719   3.639   4.124  16.770  0.0603  0.2825  1.7712
 1102TIP3   OH224720   3.100   5.170  14.409  0.1138  0.0239  0.3194
 1102TIP3    H124721   3.131   5.229  14.478  0.4223  0.3908 -0.1321
 1102TIP3    H224722   3.172   5.166  14.346 -0.4282  0.2261 -0.3196
 1103TIP3   OH224723   2.228   1.581  17.322 -0.2727 -0.1336  0.7916
 1103TIP3    H124724   2.219   1.665  17.368 -0.8745  0.2551  0.0146
 1103TIP3    H224725   2.156   1.528  17.355 -2.6709  1.2115 -1.7913
 1104TIP3   OH224726   6.725   2.858   5.910 -0.2916 -0.2108 -0.1819
 1104TIP3    H124727   6.798   2.876   5.851  0.5088 -1.0533  0.5231
 1104TIP3    H224728   6.685   2.779   5.874 -1.1793  0.5243 -0.8483
 1105TIP3   OH224729   5.638   5.916  16.939  0.2221  0.2087  0.2661
 1105TIP3    H124730   5.720   5.958  16.963  0.2643  0.5498 -0.4435
 1105TIP3    H224731   5.636   5.919  16.844  1.2599 -3.3636 -0.0127
 1106TIP3   OH224732   3.804   6.498  10.828 -0.3395 -0.1542  0.0763
 1106TIP3    H124733   3.797   6.414  10.874 -2.0473 -1.0856 -1.7349
 1106TIP3    H224734   3.719   6.539  10.841  0.2057  0.9415  0.2568
 1107TIP3   OH224735   4.786   1.630  14.055  0.5611  0.3555  0.3114
 1107TIP3    H124736   4.834   1.701  14.098 -4.6005  5.0232 -0.3805
 1107TIP3    H224737   4.730   1.594  14.124  1.7264 -1.8351  0.1923
 1108TIP3   OH224738   3.242   0.789  14.709  0.3795  0.4730 -0.2982
 1108TIP3    H124739   3.304   0.732  14.663  1.1539  2.0250 -1.2235
 1108TIP3    H224740   3.199   0.839  14.640 -1.9583 -0.5232  0.3058
 1109TIP3   OH224741   2.490   5.307   2.660 -0.7106 -0.7140  0.0901
 1109TIP3    H124742   2.447   5.392   2.673 -0.0167 -0.3260 -0.1135
 1109TIP3    H224743   2.546   5.320   2.584  2.3127 -0.1869  2.2560
 1110TIP3   OH224744   0.614   5.862  12.675  0.1760 -0.0886 -0.0218
 1110TIP3    H124745   0.606   5.873  12.581  2.0434  1.5751 -0.0437
 1110TIP3    H224746   0.527   5.831  12.703 -0.4990 -0.3447 -2.2067
 1111TIP3   OH224747   3.525   4.636   4.591  0.6251 -0.0082 -0.1502
 1111TIP3    H124748   3.537   4.664   4.500  1.4449 -0.8231 -0.2960
 1111TIP3    H224749   3.575   4.700   4.642  0.9091 -0.0863 -0.3327
 1112TIP3   OH224750   2.066   2.537  16.427 -0.0429 -0.0392 -0.1617
 1112TIP3    H124751   2.147   2.545  16.376 -0.7089 -2.1385 -1.6780
 1112TIP3    H224752   2.004   2.595  16.384 -0.0428 -0.2985 -0.5096
 1113TIP3   OH224753   1.261   3.132   1.263 -0.3143  0.1667 -0.0267
 1113TIP3    H124754   1.317   3.209   1.265 -1.3305  0.9686 -0.7480
 1113TIP3    H224755   1.281   3.084   1.343 -0.0691  1.4849  0.7202
 1114TIP3   OH224756   3.495   3.642  14.588  1.0098 -0.1237  0.2877
 1114TIP3    H124757   3.489   3.727  14.632  1.6260 -0.2888  0.6932
 1114TIP3    H224758   3.411   3.600  14.605  0.9088  0.1838  0.5470
 1115TIP3   OH224759   2.391   0.758  11.916  0.0907 -0.2810  0.3468
 1115TIP3    H124760   2.334   0.814  11.863 -1.3094 -2.3259 -0.4276
 1115TIP3    H224761   2.454   0.722  11.853  0.6657  0.0007  0.7490
 1116TIP3   OH224762   4.631   3.441   2.271 -0.1483  0.8081 -0.1485
 1116TIP3    H124763   4.536   3.450   2.273 -0.5742 -2.2496 -1.2990
 1116TIP3    H224764   4.653   3.403   2.356 -0.4009 -1.2186 -0.9413
 1117TIP3   OH224765   1.918   3.900  14.521  0.4535  0.3440  0.2769
 1117TIP3    H124766   1.835   3.910  14.473 -0.2683 -0.3938  1.3330
 1117TIP3    H224767   1.934   3.806  14.521  1.2758  0.4775  0.1334
 1118TIP3   OH224768   5.085   4.501  12.174 -0.0992  0.1693  0.0120
 1118TIP3    H124769   5.150   4.435  12.150 -0.8519  0.0558 -1.8800
 1118TIP3    H224770   5.133   4.583  12.173  0.1560  0.0169 -0.7707
 1119TIP3   OH224771   6.025   0.113   1.196  0.3809  0.4734 -0.1506
 1119TIP3    H124772   5.986   0.026   1.205  0.5675  0.5680  2.2788
 1119TIP3    H224773   6.104   0.099   1.144  0.8145 -0.9834  0.8292
 1120TIP3   OH224774   6.668   0.938   5.363  0.5275  0.4763 -0.0985
 1120TIP3    H124775   6.590   0.887   5.341  0.0719 -0.4942  3.2790
 1120TIP3    H224776   6.741   0.877   5.354  0.1007 -0.6154  2.8397
 1121TIP3   OH224777   6.328   2.787   2.258 -0.2540 -0.1856 -0.2111
 1121TIP3    H124778   6.387   2.740   2.198  0.3668  0.6492 -0.2670
 1121TIP3    H224779   6.385   2.819   2.328 -0.5496  1.0411 -0.5145
 1122TIP3   OH224780   0.622   2.686  11.841 -0.3028  0.1503  0.0473
 1122TIP3    H124781   0.536   2.648  11.857 -1.4182  1.3849 -2.5082
 1122TIP3    H224782   0.659   2.631  11.772  0.5546  0.2278  0.4347
 1123TIP3   OH224783   2.572   6.502  12.498  0.1572  0.2214  0.5027
 1123TIP3    H124784   2.531   6.499  12.411 -0.3845 -1.0366  0.7696
 1123TIP3    H224785   2.625   6.422  12.502  0.5080  0.4763  1.1795
 1124TIP3   OH224786   1.478   3.781  11.166  0.3306  0.3743 -0.0599
 1124TIP3    H124787   1.534   3.778  11.089 -1.0536  0.8098 -1.1262
 1124TIP3    H224788   1.392   3.755  11.135 -0.4402  1.2967  1.1736
 1125TIP3   OH224789   3.082   0.050  13.515  0.1976 -0.3629  0.0480
 1125TIP3    H124790   3.121   0.015  13.435 -1.7867  1.1104 -1.6516
 1125TIP3    H224791   3.069  -0.027  13.571  0.6799 -1.5852 -1.4620
 1126TIP3   OH224792   4.845   0.214   2.980  0.3002 -0.2500  0.7585
 1126TIP3    H124793   4.918   0.224   2.920 -1.7508  1.9117 -1.6047
 1126TIP3    H224794   4.871   0.263   3.058  1.1159  1.0381 -0.2863
 1127TIP3   OH224795   6.135   6.636   4.846 -0.0067 -0.9274 -0.7020
 1127TIP3    H124796   6.111   6.632   4.753  0.2536  3.6224 -1.2003
 1127TIP3    H224797   6.052   6.647   4.892  0.0362 -0.1768 -0.7845
 1128TIP3   OH224798   5.399   2.060  14.687  0.4071  0.2202  0.1394
 1128TIP3    H124799   5.407   2.064  14.782 -0.0505  0.4968  0.1672
 1128TIP3    H224800   5.353   1.977  14.670  0.1280  0.3626  0.1864
 1129TIP3   OH224801   0.850   5.021   4.637  0.3601  0.0579  0.0140
 1129TIP3    H124802   0.843   4.998   4.730  0.4864  1.1603  0.3078
 1129TIP3    H224803   0.849   4.937   4.592  2.4088 -0.6355  1.1420
 1130TIP3   OH224804   4.785   5.393   4.867 -0.2777  0.5103 -0.4877
 1130TIP3    H124805   4.840   5.338   4.923 -1.0380  0.4268  0.2038
 1130TIP3    H224806   4.846   5.434   4.806  0.8056  1.5765  1.1893
 1131TIP3   OH224807   3.848   0.735  17.390  0.5460 -0.2881 -0.1318
 1131TIP3    H124808   3.926   0.682  17.409  1.3952  0.2235 -2.0061
 1131TIP3    H224809   3.821   0.708  17.303  0.6745  1.9171 -0.9182
 1132TIP3   OH224810   5.390   0.524  11.425 -0.5211  0.3960  0.0095
 1132TIP3    H124811   5.383   0.455  11.358 -2.5026 -0.7225  1.2692
 1132TIP3    H224812   5.457   0.493  11.485  0.3619  0.7977 -0.7451
 1133TIP3   OH224813   5.337   4.872  12.859 -0.0444  0.0322 -0.5779
 1133TIP3    H124814   5.264   4.909  12.909  0.0975 -0.9186  0.3712
 1133TIP3    H224815   5.334   4.778  12.878  1.6045  0.0133 -0.2887
 1134TIP3   OH224816   0.743   5.948   0.377  0.2302  0.3535  0.2949
 1134TIP3    H124817   0.758   5.878   0.441  3.1325  0.9984  0.4288
 1134TIP3    H224818   0.685   6.010   0.423  1.2345  0.1856  1.8604
 1135TIP3   OH224819   4.827   6.596  12.148 -0.1300 -0.3332  0.2022
 1135TIP3    H124820   4.901   6.648  12.117 -0.8971  1.3408  1.0452
 1135TIP3    H224821   4.848   6.576  12.239 -0.9815  0.8047  0.6920
 1136TIP3   OH224822   2.026   2.236   4.036 -0.3684  0.3394  0.0962
 1136TIP3    H124823   2.005   2.319   3.994  0.4855 -1.0338 -3.4683
 1136TIP3    H224824   1.952   2.179   4.014  0.2623 -0.5240  0.1701
 1137TIP3   OH224825   0.721   6.009  11.760  0.1861  0.1033 -0.4053
 1137TIP3    H124826   0.773   5.930  11.771 -0.8550 -0.5588 -0.1006
 1137TIP3    H224827   0.633   5.977  11.741  0.1433  1.1937 -2.2771
 1138TIP3   OH224828   6.436   0.908  15.466  0.9482  0.4252  0.3403
 1138TIP3    H124829   6.522   0.924  15.506  1.0792  0.6893 -0.0373
 1138TIP3    H224830   6.440   0.818  15.434  0.8747  0.2422  0.8369
 1139TIP3   OH224831   4.788   6.722   6.554  0.1963 -0.7310 -0.1283
 1139TIP3    H124832   4.752   6.721   6.643 -1.5899 -0.1327 -0.8019
 1139TIP3    H224833   4.722   6.678   6.501 -0.2432  1.5812 -1.6477
 1140TIP3   OH224834   0.301   5.266  16.711  0.3321 -0.5047 -0.4802
 1140TIP3    H124835   0.371   5.319  16.750  1.2730 -1.0976 -1.3355
 1140TIP3    H224836   0.346   5.199  16.661 -0.8606 -0.6780 -1.3639
 1141TIP3   OH224837   1.454   4.251  15.347 -0.1412  0.3302 -0.4504
 1141TIP3    H124838   1.512   4.181  15.379  0.5586  1.7560  1.5703
 1141TIP3    H224839   1.382   4.204  15.303  0.3940 -1.6486  0.6757
 1142TIP3   OH224840   5.298   1.132   2.391 -0.3479 -0.6960 -0.0911
 1142TIP3    H124841   5.289   1.144   2.486  0.5352  1.7294 -0.2485
 1142TIP3    H224842   5.387   1.162   2.372 -0.7001 -0.6452 -1.7605
 1143TIP3   OH224843   1.891   4.656   1.870 -0.0830  0.3374  0.0354
 1143TIP3    H124844   1.882   4.746   1.900 -0.4311  0.5856 -0.7853
 1143TIP3    H224845   1.829   4.606   1.923 -0.7474  0.7787 -0.3136
 1144TIP3   OH224846   6.704   1.716   5.083 -0.1997 -0.4926  0.2997
 1144TIP3    H124847   6.790   1.743   5.051 -0.1484 -1.9987 -0.9940
 1144TIP3    H224848   6.720   1.687   5.173  0.8185 -1.3829 -0.1382
 1145TIP3   OH224849   4.237   4.627   4.456  0.2463  0.8285 -0.5931
 1145TIP3    H124850   4.283   4.544   4.468 -1.6923  0.0365  2.1338
 1145TIP3    H224851   4.287   4.672   4.387  2.0590 -2.0433 -1.3157
 1146TIP3   OH224852   1.584   0.403   2.846  0.5890 -0.0600 -0.4497
 1146TIP3    H124853   1.627   0.477   2.890  1.0441  0.1348 -1.2076
 1146TIP3    H224854   1.604   0.415   2.753  1.6779 -1.7784 -0.4821
 1147TIP3   OH224855   3.487   1.826   1.706  0.2142  0.0359 -0.6111
 1147TIP3    H124856   3.526   1.740   1.689 -1.6858 -1.6581  2.6383
 1147TIP3    H224857   3.539   1.861   1.778  0.0509  0.9687 -0.9394
 1148TIP3   OH224858   5.652   0.515  16.773  0.3821  0.1808  0.5172
 1148TIP3    H124859   5.604   0.596  16.762 -0.4756 -0.3881 -0.0466
 1148TIP3    H224860   5.717   0.515  16.702 -0.7486 -0.3986 -0.5504
 1149TIP3   OH224861   4.286   5.706   3.479 -0.3945 -0.9117 -0.6810
 1149TIP3    H124862   4.327   5.698   3.393 -1.0404  3.7444 -1.7011
 1149TIP3    H224863   4.354   5.741   3.536 -0.4779 -2.1724  0.2191
 1150TIP3   OH224864   3.967   4.736   3.919 -0.5394  0.0103 -0.0696
 1150TIP3    H124865   3.885   4.782   3.906 -2.2160 -1.9786  2.3796
 1150TIP3    H224866   4.026   4.801   3.957 -0.6512  1.6493 -2.4957
 1151TIP3   OH224867   3.331   1.512   6.130  0.0566  0.0693  0.3243
 1151TIP3    H124868   3.393   1.534   6.060  0.1392 -0.1376  0.3292
 1151TIP3    H224869   3.384   1.464   6.194 -0.6579 -2.7973 -1.0440
 1152TIP3   OH224870   5.806   6.139   6.544  0.6008  0.5664  0.0051
 1152TIP3    H124871   5.792   6.048   6.516  2.0284  0.4322 -0.3527
 1152TIP3    H224872   5.853   6.132   6.627 -0.5595  0.9916  0.7219
 1153TIP3   OH224873   6.484   5.439   0.734 -0.1485  0.0122 -0.2662
 1153TIP3    H124874   6.487   5.392   0.818  0.8265 -0.4076 -0.5184
 1153TIP3    H224875   6.495   5.531   0.758  0.0991 -0.1026  0.0718
 1154TIP3   OH224876   0.179   4.438  11.440 -0.1416  0.5048  0.0975
 1154TIP3    H124877   0.273   4.438  11.423 -0.3339  0.5861 -1.1232
 1154TIP3    H224878   0.164   4.363  11.497  0.4470 -0.6038 -1.1535
 1155TIP3   OH224879   1.237   1.463  12.115  0.1534  0.1945 -0.6465
 1155TIP3    H124880   1.238   1.414  12.033 -2.2139 -0.4383 -0.3682
 1155TIP3    H224881   1.279   1.405  12.178  1.4736  0.4563 -1.2395
 1156TIP3   OH224882   2.683   2.033  15.383  0.1821  0.3340  0.4717
 1156TIP3    H124883   2.703   2.026  15.477  0.9456 -1.6199  0.2002
 1156TIP3    H224884   2.644   1.948  15.361 -0.1902  0.8544 -0.9575
 1157TIP3   OH224885   1.932   1.042   6.370  0.6188 -0.5394  0.0877
 1157TIP3    H124886   1.970   0.955   6.358  0.1733 -0.8506  0.8198
 1157TIP3    H224887   1.876   1.055   6.294  1.5094 -0.4295 -0.5715
 1158TIP3   OH224888   1.726   0.624   1.063 -0.6856 -0.1245  0.1239
 1158TIP3    H124889   1.772   0.663   0.989 -1.1729  2.1989  0.9567
 1158TIP3    H224890   1.650   0.680   1.077 -0.9396 -0.8582  1.9888
 1159TIP3   OH224891   3.156   1.152  11.619 -0.6800 -0.3687 -0.2678
 1159TIP3    H124892   3.064   1.127  11.608  0.3815 -4.3893 -1.7514
 1159TIP3    H224893   3.195   1.134  11.533  1.6598  0.4337  0.5750
 1160TIP3   OH224894   2.053   4.574   3.899  0.5561  0.6720  0.0579
 1160TIP3    H124895   2.027   4.657   3.939  1.3044  0.7327  0.4355
 1160TIP3    H224896   2.005   4.570   3.817  2.5474  2.7651 -1.3052
 1161TIP3   OH224897   0.125   4.053   1.726  0.0775 -0.5804  0.1740
 1161TIP3    H124898   0.115   3.966   1.765 -1.6372  0.0918  1.3614
 1161TIP3    H224899   0.219   4.071   1.731  0.3146 -1.8885  0.9804
 1162TIP3   OH224900   1.113   0.786  14.906 -0.1984  0.3701 -0.4875
 1162TIP3    H124901   1.205   0.765  14.892 -0.3722 -0.8005  0.0220
 1162TIP3    H224902   1.083   0.821  14.822  0.4547 -0.2293 -0.9829
 1163TIP3   OH224903   3.682   6.147   1.811  0.1868  0.3712  0.2135
 1163TIP3    H124904   3.627   6.076   1.845  1.4810 -0.3024  1.0132
 1163TIP3    H224905   3.696   6.205   1.886 -1.6846  2.0739 -0.6800
 1164TIP3   OH224906   5.008   4.598  13.789 -0.0353 -0.4089  0.1883
 1164TIP3    H124907   5.003   4.663  13.860 -1.7657  1.6117 -1.6226
 1164TIP3    H224908   5.026   4.650  13.711 -0.1250 -2.3282 -1.1687
 1165TIP3   OH224909   2.858   0.100   2.486  0.4903 -0.4297  0.5162
 1165TIP3    H124910   2.898   0.157   2.421 -1.4943 -0.2975 -0.6583
 1165TIP3    H224911   2.846   0.016   2.442 -0.8664 -0.3433  0.6709
 1166TIP3   OH224912   3.793   6.647   2.029 -0.3182  0.1119  0.1864
 1166TIP3    H124913   3.744   6.657   2.110 -0.4736 -0.2747  0.1405
 1166TIP3    H224914   3.777   6.728   1.981  0.0530  0.4928  0.6893
 1167TIP3   OH224915   6.193   6.173  13.495  0.3242  0.1321  0.1060
 1167TIP3    H124916   6.243   6.255  13.493  0.7482 -0.0947  0.9223
 1167TIP3    H224917   6.191   6.149  13.588 -1.0493 -0.0245  0.0484
 1168TIP3   OH224918   6.403   5.901  13.705  0.5743  0.3634  0.5436
 1168TIP3    H124919   6.482   5.955  13.709  1.4867 -0.7804 -0.8410
 1168TIP3    H224920   6.350   5.930  13.780  0.9030  3.2762 -0.2183
 1169TIP3   OH224921   2.516   5.698  10.573  0.1776  0.0676 -0.2175
 1169TIP3    H124922   2.498   5.792  10.567 -0.6813  0.0929  1.7992
 1169TIP3    H224923   2.511   5.667  10.483 -2.0110  1.5510 -0.7091
 1170TIP3   OH224924   4.890   0.597  11.226  0.1190  0.3271 -0.2483
 1170TIP3    H124925   4.967   0.583  11.281 -0.2288 -1.6584 -0.2037
 1170TIP3    H224926   4.827   0.640  11.283  1.0426  1.6795 -0.1938
 1171TIP3   OH224927   3.469   5.224   2.953 -1.0633  0.4187  0.0943
 1171TIP3    H124928   3.511   5.139   2.962 -2.1354 -0.1590 -0.2797
 1171TIP3    H224929   3.527   5.274   2.895 -0.8044 -0.3017 -0.2735
 1172TIP3   OH224930   1.431   2.117   5.145  0.2669  0.2272  0.5871
 1172TIP3    H124931   1.456   2.190   5.089 -1.4976 -0.3139 -1.0243
 1172TIP3    H224932   1.342   2.137   5.173 -0.8270 -1.9033 -1.0758
 1173TIP3   OH224933   0.599   6.666   1.484  0.1598 -0.4181 -0.4686
 1173TIP3    H124934   0.690   6.696   1.478  0.1028  0.3376  1.6691
 1173TIP3    H224935   0.552   6.740   1.521 -1.0071 -1.3971  0.0565
 1174TIP3   OH224936   0.362   3.816  12.658 -0.2074  0.2113 -0.4431
 1174TIP3    H124937   0.334   3.757  12.728  0.3903  1.6040  1.0382
 1174TIP3    H224938   0.282   3.863  12.633  0.0384  1.7600  1.4001
 1175TIP3   OH224939   6.537   0.548   0.199  0.7655  0.7100  0.0128
 1175TIP3    H124940   6.562   0.610   0.268 -1.4744 -1.7165  3.3207
 1175TIP3    H224941   6.619   0.506   0.174  1.6109  1.3720  1.5348
 1176TIP3   OH224942   2.511   5.231  10.872 -0.2757 -0.1544 -0.6879
 1176TIP3    H124943   2.604   5.219  10.853 -0.3655 -2.6426  0.1498
 1176TIP3    H224944   2.466   5.196  10.795 -0.5409 -0.2329 -0.4973
 1177TIP3   OH224945   1.847   4.695  16.410 -0.7669 -0.3925 -0.1402
 1177TIP3    H124946   1.829   4.726  16.498  0.0750 -0.7801  0.1853
 1177TIP3    H224947   1.905   4.620  16.423  0.0769  0.0797 -1.0534
 1178TIP3   OH224948   4.578   5.327   3.093 -0.7080  0.1296  0.4637
 1178TIP3    H124949   4.565   5.265   3.165  0.4514  0.5063  1.0122
 1178TIP3    H224950   4.558   5.276   3.014  1.4671 -1.3801  0.7939
 1179TIP3   OH224951   2.564   5.886  13.567 -0.2132  0.0645  0.2809
 1179TIP3    H124952   2.603   5.801  13.545 -0.6369 -0.0509 -0.0295
 1179TIP3    H224953   2.495   5.865  13.630  1.6067  0.4752  2.5744
 1180TIP3   OH224954   5.412   4.002  12.160 -0.0723  0.1357  0.3221
 1180TIP3    H124955   5.441   4.048  12.082  1.6937 -0.1554  0.7701
 1180TIP3    H224956   5.492   3.964  12.198 -0.8094  0.4987  2.4113
 1181TIP3   OH224957   3.148   2.578   5.245  0.1294  0.5440  0.4764
 1181TIP3    H124958   3.219   2.611   5.300  0.9808  0.3123 -0.4581
 1181TIP3    H224959   3.192   2.539   5.169 -0.9360 -0.6764  0.4411
 1182TIP3   OH224960   0.551   2.294  12.063  0.3003 -0.5834 -0.3720
 1182TIP3    H124961   0.505   2.357  12.120  1.9219 -1.0838  1.6263
 1182TIP3    H224962   0.483   2.259  12.007 -1.2862  0.5069  0.7599
 1183TIP3   OH224963   6.130   1.353  10.385  0.0254  0.1453  0.2289
 1183TIP3    H124964   6.132   1.261  10.356 -0.1309  0.3859 -0.5656
 1183TIP3    H224965   6.062   1.393  10.331  1.2906  1.1394 -0.6866
 1184TIP3   OH224966   1.764   2.973   5.403  0.1225  0.1218 -0.0556
 1184TIP3    H124967   1.837   2.920   5.371 -1.2687 -1.6566 -0.4538
 1184TIP3    H224968   1.758   3.046   5.341 -0.1605 -1.2459 -1.7253
 1185TIP3   OH224969   4.463   2.358  12.933  0.0315 -0.0309  0.2493
 1185TIP3    H124970   4.468   2.285  12.994  0.5569  0.7638  1.1901
 1185TIP3    H224971   4.379   2.399  12.951 -0.8653 -1.1296 -1.1802
 1186TIP3   OH224972   0.348   3.469  11.204 -0.2759 -0.4596  0.3444
 1186TIP3    H124973   0.368   3.546  11.257 -0.4795 -0.2313  0.0953
 1186TIP3    H224974   0.416   3.469  11.136  0.9066 -1.6130  1.4746
 1187TIP3   OH224975   4.476   1.106   0.778  0.1344  0.1083  0.6795
 1187TIP3    H124976   4.483   1.200   0.758  2.5679 -0.3324 -1.0061
 1187TIP3    H224977   4.388   1.082   0.748  0.9987  1.0441 -3.2852
 1188TIP3   OH224978   1.133   0.678   2.150  0.3607  0.3856  0.2545
 1188TIP3    H124979   1.075   0.753   2.136 -0.8822 -0.6475 -0.2893
 1188TIP3    H224980   1.189   0.677   2.073 -0.4965 -0.0015 -0.3787
 1189TIP3   OH224981   2.166   4.581   1.884  0.2865  0.1088  0.0170
 1189TIP3    H124982   2.076   4.603   1.907  0.4322 -0.4238  1.1716
 1189TIP3    H224983   2.178   4.492   1.916  0.8863 -0.2392 -1.1466
 1190TIP3   OH224984   1.689   0.923  16.480  0.2181 -0.1205 -0.1699
 1190TIP3    H124985   1.600   0.958  16.483 -0.4858 -1.7879 -0.5513
 1190TIP3    H224986   1.717   0.923  16.572 -0.7164 -0.8695  0.1321
 1191TIP3   OH224987   0.305   5.638   2.113  0.7685 -0.9099 -0.0105
 1191TIP3    H124988   0.229   5.663   2.166  1.3223 -2.1350  1.4487
 1191TIP3    H224989   0.286   5.672   2.026 -0.4538  0.6765  0.8238
 1192TIP3   OH224990   6.723   3.821  16.447 -0.3293 -0.4396 -0.2945
 1192TIP3    H124991   6.640   3.854  16.481 -0.9163 -0.4425 -1.6523
 1192TIP3    H224992   6.785   3.891  16.463 -1.3419  0.9983 -2.2409
 1193TIP3   OH224993   0.940   3.920   5.926 -0.1932 -0.1292 -0.1561
 1193TIP3    H124994   1.025   3.878   5.933  0.5962  1.5703  1.2608
 1193TIP3    H224995   0.890   3.865   5.865  1.5860 -1.6571 -0.2992
 1194TIP3   OH224996   1.530   1.604  15.661 -0.2242 -0.3832 -0.1836
 1194TIP3    H124997   1.618   1.636  15.641 -0.8863  0.0287 -2.7479
 1194TIP3    H224998   1.472   1.676  15.637 -1.3579 -1.1637  0.1071
 1195TIP3   OH224999   3.803   3.013  13.331 -0.1568 -0.5687  0.3014
 1195TIP3    H125000   3.892   3.028  13.299 -0.3163 -0.3529 -0.0382
 1195TIP3    H225001   3.815   2.976  13.419  0.2722 -0.8397  0.1311
 1196TIP3   OH225002   0.828   4.824   2.870  0.1466  0.3249 -0.1065
 1196TIP3    H125003   0.770   4.887   2.913  0.7886  1.7471 -1.2317
 1196TIP3    H225004   0.769   4.760   2.831 -0.6950  1.6019 -1.0092
 1197TIP3   OH225005   3.914   1.858  17.005 -0.0045 -0.0030 -0.5054
 1197TIP3    H125006   3.855   1.866  16.931 -2.2214 -0.5187  1.0983
 1197TIP3    H225007   3.956   1.773  16.993  1.1332  0.7473 -2.1156
 1198TIP3   OH225008   2.451   4.063  17.348  0.3656 -0.2039  0.0841
 1198TIP3    H125009   2.499   4.118  17.410 -0.2831 -1.7435  2.0614
 1198TIP3    H225010   2.372   4.037  17.395 -1.2828  0.3159 -2.2187
 1199TIP3   OH225011   0.500   1.295  12.155 -0.1679  0.1121 -0.0866
 1199TIP3    H125012   0.441   1.278  12.081  0.2831 -1.1130 -0.1884
 1199TIP3    H225013   0.569   1.351  12.118  0.7086 -1.4533 -0.9483
 1200TIP3   OH225014   2.449   6.415  11.769 -0.1750 -1.2774 -0.2140
 1200TIP3    H125015   2.466   6.439  11.678 -0.2896 -1.1290 -0.1964
 1200TIP3    H225016   2.401   6.333  11.764  0.1253 -1.4531 -0.2757
 1201TIP3   OH225017   2.168   5.007  16.454  0.0111 -0.2060  0.4531
 1201TIP3    H125018   2.239   5.058  16.493  0.9208 -1.9645  1.2203
 1201TIP3    H225019   2.202   4.918  16.452 -0.7343 -0.5410 -2.6358
 1202TIP3   OH225020   5.443   4.186  16.860  0.3095  0.1286  0.6574
 1202TIP3    H125021   5.395   4.137  16.794  1.6162  0.6843 -0.7705
 1202TIP3    H225022   5.404   4.160  16.943 -2.7238  0.8668 -0.4126
 1203TIP3   OH225023   5.702   1.596  11.801 -0.4226 -0.0500  0.2008
 1203TIP3    H125024   5.630   1.606  11.739 -1.2764  1.6581  1.3869
 1203TIP3    H225025   5.759   1.671  11.783  0.7254 -0.9931 -0.2408
 1204TIP3   OH225026   2.327   2.867   2.375  0.8596 -0.2699  0.3814
 1204TIP3    H125027   2.272   2.818   2.314  1.6173 -1.1675  0.4014
 1204TIP3    H225028   2.389   2.803   2.408  3.3964  1.1496 -1.3090
 1205TIP3   OH225029   2.930   4.590   3.372  0.4519  0.5693 -0.5355
 1205TIP3    H125030   2.857   4.648   3.394  1.1329  1.0787  0.5021
 1205TIP3    H225031   2.909   4.507   3.415  0.2994  0.5908 -0.5686
 1206TIP3   OH225032   1.461   5.992   1.723  0.7692  0.2526 -0.0841
 1206TIP3    H125033   1.501   6.067   1.767  0.7720  0.1541  0.0818
 1206TIP3    H225034   1.522   5.919   1.739  1.1267  0.3735 -0.8433
 1207TIP3   OH225035   2.171   3.092  17.200 -0.3080  0.1010 -0.1303
 1207TIP3    H125036   2.160   3.133  17.114  1.5344 -0.7236 -0.8108
 1207TIP3    H225037   2.151   2.999  17.185 -2.3880  0.3190  0.9275
 1208TIP3   OH225038   4.296   2.302  11.786  0.0901  0.1608  0.1580
 1208TIP3    H125039   4.368   2.241  11.800 -0.7316 -1.7788 -3.0364
 1208TIP3    H225040   4.338   2.387  11.774  1.9085 -0.8775 -1.3693
 1209TIP3   OH225041   4.372   0.906   0.984  0.1485 -0.0524  0.4520
 1209TIP3    H125042   4.395   0.996   0.961 -0.9205  0.0335 -0.3514
 1209TIP3    H225043   4.316   0.915   1.061 -1.6191  0.1589 -0.7931
 1210TIP3   OH225044   1.443   0.895   2.785  0.3806 -0.7903  0.2069
 1210TIP3    H125045   1.483   0.867   2.867 -1.9595 -2.6307  0.8351
 1210TIP3    H225046   1.362   0.940   2.811 -0.3044 -1.2328 -1.0433
 1211TIP3   OH225047   0.830   4.860  16.399 -0.3110 -0.2628  0.3033
 1211TIP3    H125048   0.771   4.811  16.456 -0.7315  0.0107  0.1116
 1211TIP3    H225049   0.771   4.909  16.341  0.0137 -2.5043 -2.1388
 1212TIP3   OH225050   2.103   3.220  12.140  0.3194 -0.3718  0.0658
 1212TIP3    H125051   2.064   3.144  12.183  1.8762 -0.5195  1.3119
 1212TIP3    H225052   2.044   3.292  12.162 -0.1877 -0.8789  0.4304
 1213TIP3   OH225053   4.559   4.557  13.027  0.4159 -0.2084  0.0780
 1213TIP3    H125054   4.473   4.564  13.068 -0.1258  0.7706 -1.1527
 1213TIP3    H225055   4.544   4.578  12.935  1.9528 -0.1361 -0.1959
 1214TIP3   OH225056   5.352   2.317  15.550  0.3207  0.0763 -0.2975
 1214TIP3    H125057   5.409   2.251  15.590  0.3395  0.6765  0.7153
 1214TIP3    H225058   5.387   2.328  15.462  0.8830 -0.6015 -0.1730
 1215TIP3   OH225059   0.428   1.988   3.776 -0.5988 -0.0538  0.2877
 1215TIP3    H125060   0.508   1.939   3.796 -1.0298 -0.6104  0.6981
 1215TIP3    H225061   0.361   1.920   3.764 -1.0737  0.4135  0.2651
 1216TIP3   OH225062   6.149   4.172  11.932  0.7018  0.2415  0.3093
 1216TIP3    H125063   6.186   4.093  11.893  0.5305  1.0682 -1.6193
 1216TIP3    H225064   6.091   4.208  11.865  0.4927  1.8253  1.2692
 1217TIP3   OH225065   2.724   5.101   6.626 -0.1086 -0.2965  0.5004
 1217TIP3    H125066   2.644   5.117   6.676  0.3562  2.3669  0.4966
 1217TIP3    H225067   2.771   5.184   6.628  0.6071 -0.4330 -3.1908
 1218TIP3   OH225068   4.034   0.807   6.668 -0.1030  0.0977  0.0786
 1218TIP3    H125069   4.123   0.841   6.656 -0.1115  0.5701  1.2371
 1218TIP3    H225070   3.996   0.809   6.580  1.2069 -0.6594 -0.5476
 1219TIP3   OH225071   1.063   5.516  14.920  0.2124  0.1457 -0.5933
 1219TIP3    H125072   1.147   5.521  14.966  0.2262  2.0845 -0.7414
 1219TIP3    H225073   1.039   5.424  14.925  0.9943 -0.0072  1.8813
 1220TIP3   OH225074   4.171   4.331   6.369  0.5729 -0.1325 -0.3623
 1220TIP3    H125075   4.091   4.294   6.405  0.5283 -0.9740 -1.2699
 1220TIP3    H225076   4.219   4.255   6.334  1.7128  0.3680  0.0555
 1221TIP3   OH225077   0.169   2.986   4.341  0.3144  0.5673  0.1474
 1221TIP3    H125078   0.078   3.014   4.349 -0.6782 -2.3948  0.6318
 1221TIP3    H225079   0.185   2.983   4.246  0.7490  3.2456  0.0638
 1222TIP3   OH225080   0.711   1.176  15.570 -0.0200  0.0279  0.5265
 1222TIP3    H125081   0.651   1.198  15.498 -2.3864 -1.8968  1.7355
 1222TIP3    H225082   0.678   1.226  15.644  1.6899  1.1083  0.5966
 1223TIP3   OH225083   4.964   4.268  11.773 -0.1375  0.1057  0.0576
 1223TIP3    H125084   4.899   4.339  11.779 -0.6731 -0.3389 -0.3608
 1223TIP3    H225085   4.952   4.218  11.854  2.0741  1.9951  1.6673
 1224TIP3   OH225086   0.199   1.889  11.703  0.0250  0.0888  0.1631
 1224TIP3    H125087   0.117   1.938  11.711 -0.4236 -0.9517  3.1980
 1224TIP3    H225088   0.178   1.817  11.645 -0.9713  0.3403  0.1875
 1225TIP3   OH225089   1.039   3.054   6.072  0.2047 -0.0234  0.0208
 1225TIP3    H125090   1.046   2.981   6.134 -0.4148  0.7499  1.0335
 1225TIP3    H225091   0.990   3.121   6.120 -1.5656  0.0733 -1.8059
 1226TIP3   OH225092   6.657   3.424  11.255  0.7421 -0.1763  0.1588
 1226TIP3    H125093   6.601   3.470  11.317  2.1567  1.2487  0.4458
 1226TIP3    H225094   6.675   3.340  11.297 -0.0117 -0.0789  0.7007
 1227TIP3   OH225095   5.279   5.381  13.352  0.6323  0.0257  0.4608
 1227TIP3    H125096   5.295   5.402  13.444  1.6047  1.5825 -0.0213
 1227TIP3    H225097   5.183   5.374  13.345  0.2706  3.1040  1.0068
 1228TIP3   OH225098   6.396   3.107   0.746 -0.0827  0.0197 -0.2360
 1228TIP3    H125099   6.371   3.196   0.719  0.3902  0.3617  0.4298
 1228TIP3    H225100   6.350   3.094   0.829  1.7118  0.5799  0.9134
 1229TIP3   OH225101   5.871   5.061   5.603 -0.6622 -0.0044 -0.0625
 1229TIP3    H125102   5.825   5.059   5.520 -1.2425  0.9317  0.2154
 1229TIP3    H225103   5.843   4.982   5.649 -0.3243 -0.5287 -0.7624
 1230TIP3   OH225104   0.691   0.239   5.716 -0.1531 -0.1500  0.2599
 1230TIP3    H125105   0.604   0.200   5.721  0.1256 -1.6331 -3.4105
 1230TIP3    H225106   0.751   0.164   5.710  1.1407  0.8448  0.3040
 1231TIP3   OH225107   5.152   4.182  15.985  0.2074  0.3806  0.4712
 1231TIP3    H125108   5.128   4.152  16.073  0.4475  0.5658  0.5996
 1231TIP3    H225109   5.191   4.105  15.944  1.5039  0.7102  1.0573
 1232TIP3   OH225110   0.218   1.518   4.772 -0.2978  0.1543  0.0882
 1232TIP3    H125111   0.181   1.441   4.728 -1.4763  0.9110 -0.2761
 1232TIP3    H225112   0.266   1.483   4.847 -1.6759 -0.8654  0.5155
 1233TIP3   OH225113   0.187   1.440  13.930  0.2246  0.1873  0.0911
 1233TIP3    H125114   0.201   1.485  13.847  2.2144  1.0977  0.8496
 1233TIP3    H225115   0.222   1.499  13.996  3.0800 -2.3933  1.1415
 1234TIP3   OH225116   0.188   6.337  11.964  0.0185  0.1687  0.5375
 1234TIP3    H125117   0.105   6.374  11.994 -0.2252 -2.1298  3.0212
 1234TIP3    H225118   0.254   6.402  11.988 -0.9346  2.0362 -1.4926
 1235TIP3   OH225119   1.335   6.475  16.020 -0.4059 -0.7136 -0.1465
 1235TIP3    H125120   1.398   6.432  16.078 -1.9967 -0.7780  1.6618
 1235TIP3    H225121   1.379   6.481  15.936  1.6947 -1.4326  0.8429
 1236TIP3   OH225122   5.653   0.392  15.576  0.0170 -0.0697  0.4184
 1236TIP3    H125123   5.622   0.426  15.492 -3.5703  0.8806  1.9444
 1236TIP3    H225124   5.682   0.470  15.624 -0.2263 -0.2564  0.8819
 1237TIP3   OH225125   2.926   0.607  10.728  0.3564 -0.2523 -0.1006
 1237TIP3    H125126   2.952   0.522  10.764 -0.1847 -0.5660 -0.4389
 1237TIP3    H225127   3.008   0.656  10.721  0.6618 -0.7132  0.1843
 1238TIP3   OH225128   0.210   2.343   1.146  0.0466 -0.1175  0.3915
 1238TIP3    H125129   0.199   2.374   1.236  1.8862  1.9109  0.0106
 1238TIP3    H225130   0.283   2.395   1.112 -0.0315 -1.4474 -2.0098
 1239TIP3   OH225131   4.056   4.712   2.069  0.3326  0.6655 -0.3452
 1239TIP3    H125132   3.980   4.762   2.099 -1.2990 -1.7663 -0.1181
 1239TIP3    H225133   4.110   4.701   2.147  0.2652  1.3090 -0.2028
 1240TIP3   OH225134   3.342   6.454  17.293 -0.1758 -0.2539 -0.1558
 1240TIP3    H125135   3.354   6.406  17.375 -1.1240  1.0825  0.7952
 1240TIP3    H225136   3.420   6.432  17.241 -0.1222 -2.0439  0.5995
 1241TIP3   OH225137   1.752   0.131   0.075  0.2765 -0.2624 -0.4151
 1241TIP3    H125138   1.811   0.077   0.023  0.4411 -0.5999  0.1099
 1241TIP3    H225139   1.676   0.145   0.019  1.7344  2.0385 -2.0187
 1242TIP3   OH225140   2.677   5.794   2.935  0.5731  0.3931  0.3410
 1242TIP3    H125141   2.697   5.702   2.924 -1.1796  0.0229  0.0023
 1242TIP3    H225142   2.673   5.807   3.030 -1.5568 -0.4811  0.4240
 1243TIP3   OH225143   1.593   0.759  15.488 -0.5151 -0.0102  0.1819
 1243TIP3    H125144   1.501   0.733  15.491 -0.2688 -0.9497  0.1546
 1243TIP3    H225145   1.605   0.813  15.566 -1.2198  0.6166 -0.1310
 1244TIP3   OH225146   1.514   6.672   4.453 -0.0783  0.0319  0.3596
 1244TIP3    H125147   1.578   6.719   4.400 -0.2834  0.1397  0.2074
 1244TIP3    H225148   1.518   6.714   4.539 -1.9202  1.8828 -0.4018
 1245TIP3   OH225149   1.088   1.320  13.877 -0.1941  0.4001 -0.4521
 1245TIP3    H125150   1.179   1.349  13.878  0.6820 -2.1119  0.6973
 1245TIP3    H225151   1.090   1.235  13.834 -1.5827 -0.8070  1.6924
 1246TIP3   OH225152   1.756   4.280   6.657  0.0894  0.2641  0.2501
 1246TIP3    H125153   1.815   4.273   6.732  2.0266  1.9688 -1.0087
 1246TIP3    H225154   1.677   4.322   6.692  0.5679  0.1443  1.5085
 1247TIP3   OH225155   5.365   6.347  16.967  0.4835 -0.5729 -0.5775
 1247TIP3    H125156   5.397   6.278  16.909  1.6056 -1.6396  1.1962
 1247TIP3    H225157   5.312   6.403  16.911  1.6397 -1.4245 -2.6546
 1248TIP3   OH225158   0.038   2.149   3.969  0.5496  0.2278 -0.0468
 1248TIP3    H125159  -0.030   2.187   3.913 -0.0505 -0.9346 -0.1237
 1248TIP3    H225160   0.120   2.176   3.927  0.1398  1.0586 -0.3467
 1249TIP3   OH225161   0.901   6.188   2.859 -0.6474  0.5770  0.4727
 1249TIP3    H125162   0.989   6.224   2.855 -0.6598  0.6240  0.6085
 1249TIP3    H225163   0.884   6.154   2.771 -0.9003  1.5346  0.1365
 1250TIP3   OH225164   0.479   3.101   1.854 -0.3148  0.3426  0.2031
 1250TIP3    H125165   0.516   3.182   1.890 -1.8587  0.8555  0.7143
 1250TIP3    H225166   0.426   3.065   1.925  0.5656 -1.2923  0.0721
 1251TIP3   OH225167   2.480   1.015   4.986 -0.3581  0.2451  0.4013
 1251TIP3    H125168   2.513   0.933   5.022 -1.7442  0.1218  1.4511
 1251TIP3    H225169   2.530   1.027   4.905 -0.0019 -1.5339  0.3162
 1252TIP3   OH225170   1.091   3.078  17.228  0.0341  0.2621 -0.0871
 1252TIP3    H125171   1.081   2.991  17.190  0.8009  0.4742 -0.8035
 1252TIP3    H225172   1.041   3.075  17.309  1.0603 -1.2413  0.5342
 1253TIP3   OH225173   2.534   0.252   1.322 -0.0285 -0.0810  0.1703
 1253TIP3    H125174   2.459   0.193   1.325 -0.2974  0.2838  0.6611
 1253TIP3    H225175   2.521   0.312   1.395 -0.2589  1.2083 -0.8984
 1254TIP3   OH225176   5.434   5.597  12.751 -0.3419  0.4377  0.1712
 1254TIP3    H125177   5.377   5.525  12.723  1.5739 -1.1968  0.2732
 1254TIP3    H225178   5.376   5.656  12.800 -2.0198 -0.9133 -0.0992
 1255TIP3   OH225179   0.431   4.776  12.884  0.5164  0.4903 -0.1331
 1255TIP3    H125180   0.381   4.848  12.924 -0.6265  0.1379 -0.8622
 1255TIP3    H225181   0.367   4.705  12.875  1.8832 -1.0694  1.6233
 1256TIP3   OH225182   6.454   3.660   5.726 -0.1876  0.3925 -0.1368
 1256TIP3    H125183   6.449   3.635   5.818  0.9776  2.4209  0.5345
 1256TIP3    H225184   6.545   3.687   5.713 -0.2624 -0.0889 -1.9702
 1257TIP3   OH225185   0.812   1.838  14.686  0.3626 -0.2878  0.4717
 1257TIP3    H125186   0.834   1.779  14.758  2.3329  0.2934  0.4140
 1257TIP3    H225187   0.793   1.922  14.728 -1.1643 -0.6067  0.4667
 1258TIP3   OH225188   0.684   1.918  12.935  0.4105  0.3970 -0.2570
 1258TIP3    H125189   0.761   1.867  12.959  1.5648  2.0254 -0.3754
 1258TIP3    H225190   0.634   1.926  13.016  1.8873  1.8309  0.5609
 1259TIP3   OH225191   6.176   5.336  13.761  0.1553  0.1686  0.0740
 1259TIP3    H125192   6.160   5.241  13.755 -0.7170  0.3536 -0.7493
 1259TIP3    H225193   6.097   5.371  13.802 -0.7484  0.8457 -2.0888
 1260TIP3   OH225194   5.782   3.238  15.481 -0.2081 -0.1977 -0.0965
 1260TIP3    H125195   5.820   3.226  15.568  2.6652  1.0736 -1.0663
 1260TIP3    H225196   5.776   3.333  15.470  0.5170 -0.2951 -1.6711
 1261TIP3   OH225197   6.381   5.308   1.940  0.0244  0.2553  0.0904
 1261TIP3    H125198   6.409   5.249   1.870  0.4434  0.1668  0.3251
 1261TIP3    H225199   6.410   5.395   1.912 -0.6803  0.3665 -0.3011
 1262TIP3   OH225200   2.247   2.417  14.059 -0.2608 -0.0488  0.9338
 1262TIP3    H125201   2.175   2.469  14.095 -1.4988 -1.5395  0.7180
 1262TIP3    H225202   2.271   2.357  14.130  1.3554  0.9469  1.2846
 1263TIP3   OH225203   1.970   2.835  13.231  0.0964 -0.1302  0.1238
 1263TIP3    H125204   1.883   2.835  13.193  1.0971 -0.1593 -2.3572
 1263TIP3    H225205   1.982   2.924  13.264 -0.5644  0.1133 -0.2720
 1264TIP3   OH225206   0.927   6.140  10.686 -0.4205 -0.7337  0.4021
 1264TIP3    H125207   0.954   6.220  10.639  1.9696 -1.5179  0.3197
 1264TIP3    H225208   0.857   6.170  10.744 -1.1337  0.9597 -1.1901
 1265TIP3   OH225209   3.580   1.269  11.969  0.1275 -0.1431  0.6103
 1265TIP3    H125210   3.485   1.274  11.985  0.2333 -0.4760  1.4140
 1265TIP3    H225211   3.619   1.303  12.049  0.7012 -1.9719  1.1617
 1266TIP3   OH225212   5.323   2.510   1.104  0.1764  0.0567 -0.1227
 1266TIP3    H125213   5.390   2.574   1.078 -0.3648  0.8231  0.3137
 1266TIP3    H225214   5.335   2.437   1.044 -0.4285  1.3742 -1.9227
 1267TIP3   OH225215   0.074   3.617   5.915 -0.2387  0.2870 -0.5361
 1267TIP3    H125216   0.009   3.674   5.873  0.3013  2.8267  1.6984
 1267TIP3    H225217   0.157   3.641   5.875 -0.0518  0.9139  0.1902
 1268TIP3   OH225218   2.342   0.666  13.148  0.5064  0.4980  0.1588
 1268TIP3    H125219   2.284   0.590  13.140 -0.0579  0.8224  0.9931
 1268TIP3    H225220   2.430   0.631  13.135  0.2753 -0.3501  0.8133
 1269TIP3   OH225221   2.057   2.467   6.139 -0.0085  0.2565 -0.2011
 1269TIP3    H125222   2.146   2.490   6.165 -0.0045  1.2698 -1.0543
 1269TIP3    H225223   2.005   2.480   6.219  0.2136  2.0465 -0.3073
 1270TIP3   OH225224   0.183   6.575   0.715  0.3447 -0.1957 -0.0107
 1270TIP3    H125225   0.236   6.496   0.722  1.0447  0.1831 -0.7819
 1270TIP3    H225226   0.154   6.576   0.624 -3.3491 -1.8411  0.9851
 1271TIP3   OH225227   2.221   2.241  13.814 -0.3395  0.3551  0.2882
 1271TIP3    H125228   2.216   2.309  13.882  1.1095  0.2862  0.4969
 1271TIP3    H225229   2.185   2.163  13.856  1.9822 -0.1123  1.5950
 1272TIP3   OH225230   3.413   6.027  10.379  0.6076 -0.3791 -0.5039
 1272TIP3    H125231   3.404   6.093  10.447  0.3380 -0.5586 -0.3631
 1272TIP3    H225232   3.503   5.996  10.387 -0.0648 -2.0543  1.3185
 1273TIP3   OH225233   5.700   0.111  17.219  0.4716 -0.6503  0.3541
 1273TIP3    H125234   5.692   0.175  17.289  0.8814 -0.9901  0.7196
 1273TIP3    H225235   5.699   0.162  17.138  4.1503  0.1973  0.6786
 1274TIP3   OH225236   3.654   6.281  15.786  0.1375  0.0762 -0.8373
 1274TIP3    H125237   3.660   6.328  15.869 -0.3268  0.0905 -0.8103
 1274TIP3    H225238   3.676   6.191  15.807 -1.3175 -0.2059 -0.4341
 1275TIP3   OH225239   0.124   2.315   0.247 -0.1803 -0.3712 -0.0488
 1275TIP3    H125240   0.211   2.280   0.266 -0.1467  0.0148  0.5408
 1275TIP3    H225241   0.100   2.364   0.326 -0.9929 -0.5843 -0.1507
 1276TIP3   OH225242   5.596   5.721   1.100  0.1201  0.0267  0.2045
 1276TIP3    H125243   5.515   5.671   1.097 -1.2186  2.0331  0.9701
 1276TIP3    H225244   5.644   5.684   1.175 -0.5476 -0.4988  0.3813
 1277TIP3   OH225245   6.546   3.209   2.166  0.5504  0.0592 -0.6212
 1277TIP3    H125246   6.475   3.255   2.209  1.0071 -0.6539  0.9558
 1277TIP3    H225247   6.623   3.227   2.219  1.5059  0.5000 -2.0811
 1278TIP3   OH225248   2.393   1.973  11.038 -0.1120  0.0157  0.0908
 1278TIP3    H125249   2.304   1.938  11.035 -1.1105  2.3642  0.0284
 1278TIP3    H225250   2.444   1.911  10.986 -2.0215 -0.5742 -1.2152
 1279TIP3   OH225251   6.226   1.724   4.813 -0.0781 -0.6190 -0.1943
 1279TIP3    H125252   6.154   1.735   4.875 -0.1223 -0.2231 -0.3160
 1279TIP3    H225253   6.293   1.785   4.843 -0.4918  0.3181 -1.1293
 1280TIP3   OH225254   1.080   2.596   0.076  0.3719  0.2451 -0.2947
 1280TIP3    H125255   1.076   2.537   0.000  2.3987 -1.5918  0.9079
 1280TIP3    H225256   1.167   2.636   0.070 -0.0633  1.3081  0.2272
 1281TIP3   OH225257   3.810   2.121   1.084 -0.1260 -0.4557 -0.5225
 1281TIP3    H125258   3.802   2.135   1.178 -1.1153 -1.0348 -0.5143
 1281TIP3    H225259   3.865   2.194   1.054  0.2218 -0.2812  0.4928
 1282TIP3   OH225260   5.877   6.696   4.253  0.3336 -0.1486  0.0306
 1282TIP3    H125261   5.819   6.674   4.326 -1.1230  0.4212 -0.9013
 1282TIP3    H225262   5.949   6.634   4.259  0.0259 -0.3862  1.6921
 1283TIP3   OH225263   6.135   4.330   2.427  0.0674 -0.3207 -0.3882
 1283TIP3    H125264   6.077   4.271   2.476 -1.1480 -0.8034 -2.3101
 1283TIP3    H225265   6.133   4.412   2.477 -1.8547 -0.5014 -0.0712
 1284TIP3   OH225266   5.699   6.428   5.710 -0.0074  0.6615  0.4106
 1284TIP3    H125267   5.632   6.369   5.743  0.7784 -0.6102 -0.2195
 1284TIP3    H225268   5.675   6.514   5.746 -2.8675  0.5888 -1.1005
 1285TIP3   OH225269   5.218   4.708  15.262  0.0673  0.0400 -0.2014
 1285TIP3    H125270   5.238   4.684  15.171  2.0550  1.2879 -0.1754
 1285TIP3    H225271   5.301   4.743  15.295 -0.4425 -0.9978  2.3243
 1286TIP3   OH225272   5.492   4.939  16.124 -0.1326 -0.4781  0.2184
 1286TIP3    H125273   5.464   4.903  16.208 -1.1302  1.1250  0.6144
 1286TIP3    H225274   5.579   4.903  16.111 -0.7039 -2.2852  0.9939
 1287TIP3   OH225275   0.347   6.456   1.532  0.0665  0.2958  0.2871
 1287TIP3    H125276   0.269   6.505   1.558  1.3602  2.2347  0.7419
 1287TIP3    H225277   0.351   6.464   1.437 -0.2640  0.2104  0.2664
 1288TIP3   OH225278   5.798   4.795   3.628  0.3026  0.3958  0.4877
 1288TIP3    H125279   5.827   4.714   3.586  1.3534  0.7038  0.5894
 1288TIP3    H225280   5.873   4.823   3.681 -0.2743  1.0981  0.9606
 1289TIP3   OH225281   3.136   5.808   0.306 -0.1228  0.1334 -0.0416
 1289TIP3    H125282   3.151   5.742   0.239  0.7264  0.8774 -0.6025
 1289TIP3    H225283   3.191   5.781   0.379 -1.2955 -0.8574  0.5189
 1290TIP3   OH225284   2.658   6.084   2.941 -0.2562 -0.2455 -0.3252
 1290TIP3    H125285   2.612   6.092   2.857  1.3220 -1.4956 -1.3662
 1290TIP3    H225286   2.667   5.990   2.955  0.6339 -0.0341  0.6159
 1291TIP3   OH225287   5.199   1.219  10.981 -0.0942 -0.3334 -0.3711
 1291TIP3    H125288   5.116   1.236  10.936 -0.6051  0.0918  0.6918
 1291TIP3    H225289   5.265   1.221  10.911 -0.8765  0.1458 -1.1176
 1292TIP3   OH225290   2.331   1.532   2.257 -0.0901  0.8761 -0.0536
 1292TIP3    H125291   2.367   1.458   2.208  0.3754  1.1154 -0.0730
 1292TIP3    H225292   2.238   1.533   2.233 -0.4096 -0.5152  0.9747
 1293TIP3   OH225293   2.949   3.803  14.452 -0.1536  0.1909 -0.2786
 1293TIP3    H125294   2.966   3.894  14.427 -2.3390  0.2225 -1.9794
 1293TIP3    H225295   2.856   3.791  14.435 -0.2834 -1.9252  1.4998
 1294TIP3   OH225296   3.026   0.549   1.563 -0.2183  0.1551  0.2934
 1294TIP3    H125297   3.071   0.479   1.610  0.4008 -0.4576 -1.1325
 1294TIP3    H225298   2.954   0.506   1.518 -2.8305  1.2266  3.0916
 1295TIP3   OH225299   3.269   4.873   3.586 -0.6817 -0.3556  0.3191
 1295TIP3    H125300   3.289   4.782   3.604 -1.7070 -0.5766  0.3667
 1295TIP3    H225301   3.303   4.888   3.498 -0.9423 -0.9178  0.1217
 1296TIP3   OH225302   3.148   4.226  14.360 -0.2392  0.2477 -0.0348
 1296TIP3    H125303   3.064   4.191  14.334 -0.5293 -0.3724  1.6185
 1296TIP3    H225304   3.128   4.314  14.393 -0.6221 -0.5949  2.1954
 1297TIP3   OH225305   4.746   3.504  15.540 -0.0973 -0.2296  0.7792
 1297TIP3    H125306   4.837   3.495  15.511 -0.1020 -0.3850  0.8067
 1297TIP3    H225307   4.745   3.582  15.595 -0.5804  1.5659 -1.6206
 1298TIP3   OH225308   1.331   4.384   6.249  0.2552  0.1266  0.4277
 1298TIP3    H125309   1.384   4.311   6.281 -1.4332 -0.5652  1.8513
 1298TIP3    H225310   1.339   4.451   6.317 -0.5812  0.0573  0.6029
 1299TIP3   OH225311   2.561   5.213  15.303  0.5076  0.2483 -0.5361
 1299TIP3    H125312   2.652   5.217  15.271  0.3843  0.0167 -0.9238
 1299TIP3    H225313   2.520   5.144  15.250 -0.6693  2.2249 -2.3956
 1300TIP3   OH225314   3.160   1.176  16.074  0.2305 -0.0432  0.0831
 1300TIP3    H125315   3.096   1.244  16.097  1.0437  0.3201  1.3883
 1300TIP3    H225316   3.217   1.170  16.151  1.9906 -0.0899 -1.1612
 1301TIP3   OH225317   0.458   2.643   4.828  0.4773  0.6297 -0.5801
 1301TIP3    H125318   0.531   2.611   4.776  0.5381 -0.9418  0.3898
 1301TIP3    H225319   0.453   2.582   4.902 -1.9822  0.4939 -0.7688
 1302TIP3   OH225320   4.641   4.961   5.517 -0.1900 -0.0263  0.5897
 1302TIP3    H125321   4.672   4.906   5.589 -0.9750 -2.5878 -0.8632
 1302TIP3    H225322   4.721   4.992   5.475  0.3228 -0.7445  0.9947
 1303TIP3   OH225323   3.263   4.675   1.589 -0.2681  0.8461 -0.4443
 1303TIP3    H125324   3.331   4.635   1.644 -0.9664 -1.4995 -1.1714
 1303TIP3    H225325   3.257   4.765   1.622  1.6082  0.4973  1.1167
 1304TIP3   OH225326   4.453   2.156   1.683 -0.2182 -0.1190 -0.1171
 1304TIP3    H125327   4.541   2.164   1.719  0.4790 -1.7508 -1.3379
 1304TIP3    H225328   4.460   2.188   1.593 -1.3375  1.4770  0.3193
 1305TIP3   OH225329   6.415   5.890   1.812  0.5348  0.2879 -0.3080
 1305TIP3    H125330   6.502   5.853   1.803 -0.2202 -1.4448 -1.0074
 1305TIP3    H225331   6.428   5.973   1.858  2.4574 -0.2588  0.2053
 1306TIP3   OH225332   5.903   5.030  13.160 -0.0978  0.2231  0.0856
 1306TIP3    H125333   5.901   5.041  13.065 -1.4152  2.1817  0.2779
 1306TIP3    H225334   5.884   4.938  13.175  0.2330 -0.1258 -1.5460
 1307TIP3   OH225335   4.778   5.192   5.685 -0.4249 -1.0461 -0.1642
 1307TIP3    H125336   4.833   5.167   5.759 -0.0673 -2.2177 -0.7872
 1307TIP3    H225337   4.839   5.193   5.610 -1.2068 -2.3308 -0.8577
 1308TIP3   OH225338   6.195   3.643  15.220 -0.0655  0.1943  0.2025
 1308TIP3    H125339   6.290   3.654  15.215 -0.0662  1.3139  1.8514
 1308TIP3    H225340   6.180   3.554  15.188  1.4168  0.3034 -0.9578
 1309TIP3   OH225341   1.609   0.419  10.433  0.0069  0.0321 -0.5389
 1309TIP3    H125342   1.523   0.461  10.433  0.7211  1.6401  1.1207
 1309TIP3    H225343   1.664   0.476  10.487  1.2759 -2.6658  1.2441
 1310TIP3   OH225344   1.155   2.071  11.241  0.1201 -0.0169  0.2276
 1310TIP3    H125345   1.233   2.022  11.215  0.2299  0.3273 -0.1076
 1310TIP3    H225346   1.083   2.011  11.225  0.1858  0.1712 -0.8969
 1311TIP3   OH225347   5.107   0.557  13.231 -0.2839 -0.2816 -0.2704
 1311TIP3    H125348   5.039   0.569  13.298  1.2127 -2.4032  1.8054
 1311TIP3    H225349   5.181   0.608  13.263  0.5400 -1.5401 -0.0915
 1312TIP3   OH225350   3.363   3.316  14.656 -0.2944 -0.5013  0.0859
 1312TIP3    H125351   3.374   3.238  14.602 -1.6772 -0.8808  0.3307
 1312TIP3    H225352   3.298   3.368  14.610  0.5006  0.4594  0.0094
 1313TIP3   OH225353   5.140   0.869   0.302  0.4104  0.3437  0.0979
 1313TIP3    H125354   5.198   0.846   0.229 -1.0757 -0.9973 -0.7154
 1313TIP3    H225355   5.138   0.791   0.356  0.4120  0.8655  0.8612
 1314TIP3   OH225356   1.896   6.219   1.536 -0.0125 -0.2614  0.4600
 1314TIP3    H125357   1.818   6.169   1.510 -0.4521  1.0825 -0.9517
 1314TIP3    H225358   1.903   6.204   1.631 -2.1928 -0.1873  0.7068
 1315TIP3   OH225359   3.740   1.049   2.393  0.3053 -0.3147 -0.1134
 1315TIP3    H125360   3.768   1.112   2.326 -0.6343  0.0351 -0.1996
 1315TIP3    H225361   3.651   1.076   2.415  0.7747 -0.1274  1.6574
 1316TIP3   OH225362   0.170   5.012  16.619 -0.1547 -0.1605 -0.4397
 1316TIP3    H125363   0.078   4.986  16.615 -1.3230  3.1019  1.2727
 1316TIP3    H225364   0.186   5.056  16.535 -0.8117  0.9085 -0.0314
 1317TIP3   OH225365   1.307   0.281  14.251 -0.8549  0.6055  0.6739
 1317TIP3    H125366   1.258   0.206  14.217  0.0655  1.4109 -2.7802
 1317TIP3    H225367   1.241   0.337  14.291 -2.0377 -0.5063  0.3354
 1318TIP3   OH225368   1.348   3.803  13.347  0.1664  0.3716  0.0103
 1318TIP3    H125369   1.369   3.810  13.254 -0.1824  0.2564 -0.0776
 1318TIP3    H225370   1.260   3.841  13.355  1.5285  3.7033  0.8466
 1319TIP3   OH225371   6.714   3.819   5.646 -0.6869  0.1570  0.1572
 1319TIP3    H125372   6.675   3.882   5.585 -1.8559 -0.5634  0.1288
 1319TIP3    H225373   6.731   3.870   5.725 -2.3823  0.3647  0.4240
 1320TIP3   OH225374   3.747   6.676   1.532  0.4472 -0.1252 -0.2402
 1320TIP3    H125375   3.669   6.718   1.568  0.2050 -1.4825  0.9258
 1320TIP3    H225376   3.718   6.639   1.449  0.6518  1.8742 -1.2496
 1321TIP3   OH225377   6.569   6.179   6.876 -0.5195  0.5260 -0.3072
 1321TIP3    H125378   6.607   6.127   6.946 -0.7688 -0.3523 -0.8129
 1321TIP3    H225379   6.509   6.120   6.830 -1.9694  1.6698  0.0173
 1322TIP3   OH225380   6.740   1.571  14.482  0.0498  0.2702 -0.2910
 1322TIP3    H125381   6.731   1.567  14.387 -1.4307 -1.0077 -0.1388
 1322TIP3    H225382   6.683   1.642  14.510  1.6062  1.6399 -0.4258
 1323TIP3   OH225383   4.877   6.332  15.420 -0.0908 -0.1715 -0.6571
 1323TIP3    H125384   4.880   6.247  15.376 -3.0593 -0.1501 -1.0750
 1323TIP3    H225385   4.797   6.373  15.389  0.8349  2.4885  0.1573
 1324TIP3   OH225386   6.601   3.479  15.624 -0.1360  0.2604  0.7461
 1324TIP3    H125387   6.690   3.513  15.620  0.3715 -1.0516  0.0204
 1324TIP3    H225388   6.581   3.453  15.534 -1.6977  1.5653  0.6799
 1325TIP3   OH225389   3.945   2.864  15.355 -0.2433 -0.5964  0.1437
 1325TIP3    H125390   4.027   2.816  15.362 -0.2202 -0.5636  0.0899
 1325TIP3    H225391   3.921   2.884  15.446 -0.0079 -0.2861  0.1380
 1326TIP3   OH225392   6.501   0.658  12.689 -0.5167 -0.0336  0.0720
 1326TIP3    H125393   6.514   0.578  12.741 -2.0922  1.3128  2.8024
 1326TIP3    H225394   6.582   0.707  12.700  0.3640 -1.0698 -1.4161
 1327TIP3   OH225395   4.760   4.699  13.572 -0.0196  0.2013  0.3416
 1327TIP3    H125396   4.755   4.621  13.517  2.2703 -1.2807  2.0508
 1327TIP3    H225397   4.853   4.722  13.572 -0.5157  2.3955  0.6278
 1328TIP3   OH225398   1.158   2.373   1.576  0.0454 -0.4955 -0.4655
 1328TIP3    H125399   1.072   2.409   1.599 -0.1164  0.1082 -1.8834
 1328TIP3    H225400   1.215   2.450   1.568  0.7006 -0.8807  0.3081
 1329TIP3   OH225401   1.565   0.822   0.086  0.5387 -0.0339  0.0775
 1329TIP3    H125402   1.543   0.831   0.179 -1.5247 -1.5318 -0.1973
 1329TIP3    H225403   1.613   0.739   0.081  2.5002  1.0649  0.0509
 1330TIP3   OH225404   3.446   0.145   0.180 -0.5771  0.3652 -0.2045
 1330TIP3    H125405   3.475   0.235   0.167 -1.0360  0.6592  0.6691
 1330TIP3    H225406   3.352   0.146   0.159 -0.3794 -0.1315 -1.1318
 1331TIP3   OH225407   4.395   5.259  13.231  0.0046  0.1755 -0.7769
 1331TIP3    H125408   4.480   5.267  13.274 -0.1408 -0.8692 -0.2408
 1331TIP3    H225409   4.400   5.175  13.185 -1.1875 -0.5613  0.3757
 1332TIP3   OH225410   5.978   1.775  11.269 -0.3522 -0.2173  0.4948
 1332TIP3    H125411   5.961   1.697  11.321 -1.1827 -0.2078  0.2552
 1332TIP3    H225412   6.069   1.798  11.288  0.0562 -1.5325  0.1659
 1333TIP3   OH225413   3.972   3.475  11.255 -0.2765 -0.4025 -0.4670
 1333TIP3    H125414   3.894   3.514  11.214  0.5626  1.5623 -0.3355
 1333TIP3    H225415   3.946   3.459  11.345 -0.8705 -0.8496 -0.7088
 1334TIP3   OH225416   2.463   0.300   2.351  0.2564 -0.1914 -0.9604
 1334TIP3    H125417   2.410   0.332   2.278  1.1685  0.6608 -1.2720
 1334TIP3    H225418   2.494   0.214   2.322  0.6393  0.1563 -1.5945
 1335TIP3   OH225419   5.040   0.108  14.300  0.4301 -0.4619 -0.2416
 1335TIP3    H125420   5.048   0.147  14.387 -0.5816  1.5437 -0.9942
 1335TIP3    H225421   5.066   0.178  14.239  1.0287 -1.7865 -1.5839
 1336TIP3   OH225422   3.420   6.480  12.546 -0.3352  0.4430  0.2381
 1336TIP3    H125423   3.347   6.541  12.552  0.1670  0.9174  1.9767
 1336TIP3    H225424   3.426   6.459  12.453 -3.6056 -0.7912  0.1921
 1337TIP3   OH225425   2.224   2.422   0.348 -0.4234  0.1715  0.0804
 1337TIP3    H125426   2.160   2.494   0.347 -0.3935  0.1945 -0.7498
 1337TIP3    H225427   2.304   2.463   0.380  0.2296  1.1027 -2.4693
 1338TIP3   OH225428   5.210   4.991  11.732  0.4949 -0.1394  0.2715
 1338TIP3    H125429   5.272   5.063  11.744 -0.4137  0.6423  0.4276
 1338TIP3    H225430   5.127   5.024  11.767 -0.1341 -0.9779 -0.3670
 1339TIP3   OH225431   4.590   6.177   6.078 -0.2465  0.0418 -0.2231
 1339TIP3    H125432   4.555   6.266   6.079  0.0464  0.1552  0.7089
 1339TIP3    H225433   4.528   6.126   6.129  0.0446 -0.1036 -0.0115
 1340TIP3   OH225434   0.051   2.131   0.507  0.4500  0.5058  0.5461
 1340TIP3    H125435  -0.042   2.137   0.530  0.5027 -1.4856  1.4589
 1340TIP3    H225436   0.080   2.222   0.500 -1.5570  1.1708  0.2473
 1341TIP3   OH225437   0.349   5.904  14.939  0.1753 -0.0417 -0.1340
 1341TIP3    H125438   0.335   5.988  14.984  1.1906  0.4441 -0.6791
 1341TIP3    H225439   0.297   5.841  14.988 -0.2610  0.8345  0.5538
 1342TIP3   OH225440   5.913   1.802  17.287  0.0487  0.2203 -0.2138
 1342TIP3    H125441   5.963   1.871  17.331  2.1045 -1.2937 -0.0443
 1342TIP3    H225442   5.846   1.776  17.351  0.4251  0.7984  0.4314
 1343TIP3   OH225443   5.207   2.061   1.264 -0.2184  0.2116  0.1004
 1343TIP3    H125444   5.129   2.020   1.303 -0.3158 -0.1733 -0.4783
 1343TIP3    H225445   5.274   2.054   1.332 -0.1687 -1.1454 -0.0593
 1344TIP3   OH225446   5.087   3.414  13.604 -0.1965  0.3509  0.5444
 1344TIP3    H125447   5.006   3.434  13.557  0.3098  0.2238 -0.4040
 1344TIP3    H225448   5.108   3.324  13.579  1.3849  1.0713 -1.0003
 1345TIP3   OH225449   5.659   2.928  11.082 -0.0306 -0.2150  0.3771
 1345TIP3    H125450   5.577   2.947  11.128 -1.0972 -0.8844 -1.1740
 1345TIP3    H225451   5.674   3.005  11.028  1.5723  0.8583  2.2230
 1346TIP3   OH225452   5.752   3.161   5.112 -0.1551  0.5094 -0.4559
 1346TIP3    H125453   5.669   3.116   5.097  1.3957 -3.5205  1.5851
 1346TIP3    H225454   5.806   3.137   5.037  1.1080 -2.5593  1.2495
 1347TIP3   OH225455   0.231   3.713  14.923  0.0238 -0.5834 -0.4129
 1347TIP3    H125456   0.261   3.628  14.955 -0.7458 -1.0102 -0.8060
 1347TIP3    H225457   0.249   3.773  14.994 -0.1286 -1.2182  0.1701
 1348TIP3   OH225458   6.492   5.227  10.617  0.0689  0.0568 -0.7795
 1348TIP3    H125459   6.565   5.208  10.676 -1.7753 -1.0813  1.2883
 1348TIP3    H225460   6.466   5.141  10.583 -1.4113  0.1962 -0.0572
 1349TIP3   OH225461   0.261   4.228  14.735  0.5489 -0.2840  0.0155
 1349TIP3    H125462   0.221   4.148  14.701  0.4454  0.2097 -1.0756
 1349TIP3    H225463   0.190   4.275  14.777  0.4030 -0.3225 -0.1873
 1350TIP3   OH225464   4.224   2.374   5.004  0.1835 -0.0307 -0.1869
 1350TIP3    H125465   4.208   2.466   4.984  0.9138  0.1357 -0.0106
 1350TIP3    H225466   4.305   2.373   5.054  0.2335 -0.7781 -0.2618
 1351TIP3   OH225467   4.837   4.561  14.848  0.1355  0.3614  0.2791
 1351TIP3    H125468   4.779   4.569  14.923  0.5815  1.4282  0.5262
 1351TIP3    H225469   4.900   4.493  14.873 -0.2783  0.0537  0.4845
 1352TIP3   OH225470   5.813   2.785  13.788  0.2102 -0.6828  0.7509
 1352TIP3    H125471   5.798   2.703  13.741 -0.3928 -1.6995  2.6064
 1352TIP3    H225472   5.908   2.791  13.797  0.4609  0.3122 -1.8135
 1353TIP3   OH225473   3.668   2.565  15.812 -0.1269 -0.7344  0.4091
 1353TIP3    H125474   3.698   2.654  15.829  0.1392 -0.9511  1.1149
 1353TIP3    H225475   3.694   2.516  15.890 -0.4438 -1.3863  0.1100
 1354TIP3   OH225476   0.420   3.174  14.916  0.1691  0.5054  0.1322
 1354TIP3    H125477   0.464   3.213  14.840 -0.9051  0.3944 -0.5742
 1354TIP3    H225478   0.489   3.164  14.981  1.3299 -0.1962 -1.1323
 1355TIP3   OH225479   5.045   0.529   1.644 -0.0462 -0.2617 -0.5085
 1355TIP3    H125480   5.074   0.445   1.610 -0.9170 -1.3918  1.3610
 1355TIP3    H225481   5.073   0.529   1.735  0.3077  1.6852 -0.5786
 1356TIP3   OH225482   1.928   5.920  11.830 -0.6456  0.0150 -0.0608
 1356TIP3    H125483   1.907   6.013  11.829 -0.4491  0.0523 -0.9336
 1356TIP3    H225484   1.844   5.876  11.817 -0.6445  0.0827 -0.2871
 1357TIP3   OH225485   6.729   2.933   4.019  0.1794  0.1581 -0.4166
 1357TIP3    H125486   6.721   2.949   4.113  0.7878 -1.0945 -0.1285
 1357TIP3    H225487   6.677   3.002   3.978 -0.3437  0.5384  0.8510
 1358TIP3   OH225488   1.965   0.865  11.871 -0.3087  0.8000 -0.1512
 1358TIP3    H125489   2.003   0.781  11.900 -1.2329 -0.2609 -1.8721
 1358TIP3    H225490   1.933   0.905  11.952  1.0372 -0.0173  0.8453
 1359TIP3   OH225491   4.091   2.867  11.927  0.0652 -0.4317  0.6396
 1359TIP3    H125492   4.071   2.809  11.853  0.3418  1.0036 -0.5879
 1359TIP3    H225493   4.155   2.818  11.978  0.6315 -1.0379 -0.6102
 1360TIP3   OH225494   1.586   0.422   4.679  0.2075 -0.2658  0.4249
 1360TIP3    H125495   1.603   0.387   4.767 -0.8848 -2.1052 -0.0445
 1360TIP3    H225496   1.507   0.474   4.689 -0.0823 -0.7133  0.4815
 1361TIP3   OH225497   0.860   1.313   4.376 -0.2679 -0.0106  0.1247
 1361TIP3    H125498   0.831   1.241   4.320  1.4537 -0.7067  0.0425
 1361TIP3    H225499   0.927   1.274   4.432 -1.6948  0.7473  2.4965
 1362TIP3   OH225500   4.750   3.132  13.325 -0.0583 -0.0357  0.3626
 1362TIP3    H125501   4.775   3.045  13.294  0.5651 -0.0074  0.7676
 1362TIP3    H225502   4.814   3.191  13.285 -1.0663  0.3639 -0.7033
 1363TIP3   OH225503   0.926   0.449   0.391 -0.4503  0.5291 -0.0502
 1363TIP3    H125504   0.947   0.543   0.392  1.1072  0.2108 -0.2552
 1363TIP3    H225505   1.011   0.406   0.397 -1.0390 -0.8830 -1.3260
 1364TIP3   OH225506   2.785   5.907   0.671 -0.5381 -0.6837  0.3067
 1364TIP3    H125507   2.726   5.981   0.683 -0.6493 -1.0538  2.2478
 1364TIP3    H225508   2.854   5.920   0.736  0.6847 -1.0948 -0.8626
 1365TIP3   OH225509   0.823   6.095  12.143  0.0837 -0.1945  0.2166
 1365TIP3    H125510   0.868   6.024  12.189 -1.5343 -1.2536  0.2329
 1365TIP3    H225511   0.739   6.058  12.118 -0.3720  1.3983 -0.7445
 1366TIP3   OH225512   5.534   1.938   4.537 -0.0992  0.0708  0.2062
 1366TIP3    H125513   5.489   2.021   4.555  0.8313  0.5037  0.6065
 1366TIP3    H225514   5.542   1.897   4.623  1.4905  0.6472  0.3615
 1367TIP3   OH225515   4.281   6.681  15.478  0.4848 -0.3081 -0.2009
 1367TIP3    H125516   4.225   6.632  15.538  1.6516 -0.1394  1.0650
 1367TIP3    H225517   4.229   6.758  15.455 -0.3885 -0.8955 -0.2549
 1368TIP3   OH225518   5.727   3.760   0.001 -0.4953  0.5601  0.3982
 1368TIP3    H125519   5.754   3.839   0.048 -0.0183  0.8319 -0.3161
 1368TIP3    H225520   5.656   3.724   0.053  0.4937  0.4628  1.7260
 1369TIP3   OH225521   4.206   5.952   5.904 -0.6374 -0.3945  0.4087
 1369TIP3    H125522   4.182   5.870   5.861  1.6048 -0.5989 -0.6156
 1369TIP3    H225523   4.275   5.988   5.849 -1.4017  2.1089  0.9529
 1370TIP3   OH225524   3.681   0.734   4.013  0.2082  0.1805  0.3714
 1370TIP3    H125525   3.610   0.797   4.000 -0.9059 -1.1498 -0.3056
 1370TIP3    H225526   3.755   0.771   3.965  0.7145  2.6212  2.7422
 1371TIP3   OH225527   4.555   5.509   5.207  0.3204 -0.0906  0.2097
 1371TIP3    H125528   4.498   5.521   5.283 -0.8349 -0.3032 -0.5951
 1371TIP3    H225529   4.545   5.590   5.157 -1.3148 -1.1194 -1.2255
 1372TIP3   OH225530   5.195   0.019  11.706 -0.1596 -0.2442 -0.3145
 1372TIP3    H125531   5.120   0.010  11.764 -0.3692  2.2709 -0.0825
 1372TIP3    H225532   5.263  -0.035  11.747 -1.0664 -0.5270  0.8791
 1373TIP3   OH225533   2.022   5.213   5.287 -0.4161  0.1462 -0.0163
 1373TIP3    H125534   1.971   5.229   5.366  2.8173 -1.5732  2.6361
 1373TIP3    H225535   1.973   5.145   5.240 -2.3066  1.0771  0.4815
 1374TIP3   OH225536   4.124   1.695  10.943 -0.3725 -0.1528  0.1107
 1374TIP3    H125537   4.039   1.673  10.980 -0.2606 -1.0304 -0.1100
 1374TIP3    H225538   4.137   1.787  10.963 -1.0861 -0.1760  0.7137
 1375TIP3   OH225539   5.349   5.089   0.873  0.0415  0.0584  0.3192
 1375TIP3    H125540   5.288   5.060   0.941  0.2602 -0.5694  0.2591
 1375TIP3    H225541   5.302   5.157   0.825 -1.0477 -1.1989 -0.4541
 1376TIP3   OH225542   1.224   3.616   3.942  0.2359 -0.3670  0.1124
 1376TIP3    H125543   1.224   3.710   3.963  0.9466 -0.4495  0.5145
 1376TIP3    H225544   1.190   3.612   3.852  0.7735  0.3418 -0.1367
 1377TIP3   OH225545   4.552   4.864   3.938  0.0994 -0.2770  0.3811
 1377TIP3    H125546   4.588   4.842   4.024  2.1399  0.6549 -0.1638
 1377TIP3    H225547   4.502   4.944   3.953  1.3465  0.4947  0.5426
 1378TIP3   OH225548   3.287   1.534   4.742 -0.5700 -0.2789  0.5620
 1378TIP3    H125549   3.310   1.467   4.806 -0.5247  0.8638  1.7726
 1378TIP3    H225550   3.207   1.574   4.777  0.0165  1.0369  0.4425
 1379TIP3   OH225551   4.379   1.706   3.806 -0.1346  0.1365  0.0832
 1379TIP3    H125552   4.349   1.616   3.820 -0.6663  0.4464  0.9893
 1379TIP3    H225553   4.379   1.716   3.710  0.5832 -1.0295 -0.0567
 1380TIP3   OH225554   3.733   0.959  15.701 -0.0980 -0.0274  0.2609
 1380TIP3    H125555   3.759   0.871  15.729 -2.4750  0.0843  3.3268
 1380TIP3    H225556   3.640   0.963  15.721 -0.8043  2.1807 -2.8083
 1381TIP3   OH225557   0.582   4.179   6.912 -0.2249 -0.0881 -0.1553
 1381TIP3    H125558   0.621   4.102   6.953  0.5415  0.9292  1.1028
 1381TIP3    H225559   0.511   4.204   6.971 -2.4760 -1.5268 -2.0820
 1382TIP3   OH225560   0.318   5.344   2.019  0.6049 -0.6814  0.3294
 1382TIP3    H125561   0.301   5.395   2.098 -0.4129  0.4618 -0.5819
 1382TIP3    H225562   0.340   5.410   1.952 -0.9984 -1.3636 -0.9448
 1383TIP3   OH225563   2.953   2.089   1.089 -0.1680 -0.3735  0.4190
 1383TIP3    H125564   2.984   2.165   1.139 -3.0054  0.8046  0.5897
 1383TIP3    H225565   2.880   2.123   1.037  0.0250 -2.4957 -1.3847
 1384TIP3   OH225566   4.883   4.168   4.510 -0.2064  0.2527  0.0689
 1384TIP3    H125567   4.829   4.227   4.563 -0.2858  1.4398 -1.2849
 1384TIP3    H225568   4.934   4.118   4.574 -0.8740  1.0844  1.2828
 1385TIP3   OH225569   1.275   2.862  15.602 -0.3819 -0.3645  0.5271
 1385TIP3    H125570   1.309   2.875  15.690  1.2481 -1.3903  0.0933
 1385TIP3    H225571   1.293   2.944  15.556  2.1682 -1.0627  0.1448
 1386TIP3   OH225572   2.100   2.183  15.733  0.1209  0.4145  0.8775
 1386TIP3    H125573   2.096   2.278  15.748  0.8876  1.2257 -2.8790
 1386TIP3    H225574   2.192   2.161  15.741  0.3437  0.6002 -0.8544
 1387TIP3   OH225575   5.357   1.525   2.237 -0.8495  0.0749 -1.0868
 1387TIP3    H125576   5.424   1.473   2.193 -0.1243 -0.3225  0.3987
 1387TIP3    H225577   5.288   1.462   2.256  1.0943 -1.1888  3.0028
 1388TIP3   OH225578   1.280   5.051   1.149  0.2316 -0.0537 -0.3692
 1388TIP3    H125579   1.354   5.109   1.164  0.5928 -0.5116 -0.3592
 1388TIP3    H225580   1.270   5.049   1.054  0.3553 -0.1493 -0.3794
 1389TIP3   OH225581   2.646   4.579  16.806  0.3214 -0.0318  0.9143
 1389TIP3    H125582   2.632   4.674  16.797  0.5745 -0.0753 -0.0626
 1389TIP3    H225583   2.693   4.570  16.889  1.5690  0.8510  0.3414
 1390TIP3   OH225584   6.392   6.740  15.852 -0.3160 -0.1119  0.0039
 1390TIP3    H125585   6.468   6.784  15.815 -0.6271  0.0955 -0.3940
 1390TIP3    H225586   6.397   6.759  15.946 -0.5537  0.9423 -0.1880
 1391TIP3   OH225587   2.812   2.818   0.915 -0.1619  0.3078  0.1273
 1391TIP3    H125588   2.777   2.874   0.845  0.3654 -0.6123 -0.9133
 1391TIP3    H225589   2.877   2.763   0.871  0.2182 -0.2697  1.3673
 1392TIP3   OH225590   0.326   1.391   1.621 -0.2067  0.2507  0.2811
 1392TIP3    H125591   0.251   1.447   1.602 -1.7462 -0.5361  3.4003
 1392TIP3    H225592   0.298   1.303   1.595 -0.0502  0.0864  0.6583
 1393TIP3   OH225593   5.138   5.066  13.285 -0.2051  0.3152  0.2420
 1393TIP3    H125594   5.088   5.081  13.366  2.9196  1.6659  2.1299
 1393TIP3    H225595   5.189   5.147  13.273  1.0677 -0.7061 -1.8479
 1394TIP3   OH225596   0.168   5.633  15.412 -1.2218 -0.8794  0.0338
 1394TIP3    H125597   0.155   5.707  15.353 -2.1637 -1.6945 -0.8323
 1394TIP3    H225598   0.178   5.672  15.499  1.3609  0.4260 -0.7658
 1395TIP3   OH225599   4.062   3.603  15.277  1.0712 -0.0904 -0.2771
 1395TIP3    H125600   4.068   3.519  15.230  1.9279  0.2567 -0.8160
 1395TIP3    H225601   4.152   3.636  15.278  0.9983  0.1266  1.2501
 1396TIP3   OH225602   2.146   4.965   6.740 -0.2025  0.7495 -0.3411
 1396TIP3    H125603   2.229   4.923   6.718 -0.8038  0.3104 -1.9588
 1396TIP3    H225604   2.085   4.892   6.755  0.0384  1.0388  2.4800
 1397TIP3   OH225605   2.251   3.294   2.214 -0.0752 -0.3234  0.1383
 1397TIP3    H125606   2.216   3.246   2.139 -1.6229 -0.3073  0.8090
 1397TIP3    H225607   2.309   3.231   2.258  1.9319  0.0890 -1.7499
 1398TIP3   OH225608   0.969   1.388  14.421  0.6319  0.8315 -0.2216
 1398TIP3    H125609   0.991   1.461  14.362 -1.1894  0.1765 -1.8329
 1398TIP3    H225610   0.910   1.427  14.486  0.2128  0.9601 -0.6716
 1399TIP3   OH225611   5.187   2.720   1.584  0.6193  0.1251 -0.1738
 1399TIP3    H125612   5.147   2.806   1.592  2.4761  1.0654 -0.2536
 1399TIP3    H225613   5.173   2.678   1.668  1.4478  1.3566  0.6129
 1400TIP3   OH225614   4.407   2.059   3.594  0.3235  0.4093 -0.6713
 1400TIP3    H125615   4.430   2.112   3.518  2.0136  2.6240  1.2451
 1400TIP3    H225616   4.403   2.121   3.666  1.3597 -1.9406  1.5455
 1401TIP3   OH225617   2.936   1.017  16.027 -0.7956 -0.1435  0.2749
 1401TIP3    H125618   3.007   1.074  16.054  0.4523 -1.0214 -0.9517
 1401TIP3    H225619   2.944   0.939  16.083 -0.5426 -0.3959 -0.1046
 1402TIP3   OH225620   5.836   1.512  15.432  0.2521 -0.4053 -0.0439
 1402TIP3    H125621   5.772   1.441  15.444 -0.6554  0.3467 -0.3201
 1402TIP3    H225622   5.784   1.592  15.434  1.5018  0.4512  2.4621
 1403TIP3   OH225623   5.032   5.668   4.673 -0.1640  0.1819 -0.0628
 1403TIP3    H125624   5.008   5.578   4.653  1.2663 -0.1143 -0.5439
 1403TIP3    H225625   5.052   5.668   4.766 -1.3804  0.3001  0.2122
 1404TIP3   OH225626   6.465   3.917  15.581  0.3361 -0.0416  0.6225
 1404TIP3    H125627   6.473   3.879  15.668 -0.2347 -0.1078  0.6490
 1404TIP3    H225628   6.391   3.872  15.542 -0.4140  1.0911  0.6863
 1405TIP3   OH225629   0.549   6.554  16.271 -0.0991 -0.4049 -0.0899
 1405TIP3    H125630   0.590   6.618  16.214  1.5751 -1.1706  0.1845
 1405TIP3    H225631   0.581   6.469  16.240 -1.8968 -1.1150 -0.1609
 1406TIP3   OH225632   2.366   4.045  16.395 -0.0892  0.0710 -0.3685
 1406TIP3    H125633   2.379   3.963  16.444  0.8527  1.0660  1.1322
 1406TIP3    H225634   2.409   4.029  16.311  1.7297 -0.3702  0.5932
 1407TIP3   OH225635   4.718   3.900  11.589 -0.2339 -0.0463  0.0207
 1407TIP3    H125636   4.735   3.829  11.526 -1.7238 -0.0311 -0.4488
 1407TIP3    H225637   4.779   3.969  11.565 -0.7420 -0.0586 -1.4227
 1408TIP3   OH225638   1.048   1.109  10.973  0.1551  0.2149  0.2660
 1408TIP3    H125639   1.021   1.180  10.915 -1.5241 -0.6700 -0.1245
 1408TIP3    H225640   1.137   1.131  11.000  0.4260  1.4004 -1.4767
 1409TIP3   OH225641   1.469   6.361  17.271 -0.1130  0.2102 -0.6386
 1409TIP3    H125642   1.379   6.359  17.240 -0.5012  0.1454  0.4497
 1409TIP3    H225643   1.463   6.336  17.364  1.2400 -1.7684 -1.0307
 1410TIP3   OH225644   2.775   4.013  15.790 -0.3342 -0.0699 -0.1050
 1410TIP3    H125645   2.710   3.943  15.786  0.3381 -0.6517 -3.0095
 1410TIP3    H225646   2.731   4.084  15.835 -1.8378 -1.5434  0.8636
 1411TIP3   OH225647   2.869   5.501  11.721 -0.3654  0.2539 -0.3682
 1411TIP3    H125648   2.872   5.597  11.715 -0.5506  0.2846 -0.0548
 1411TIP3    H225649   2.816   5.474  11.647  1.3401  0.2379 -1.6331
 1412TIP3   OH225650   0.532   4.527  12.759 -0.5016 -0.5715 -0.3494
 1412TIP3    H125651   0.488   4.570  12.686  0.9719 -0.4254 -1.2011
 1412TIP3    H225652   0.511   4.581  12.835 -3.1996 -1.4880 -0.3455
 1413TIP3   OH225653   6.637   3.882   0.247  0.3180 -0.1371  0.7348
 1413TIP3    H125654   6.582   3.887   0.168  0.2600  1.5662  0.8513
 1413TIP3    H225655   6.578   3.851   0.315  0.2665 -1.2219  0.2234
 1414TIP3   OH225656   3.773   5.401  15.593  0.2186  0.0086  0.5882
 1414TIP3    H125657   3.690   5.412  15.547  1.3240  0.1322 -1.4757
 1414TIP3    H225658   3.789   5.486  15.634 -0.4369  0.1173  0.6411
 1415TIP3   OH225659   0.041   6.005   3.083 -0.0248 -0.6717  0.1072
 1415TIP3    H125660   0.119   5.954   3.059  1.5212  1.2124  0.8874
 1415TIP3    H225661   0.023   6.059   3.006 -0.5031 -0.9712 -0.0027
 1416TIP3   OH225662   5.498   2.382  10.817  0.3264  0.4674 -0.2650
 1416TIP3    H125663   5.498   2.461  10.871 -2.6367 -0.7472  1.7774
 1416TIP3    H225664   5.571   2.330  10.850 -0.7244  0.2596  1.9240
 1417TIP3   OH225665   6.721   6.433  14.930  0.0353 -0.7731 -0.5029
 1417TIP3    H125666   6.810   6.428  14.897 -0.2997 -0.5712 -1.4860
 1417TIP3    H225667   6.709   6.525  14.953 -0.3013 -0.5535 -1.5199
 1418TIP3   OH225668   3.474   1.894   5.946 -0.3693  0.2163  0.2956
 1418TIP3    H125669   3.380   1.912   5.944 -0.5591 -0.7320 -0.0955
 1418TIP3    H225670   3.481   1.802   5.920  0.4925 -0.4064  2.4900
 1419TIP3   OH225671   0.324   3.110   5.293 -0.3592 -0.0888  0.1376
 1419TIP3    H125672   0.344   3.082   5.204 -0.7205 -0.7388  0.2601
 1419TIP3    H225673   0.300   3.203   5.284 -0.4358 -0.1614 -0.4434
 1420TIP3   OH225674   3.479   3.360   2.027 -0.2749 -0.1462 -0.6298
 1420TIP3    H125675   3.497   3.282   2.080 -2.4546 -0.3252 -0.0576
 1420TIP3    H225676   3.525   3.345   1.945  1.8478 -0.6091  0.5671
 1421TIP3   OH225677   0.377   5.479  14.768  0.0315 -0.4215 -0.3239
 1421TIP3    H125678   0.467   5.448  14.763  0.4088  0.7600 -1.0669
 1421TIP3    H225679   0.382   5.572  14.747 -1.1843 -0.0241  0.9818
 1422TIP3   OH225680   1.268   5.549  11.214  0.0281 -0.0901  0.0118
 1422TIP3    H125681   1.356   5.547  11.251 -0.2316 -1.1763  0.6248
 1422TIP3    H225682   1.266   5.628  11.159  0.4191  1.6180  2.3345
 1423TIP3   OH225683   1.166   4.788   2.704 -0.4759  0.5226  0.5948
 1423TIP3    H125684   1.170   4.803   2.798 -0.7982  0.0239  0.6917
 1423TIP3    H225685   1.079   4.820   2.679 -0.4020  0.6271  0.4747
 1424TIP3   OH225686   0.364   5.840   0.587 -1.0053  0.5524 -0.5124
 1424TIP3    H125687   0.328   5.929   0.590 -0.4705  0.8053 -1.2236
 1424TIP3    H225688   0.458   5.853   0.579 -0.9056 -0.0886 -0.3980
 1425TIP3   OH225689   1.127   6.692  13.097  0.0949  0.8889  0.1730
 1425TIP3    H125690   1.114   6.653  13.183 -0.6603  0.1937 -0.2368
 1425TIP3    H225691   1.118   6.786  13.111 -1.3295  0.7046  0.6487
 1426TIP3   OH225692   4.448   2.218  15.906 -0.0603  0.7260  0.5050
 1426TIP3    H125693   4.379   2.181  15.961  0.1487 -0.6811 -0.1382
 1426TIP3    H225694   4.419   2.201  15.816  0.7669  0.7873  0.2194
 1427TIP3   OH225695   1.757   5.061   2.402  0.4597 -0.2023 -0.1105
 1427TIP3    H125696   1.687   5.126   2.402  0.0403 -0.6322 -0.7194
 1427TIP3    H225697   1.802   5.074   2.319  0.8457 -0.1958  0.0998
 1428TIP3   OH225698   0.636   6.696  13.217  0.6103 -0.7915  0.1302
 1428TIP3    H125699   0.713   6.744  13.185  0.7143  0.7280  2.3870
 1428TIP3    H225700   0.581   6.684  13.139  2.3072 -0.3312 -1.2070
 1429TIP3   OH225701   6.034   5.869   1.173  0.3618 -0.0387 -1.0148
 1429TIP3    H125702   5.988   5.793   1.137  0.0268 -0.4963  0.3363
 1429TIP3    H225703   6.116   5.873   1.123 -1.5134  1.5005 -4.3288
 1430TIP3   OH225704   3.229   4.856  10.427 -0.4344 -0.0946  0.2799
 1430TIP3    H125705   3.180   4.803  10.489 -1.1174  1.1934  0.8724
 1430TIP3    H225706   3.309   4.805  10.411 -0.5572 -0.7849  1.6656
 1431TIP3   OH225707   4.606   6.393  13.901 -0.0103 -0.4432 -0.1787
 1431TIP3    H125708   4.583   6.418  13.991  1.1023 -1.8516  0.5410
 1431TIP3    H225709   4.522   6.376  13.858 -0.5053 -1.7909  1.2389
 1432TIP3   OH225710   4.071   3.237  11.114  0.4561  0.4230  0.3215
 1432TIP3    H125711   4.069   3.329  11.141 -1.6880  0.9374 -1.2842
 1432TIP3    H225712   3.981   3.207  11.124  1.2791 -1.8466  1.7000
 1433TIP3   OH225713   4.945   5.735  15.254 -0.1298  0.2001 -0.2256
 1433TIP3    H125714   4.868   5.736  15.311 -0.0908  1.5931 -0.1766
 1433TIP3    H225715   4.979   5.824  15.258  2.6094 -0.8230  1.2013
 1434TIP3   OH225716   5.131   1.481  11.997  0.4947  0.0834 -0.0644
 1434TIP3    H125717   5.185   1.466  11.920 -1.8129 -2.0202 -1.3975
 1434TIP3    H225718   5.077   1.556  11.974  0.0436 -0.3319 -0.3638
 1435TIP3   OH225719   5.203   1.138   1.532 -0.1002 -0.0572 -0.1629
 1435TIP3    H125720   5.262   1.128   1.607 -1.0599 -1.7629  0.4167
 1435TIP3    H225721   5.129   1.080   1.552 -0.6009 -0.1781 -2.2110
 1436TIP3   OH225722   2.721   3.932  16.904 -0.4016 -0.6606 -0.0561
 1436TIP3    H125723   2.806   3.942  16.948 -0.0402 -0.9174 -0.6842
 1436TIP3    H225724   2.657   3.932  16.975 -0.0885  1.7282  0.3400
 1437TIP3   OH225725   1.812   6.214  14.666  0.8521 -0.5573  0.4900
 1437TIP3    H125726   1.772   6.171  14.741  0.7399 -0.8080  0.2856
 1437TIP3    H225727   1.785   6.306  14.673  1.0321 -0.5319  0.8840
 1438TIP3   OH225728   4.641   5.878   0.296 -0.1710 -0.0152 -0.4979
 1438TIP3    H125729   4.679   5.833   0.372  1.6891 -0.5256 -1.6638
 1438TIP3    H225730   4.598   5.954   0.333  2.1726  0.7204  0.9843
 1439TIP3   OH225731   5.348   1.227   2.957  0.2486  0.5079  0.7395
 1439TIP3    H125732   5.356   1.294   2.889 -0.8058  0.1819  0.2759
 1439TIP3    H225733   5.379   1.269   3.036  1.3515  0.9491  0.0975
 1440TIP3   OH225734   0.980   4.581   1.837  0.2054  0.2245  0.5117
 1440TIP3    H125735   1.069   4.554   1.860  0.2076 -2.3664 -1.9177
 1440TIP3    H225736   0.993   4.654   1.776  0.8017 -0.8058 -0.6570
 1441TIP3   OH225737   3.519   5.144  14.290 -0.0058  0.3268 -0.5466
 1441TIP3    H125738   3.590   5.086  14.317 -1.6261 -1.2855  0.4683
 1441TIP3    H225739   3.525   5.218  14.351  1.6408  0.9424 -1.3932
 1442TIP3   OH225740   0.567   2.398   0.081  0.5455 -0.3389  0.2041
 1442TIP3    H125741   0.510   2.473   0.100  1.3872 -0.0535  1.7599
 1442TIP3    H225742   0.647   2.437   0.046  0.6215 -0.5894  0.0963
 1443TIP3   OH225743   4.507   1.433   3.147  0.2636  0.0342 -0.2016
 1443TIP3    H125744   4.577   1.444   3.083  0.8792  1.1600  0.6337
 1443TIP3    H225745   4.437   1.490   3.116  0.1780 -0.1588 -0.3720
 1444TIP3   OH225746   3.094   1.217  13.405 -0.0114 -0.0154 -0.7207
 1444TIP3    H125747   3.093   1.310  13.430  0.5348 -0.3841  0.8195
 1444TIP3    H225748   3.152   1.212  13.330  3.4750  0.3823  1.7151
 1445TIP3   OH225749   2.936   3.402  16.807  0.1932 -0.0736  0.2951
 1445TIP3    H125750   3.014   3.354  16.778  0.0308 -0.3729  0.3496
 1445TIP3    H225751   2.883   3.412  16.728 -0.3549 -1.0875  0.5137
 1446TIP3   OH225752   6.129   0.275  15.367  0.4641 -0.2517  0.1493
 1446TIP3    H125753   6.218   0.244  15.382  0.2072  0.1397  2.9642
 1446TIP3    H225754   6.130   0.365  15.397 -0.8460 -0.1895  0.0428
 1447TIP3   OH225755   2.957   1.907   2.759 -0.3327 -0.5606  0.4812
 1447TIP3    H125756   3.019   1.932   2.690  0.5936 -0.4911  1.3169
 1447TIP3    H225757   3.013   1.877   2.831 -1.2383  0.4665  1.6361
 1448TIP3   OH225758   1.659   1.720   3.477 -0.1510 -0.1596  0.6383
 1448TIP3    H125759   1.678   1.631   3.504 -1.0227 -0.0749  1.5964
 1448TIP3    H225760   1.611   1.710   3.394 -0.8492 -0.6139  1.0912
 1449TIP3   OH225761   2.732   5.718  12.314  0.7345 -0.3950 -0.2596
 1449TIP3    H125762   2.710   5.810  12.328 -0.0177 -0.6430  0.2197
 1449TIP3    H225763   2.744   5.710  12.219 -0.0652  0.0072 -0.3986
 1450TIP3   OH225764   5.818   5.854   3.837  0.1399  0.0028  0.0191
 1450TIP3    H125765   5.802   5.760   3.823  0.7786 -0.0706 -0.2493
 1450TIP3    H225766   5.790   5.870   3.927 -1.2380 -0.1570 -0.3545
 1451TIP3   OH225767   4.126   3.699   3.638 -0.8463 -0.5561  0.1139
 1451TIP3    H125768   4.104   3.782   3.596 -0.7361 -1.7881 -2.5649
 1451TIP3    H225769   4.221   3.699   3.644 -0.8951 -0.0504  1.1867
 1452TIP3   OH225770   1.769   5.296   3.370  1.0004 -0.1445  0.1520
 1452TIP3    H125771   1.730   5.246   3.442  1.2149 -1.0118 -0.3248
 1452TIP3    H225772   1.723   5.380   3.372  1.2229 -0.0256  1.5026
 1453TIP3   OH225773   2.192   6.526   2.752  0.3042 -0.1733  0.3086
 1453TIP3    H125774   2.113   6.521   2.699  0.0538 -0.8902  0.7341
 1453TIP3    H225775   2.239   6.602   2.718  0.3435 -0.8469 -1.1816
 1454TIP3   OH225776   1.692   2.656   3.395 -0.6233  0.1469  0.1910
 1454TIP3    H125777   1.747   2.583   3.366  0.0582  1.0676 -0.9555
 1454TIP3    H225778   1.752   2.730   3.404 -1.6102  1.1683 -1.0288
 1455TIP3   OH225779   3.159   6.005  13.488 -0.3062  0.2932  0.2505
 1455TIP3    H125780   3.191   6.065  13.421  0.2446 -1.7958 -1.4849
 1455TIP3    H225781   3.229   6.003  13.554  1.7812 -1.5647 -1.7931
 1456TIP3   OH225782   4.675   4.057   5.348 -0.6627  0.2631 -0.6367
 1456TIP3    H125783   4.608   4.111   5.307 -2.0767 -0.3745  0.7365
 1456TIP3    H225784   4.640   3.968   5.344 -0.1497 -0.0063  0.5537
 1457TIP3   OH225785   1.253   5.837  15.321 -0.1122 -0.3437 -0.1559
 1457TIP3    H125786   1.211   5.830  15.407  0.9905 -1.0388  0.3534
 1457TIP3    H225787   1.238   5.928  15.295  0.1812  0.1039  1.1289
 1458TIP3   OH225788   4.792   5.987   5.532 -0.0140 -0.5986  0.0086
 1458TIP3    H125789   4.851   5.990   5.457  1.0256  1.3621  0.8412
 1458TIP3    H225790   4.818   5.909   5.580  1.4665 -0.1323 -0.0034
 1459TIP3   OH225791   5.954   1.468  13.288  0.0381  0.2924 -0.2902
 1459TIP3    H125792   5.899   1.541  13.317  0.5885  0.5721  0.0611
 1459TIP3    H225793   5.962   1.481  13.193 -1.3239 -0.3284 -0.5131
 1460TIP3   OH225794   1.022   0.115  13.943  0.1545  0.1028 -0.6733
 1460TIP3    H125795   1.090   0.161  13.895  0.3637  0.3339 -0.1628
 1460TIP3    H225796   0.992   0.046  13.883 -0.4676  1.1596 -1.6023
 1461TIP3   OH225797   1.816   0.561   1.557 -0.2084  0.0525  0.2649
 1461TIP3    H125798   1.771   0.645   1.551  0.9203  0.5836 -2.0638
 1461TIP3    H225799   1.783   0.521   1.638 -0.6444  2.7890  1.5407
 1462TIP3   OH225800   1.341   2.366  11.759 -0.8572 -0.2996  0.1064
 1462TIP3    H125801   1.390   2.343  11.838 -1.6507 -1.8254  0.2113
 1462TIP3    H225802   1.399   2.343  11.686 -0.0848  1.2058  0.2209
 1463TIP3   OH225803   0.339   2.678   1.412 -0.3299  0.7112 -0.8409
 1463TIP3    H125804   0.365   2.769   1.419  1.7025  0.0611  1.1146
 1463TIP3    H225805   0.417   2.632   1.380 -0.7483 -0.5588 -0.1255
 1464TIP3   OH225806   3.280   2.378  11.545 -0.6382 -0.4447  0.4760
 1464TIP3    H125807   3.192   2.376  11.584  0.0545  1.3831  2.3088
 1464TIP3    H225808   3.336   2.338  11.612  0.1526 -0.0921  0.0233
 1465TIP3   OH225809   2.002   6.311   0.905 -0.0127 -0.2966  0.6804
 1465TIP3    H125810   1.988   6.309   1.000 -0.2398 -0.2443  0.6495
 1465TIP3    H225811   1.917   6.289   0.868 -0.0634  0.2112  0.4846
 1466TIP3   OH225812   5.107   4.524  15.455 -0.2239 -1.0801  0.1509
 1466TIP3    H125813   5.172   4.539  15.386 -1.4788  1.3876 -0.6422
 1466TIP3    H225814   5.153   4.548  15.536  0.2201 -0.4523 -0.2704
 1467TIP3   OH225815   0.220   0.966  14.486  0.1046  0.2161 -0.3363
 1467TIP3    H125816   0.240   0.972  14.580 -0.0470 -0.5229 -0.2476
 1467TIP3    H225817   0.126   0.982  14.481 -0.3083 -1.8361 -0.0947
 1468TIP3   OH225818   0.209   6.436  17.311  0.2215  0.4830  0.4282
 1468TIP3    H125819   0.157   6.449  17.390 -0.2337  1.1900  0.0248
 1468TIP3    H225820   0.299   6.431  17.342 -0.0523 -0.4736  1.1067
 1469TIP3   OH225821   0.130   6.462   6.523  0.1600 -0.1654  0.7838
 1469TIP3    H125822   0.189   6.398   6.483  0.0254 -0.9879  1.8603
 1469TIP3    H225823   0.077   6.410   6.584  0.0918  0.9857  1.7230
 1470TIP3   OH225824   0.811   1.952   4.265 -0.3892 -0.4252 -0.0623
 1470TIP3    H125825   0.731   1.944   4.317 -0.9020 -1.7497 -1.0090
 1470TIP3    H225826   0.781   1.976   4.178  0.4470  1.4820  0.1369
 1471TIP3   OH225827   6.571   4.060  13.366 -0.6764  0.3146 -0.5841
 1471TIP3    H125828   6.554   4.016  13.450 -2.0625 -1.0881 -1.5591
 1471TIP3    H225829   6.530   4.146  13.376  1.2095  1.1401  0.9804
 1472TIP3   OH225830   1.422   0.955  13.189  0.2633 -0.1303 -0.3024
 1472TIP3    H125831   1.350   0.988  13.134  0.8971 -0.4031 -1.3100
 1472TIP3    H225832   1.449   1.032  13.240 -0.7312 -0.0211  0.0967
 1473TIP3   OH225833   4.070   3.903  16.284  0.1052 -0.6460 -0.0284
 1473TIP3    H125834   4.071   3.990  16.325  0.2947 -0.9814  0.7013
 1473TIP3    H225835   4.147   3.903  16.226 -0.0183 -0.2536 -0.1972
 1474TIP3   OH225836   5.013   6.042  16.428 -0.6105 -0.3011 -0.4948
 1474TIP3    H125837   5.013   6.040  16.332  1.5080 -1.4422 -0.5443
 1474TIP3    H225838   5.083   6.104  16.450 -0.4178 -0.7876  0.2833
 1475TIP3   OH225839   6.320   0.618   2.010  0.3962  0.1929  0.0864
 1475TIP3    H125840   6.270   0.615   1.929 -1.0809  0.5769  0.9490
 1475TIP3    H225841   6.329   0.711   2.030 -0.3339  0.0870  0.9864
 1476TIP3   OH225842   6.329   5.864   0.515  0.1813 -0.3105  0.1647
 1476TIP3    H125843   6.388   5.810   0.462  0.1583 -0.3688  0.1971
 1476TIP3    H225844   6.276   5.912   0.452  0.2137 -0.3137  0.1353
 1477TIP3   OH225845   2.739   3.137  10.978  0.1200 -0.2397  0.7119
 1477TIP3    H125846   2.727   3.101  10.891  1.3745  0.8109  0.0690
 1477TIP3    H225847   2.651   3.146  11.013 -0.4020 -0.6123 -0.4758
 1478TIP3   OH225848   4.675   5.406  15.041 -0.0337 -0.0356  0.2724
 1478TIP3    H125849   4.607   5.466  15.011 -0.5724 -1.6651 -2.1001
 1478TIP3    H225850   4.758   5.449  15.020 -0.3753  0.5352  0.0850
 1479TIP3   OH225851   2.544   2.412   2.959  0.1385  0.0683 -0.0530
 1479TIP3    H125852   2.584   2.328   2.935 -1.0916 -0.4812 -0.2480
 1479TIP3    H225853   2.469   2.388   3.012 -0.3940  1.0360 -0.3550
 1480TIP3   OH225854   1.568   6.600   1.430  0.0605  0.5823  0.0506
 1480TIP3    H125855   1.509   6.530   1.458  0.8050 -0.4115 -0.8219
 1480TIP3    H225856   1.600   6.638   1.512 -0.1703 -0.2370  0.5292
 1481TIP3   OH225857   2.964   3.429  15.626  0.2195  0.1545 -0.6941
 1481TIP3    H125858   2.982   3.425  15.532 -1.1372 -2.4569 -0.9543
 1481TIP3    H225859   2.900   3.359  15.640  0.7062  0.1992  2.2648
 1482TIP3   OH225860   0.348   3.853   6.047 -0.0879  0.4306 -0.6828
 1482TIP3    H125861   0.361   3.834   6.140 -1.8127  0.1919 -0.4530
 1482TIP3    H225862   0.404   3.790   6.002 -0.0996 -0.2269  0.1878
 1483TIP3   OH225863   2.163   6.515  14.859  0.4653 -0.6690 -0.3904
 1483TIP3    H125864   2.246   6.515  14.907 -0.1273 -2.6006  0.7433
 1483TIP3    H225865   2.183   6.560  14.777  1.7505  1.9495  1.2389
 1484TIP3   OH225866   1.572   6.527   0.530  0.1826  0.5635 -0.3606
 1484TIP3    H125867   1.651   6.492   0.490  0.0724  1.5109 -1.4500
 1484TIP3    H225868   1.545   6.460   0.593  1.0410 -0.4151 -1.0088
 1485TIP3   OH225869   3.046   5.380  12.917 -0.1114 -0.0451  0.5524
 1485TIP3    H125870   3.034   5.373  13.012 -2.4381 -1.7291  0.2462
 1485TIP3    H225871   3.096   5.302  12.893  1.8220  1.1616  0.5174
 1486TIP3   OH225872   0.192   2.212  15.801  0.2776 -0.3389 -0.3494
 1486TIP3    H125873   0.213   2.284  15.861  0.1693 -0.6870  0.1146
 1486TIP3    H225874   0.104   2.184  15.828  0.3903 -0.7582 -0.4175
 1487TIP3   OH225875   3.499   0.656   5.371  0.1466  0.6859 -0.2402
 1487TIP3    H125876   3.561   0.631   5.303  0.9671 -0.4480  0.8676
 1487TIP3    H225877   3.548   0.645   5.453 -1.7595 -1.2066  0.7500
 1488TIP3   OH225878   2.407   6.568   3.966 -0.2254 -0.0127 -0.0533
 1488TIP3    H125879   2.483   6.551   4.021 -0.6431  0.9766  0.8694
 1488TIP3    H225880   2.343   6.501   3.991 -0.0558 -0.1642 -0.0294
 1489TIP3   OH225881   4.259   2.536   5.401  1.0031  0.1284 -0.1230
 1489TIP3    H125882   4.327   2.468   5.396 -0.0947 -0.9072 -1.7527
 1489TIP3    H225883   4.186   2.493   5.446  1.7335  1.5849  2.6781
 1490TIP3   OH225884   1.549   5.699   4.393 -0.1412  0.1696  0.1678
 1490TIP3    H125885   1.499   5.652   4.459 -0.1801 -0.9682 -0.6440
 1490TIP3    H225886   1.485   5.720   4.324 -0.3332  2.2438  0.8928
 1491TIP3   OH225887   4.085   2.617   1.576  0.1704 -0.5231  0.3271
 1491TIP3    H125888   4.123   2.683   1.634 -1.9816 -0.2726  1.5820
 1491TIP3    H225889   4.158   2.562   1.550  2.1107  2.4262 -0.9418
 1492TIP3   OH225890   4.809   4.188   3.671  0.5379 -0.3854  0.1517
 1492TIP3    H125891   4.860   4.192   3.590  0.9915 -0.5949  0.4242
 1492TIP3    H225892   4.726   4.230   3.648  1.0589  0.5289 -0.1241
 1493TIP3   OH225893   4.340   3.282  13.683  0.4109  0.0962  0.0769
 1493TIP3    H125894   4.379   3.228  13.615  1.1216 -0.8672  1.2208
 1493TIP3    H225895   4.249   3.293  13.656  0.6814 -0.2481 -1.0214
 1494TIP3   OH225896   5.847   2.111  11.668  0.5028 -0.0193  0.8825
 1494TIP3    H125897   5.784   2.183  11.658 -1.8588 -1.9920  0.6714
 1494TIP3    H225898   5.877   2.092  11.579 -0.9110 -0.9572  0.5744
 1495TIP3   OH225899   2.672   5.714   3.793 -0.2270 -0.0486  0.0390
 1495TIP3    H125900   2.602   5.769   3.830  0.0348  0.1334  0.2749
 1495TIP3    H225901   2.739   5.777   3.766  0.3544 -0.2756  0.9028
 1496TIP3   OH225902   5.514   3.430  16.845 -0.4659 -0.1797  1.1952
 1496TIP3    H125903   5.508   3.339  16.814  1.0448  0.1683 -0.2529
 1496TIP3    H225904   5.597   3.432  16.893 -0.0305  0.6512  0.4218
 1497TIP3   OH225905   4.917   5.701  12.915  0.2462  0.1970 -0.8644
 1497TIP3    H125906   5.012   5.692  12.923  0.2220  0.1737 -0.5999
 1497TIP3    H225907   4.881   5.634  12.973  0.0703  0.4861 -0.6358
 1498TIP3   OH225908   3.409   5.676   1.147 -0.6404  0.6576 -0.3981
 1498TIP3    H125909   3.450   5.694   1.231  1.6386  0.2822 -1.3703
 1498TIP3    H225910   3.344   5.608   1.166 -0.5306  0.9545  1.1350
 1499TIP3   OH225911   2.861   1.118   0.668 -0.6331 -0.5754  0.1403
 1499TIP3    H125912   2.877   1.144   0.759  0.2989  1.7096 -0.5862
 1499TIP3    H225913   2.814   1.193   0.631 -4.5556 -2.9735 -0.3879
 1500TIP3   OH225914   3.138   4.946   2.038  0.4866 -0.1653  0.0856
 1500TIP3    H125915   3.064   4.888   2.015  0.5425 -1.8689  3.5066
 1500TIP3    H225916   3.206   4.925   1.975 -1.2091 -0.1108 -1.8440
 1501TIP3   OH225917   1.880   2.031   3.224 -0.1790  0.3879 -0.1867
 1501TIP3    H125918   1.916   2.072   3.146  0.0244  1.6247  0.5392
 1501TIP3    H225919   1.794   2.071   3.235 -1.0136 -1.1247 -0.7917
 1502TIP3   OH225920   3.496   5.130  13.869  0.3879  0.2150 -0.4949
 1502TIP3    H125921   3.541   5.049  13.844 -1.7015 -1.8477  1.8013
 1502TIP3    H225922   3.415   5.129  13.818 -0.0580  0.3848  0.2020
 1503TIP3   OH225923   2.253   4.308   2.299  0.3419 -0.3831 -0.3140
 1503TIP3    H125924   2.219   4.249   2.232  0.2164 -0.1342 -0.4691
 1503TIP3    H225925   2.174   4.344   2.341  0.3698 -2.0122  1.2906
 1504TIP3   OH225926   4.819   3.365  13.795  0.0179  0.9527 -0.2235
 1504TIP3    H125927   4.832   3.349  13.702  1.1942  1.3327 -0.1372
 1504TIP3    H225928   4.725   3.357  13.808  0.0468 -1.3632 -1.0231
 1505TIP3   OH225929   0.975   5.443   5.651  0.4133 -0.1007  0.7330
 1505TIP3    H125930   0.909   5.471   5.588  0.6241 -1.9166 -0.3725
 1505TIP3    H225931   0.983   5.348   5.637  0.3542 -0.6197  3.6050
 1506TIP3   OH225932   1.205   3.085  13.668  0.3503  0.1929 -0.3705
 1506TIP3    H125933   1.128   3.054  13.621  1.4172  0.7883 -2.6275
 1506TIP3    H225934   1.202   3.039  13.752 -1.6791 -0.8539 -0.9555
 1507TIP3   OH225935   4.121   3.892   2.369  0.0539 -0.0601 -0.2848
 1507TIP3    H125936   4.073   3.901   2.287 -0.4643 -2.6411 -0.3470
 1507TIP3    H225937   4.054   3.869   2.434  0.8166 -0.9858  0.2055
 1508TIP3   OH225938   2.461   4.808   2.039 -0.4510 -0.1128  0.3268
 1508TIP3    H125939   2.416   4.885   2.074 -2.2578 -1.6467  1.6120
 1508TIP3    H225940   2.429   4.799   1.950  0.6118  1.1924 -0.2186
 1509TIP3   OH225941   3.594   0.343  14.551 -0.4076 -0.6862 -0.1224
 1509TIP3    H125942   3.672   0.290  14.571 -0.7645 -1.5474 -0.9210
 1509TIP3    H225943   3.524   0.279  14.541 -1.0285  0.0127 -0.3244
 1510TIP3   OH225944   4.386   5.649  15.871  0.2930 -0.4401 -0.4639
 1510TIP3    H125945   4.302   5.620  15.907  0.8314 -1.8359 -0.2977
 1510TIP3    H225946   4.432   5.687  15.947  0.0613 -0.2473 -0.4193
 1511TIP3   OH225947   5.025   4.895  12.796 -0.2693  0.1463 -0.0547
 1511TIP3    H125948   5.047   4.953  12.869 -0.5164  0.5358 -0.2895
 1511TIP3    H225949   4.995   4.815  12.839  0.3647  0.0734  0.2682
 1512TIP3   OH225950   6.300   4.769   0.599 -0.7107 -0.3150 -0.0571
 1512TIP3    H125951   6.233   4.734   0.657 -0.3133  1.5547  1.6415
 1512TIP3    H225952   6.260   4.768   0.512 -1.8661 -1.8084  0.4479
 1513TIP3   OH225953   6.687   5.084   1.824 -0.2780 -0.2949  0.1619
 1513TIP3    H125954   6.708   5.123   1.909 -1.1756  0.6204 -0.0071
 1513TIP3    H225955   6.596   5.055   1.833 -0.2741 -0.4808 -0.3772
 1514TIP3   OH225956   5.367   0.588   3.437 -0.0397 -0.0650  0.7063
 1514TIP3    H125957   5.281   0.621   3.414  0.3390  1.2354  1.0129
 1514TIP3    H225958   5.356   0.551   3.525 -0.5926 -1.2907  0.1391
 1515TIP3   OH225959   1.956   3.455  14.764  0.3019  0.0140 -0.8400
 1515TIP3    H125960   1.967   3.549  14.746  1.4067  0.1573  0.3971
 1515TIP3    H225961   2.045   3.421  14.767 -0.0144 -0.7777  0.1724
 1516TIP3   OH225962   5.293   1.083   4.172 -0.3018 -0.0278  1.3309
 1516TIP3    H125963   5.248   1.062   4.090  2.0664 -0.6359  0.0891
 1516TIP3    H225964   5.280   1.006   4.227  0.1467 -0.6967  0.5321
 1517TIP3   OH225965   1.128   0.390  16.168 -0.0278 -0.1816 -0.4162
 1517TIP3    H125966   1.072   0.314  16.161 -0.4380 -0.1552  1.8730
 1517TIP3    H225967   1.217   0.355  16.161 -0.2311 -0.7991  0.0166
 1518TIP3   OH225968   5.300   3.743  12.698  0.0313 -0.3199  1.6680
 1518TIP3    H125969   5.241   3.681  12.742 -1.8242  0.0173 -0.1940
 1518TIP3    H225970   5.242   3.807  12.657  1.8344  1.5275  1.8382
 1519TIP3   OH225971   6.554   1.492  16.386  0.0170  0.4310 -0.2081
 1519TIP3    H125972   6.465   1.468  16.360 -0.3646  1.0616  0.4940
 1519TIP3    H225973   6.601   1.409  16.391 -1.1133 -0.1504  1.5825
 1520TIP3   OH225974   5.746   4.727   5.178 -0.3116  0.1056 -0.3480
 1520TIP3    H125975   5.787   4.670   5.242  1.0455  0.7117 -0.6458
 1520TIP3    H225976   5.653   4.724   5.199  0.1985  1.3635  2.5406
 1521TIP3   OH225977   3.394   3.096  16.640 -0.7981  0.4341  0.2334
 1521TIP3    H125978   3.433   3.170  16.593  0.9175  0.2734  1.3342
 1521TIP3    H225979   3.408   3.021  16.582  1.2558  0.2465  0.9109
 1522TIP3   OH225980   6.048   3.801  12.426  0.0537  0.3886 -0.1139
 1522TIP3    H125981   6.030   3.719  12.473 -1.8302  1.0569  0.4062
 1522TIP3    H225982   6.012   3.788  12.339  1.4310  0.0192 -0.6571
 1523TIP3   OH225983   2.046   6.574   3.883 -0.0232  0.1991 -0.0571
 1523TIP3    H125984   1.992   6.498   3.903  1.1294 -1.1243 -1.6633
 1523TIP3    H225985   2.061   6.616   3.968 -0.2235 -1.6891  0.9701
 1524TIP3   OH225986   5.401   4.049  10.906 -0.1067 -0.6457 -0.1180
 1524TIP3    H125987   5.469   4.059  10.972 -0.6088 -0.2723  0.3573
 1524TIP3    H225988   5.333   3.997  10.950  0.5799 -2.5144 -1.1365
 1525TIP3   OH225989   0.001   4.774  16.309 -0.2525 -0.2954  0.0362
 1525TIP3    H125990  -0.003   4.748  16.217 -0.0267 -1.5963  0.3725
 1525TIP3    H225991   0.094   4.793  16.325 -0.0365 -1.5572  0.3648
 1526TIP3   OH225992   4.809   2.732  12.088  0.6057  0.3894  0.3059
 1526TIP3    H125993   4.768   2.800  12.141 -1.6092  0.2531 -1.1286
 1526TIP3    H225994   4.815   2.656  12.147 -0.0361  0.8086  0.9227
 1527TIP3   OH225995   6.197   6.493  11.660  0.4736  0.1184 -0.4230
 1527TIP3    H125996   6.186   6.495  11.755  1.0831 -0.6024 -0.3243
 1527TIP3    H225997   6.208   6.585  11.636 -1.2822  0.4674 -0.0206
 1528TIP3   OH225998   4.563   3.814   2.036  0.0714  0.2364  0.1483
 1528TIP3    H125999   4.629   3.865   2.083  0.4422 -0.1425  0.0431
 1528TIP3    H226000   4.491   3.803   2.099  1.8222 -2.9736  1.8264
 1529TIP3   OH226001   4.068   0.448   4.652  0.1977  0.6174 -0.0696
 1529TIP3    H126002   4.132   0.501   4.699  0.2271  1.2580 -0.8014
 1529TIP3    H226003   4.119   0.402   4.586  0.0064  0.5808 -0.1928
 1530TIP3   OH226004   5.486   2.831   1.263 -0.3757  0.1127 -0.0666
 1530TIP3    H126005   5.447   2.860   1.180 -0.6545  0.7103  0.2660
 1530TIP3    H226006   5.487   2.910   1.317 -0.3522 -0.3155  0.5580
 1531TIP3   OH226007   2.377   1.112  16.810 -0.3158 -0.3665 -0.3124
 1531TIP3    H126008   2.356   1.051  16.881  0.6686 -0.3060  0.0491
 1531TIP3    H226009   2.394   1.195  16.854  3.0811 -0.9423 -0.2221
 1532TIP3   OH226010   2.236   2.361   6.449  0.2758  0.3900 -0.2142
 1532TIP3    H126011   2.171   2.392   6.512  2.0431 -1.1772  2.6225
 1532TIP3    H226012   2.226   2.266   6.449  3.1179 -0.0366  1.2141
 1533TIP3   OH226013   0.922   5.803   4.236 -0.1120 -0.1302 -0.0632
 1533TIP3    H126014   0.843   5.842   4.200 -1.2475  1.0634  3.3477
 1533TIP3    H226015   0.968   5.875   4.278  0.6701 -1.4481  1.4819
 1534TIP3   OH226016   3.600   6.277   3.875  0.0035  0.2808 -0.4706
 1534TIP3    H126017   3.667   6.303   3.812  1.0699 -0.9376  0.1042
 1534TIP3    H226018   3.608   6.340   3.946  1.7452 -0.8105  0.3715
 1535TIP3   OH226019   4.383   5.412  13.613  0.1037  0.0212 -0.2584
 1535TIP3    H126020   4.450   5.366  13.664 -0.0799 -0.4829 -0.4647
 1535TIP3    H226021   4.317   5.438  13.678  1.0550  1.5782  0.1328
 1536TIP3   OH226022   2.684   3.399  17.149  0.0289  0.2064 -0.1621
 1536TIP3    H126023   2.708   3.392  17.241  0.1915  2.0296 -0.0255
 1536TIP3    H226024   2.699   3.491  17.127 -0.5156 -0.0703 -1.8709
 1537TIP3   OH226025   3.989   4.685  10.835  0.4493 -0.2940 -0.3266
 1537TIP3    H126026   3.980   4.672  10.930 -1.5158 -2.0127 -0.6895
 1537TIP3    H226027   3.960   4.775  10.821  1.7335  0.3372  0.7853
 1538TIP3   OH226028   3.670   0.345   5.309 -0.9002  0.0224  0.2963
 1538TIP3    H126029   3.679   0.256   5.343 -0.2528 -1.1138 -2.5350
 1538TIP3    H226030   3.759   0.369   5.283 -1.5739 -0.0262 -2.2966
 1539TIP3   OH226031   3.836   6.508   0.453  0.3377  0.3345 -0.4468
 1539TIP3    H126032   3.864   6.595   0.481  1.3302 -0.5799  1.5691
 1539TIP3    H226033   3.915   6.454   0.459 -0.5679 -1.0163 -0.2773
 1540TIP3   OH226034   2.439   2.561   1.125 -0.5513 -0.1094 -0.0509
 1540TIP3    H126035   2.476   2.500   1.189 -2.0405  0.5071  1.4977
 1540TIP3    H226036   2.513   2.613   1.096  0.3630 -1.1657  0.2933
 1541TIP3   OH226037   3.912   2.290   3.857  0.4591  0.7598  0.2010
 1541TIP3    H126038   3.881   2.380   3.865 -0.8214  0.1932  2.2418
 1541TIP3    H226039   3.935   2.264   3.947  1.0988 -0.8521 -0.3813
 1542TIP3   OH226040   5.620   4.188   4.587  0.1149  0.5548  0.4029
 1542TIP3    H126041   5.611   4.258   4.523 -0.3780  1.5937  1.5759
 1542TIP3    H226042   5.589   4.109   4.542  0.6634  1.0697 -0.9241
 1543TIP3   OH226043   2.509   3.705   2.234 -0.6404 -0.5755  0.1148
 1543TIP3    H126044   2.587   3.651   2.246  1.0381  1.3853 -1.2340
 1543TIP3    H226045   2.505   3.759   2.313 -1.0070 -1.1010  0.4592
 1544TIP3   OH226046   0.095   5.396   5.410 -0.3990  0.1300 -0.2001
 1544TIP3    H126047   0.083   5.396   5.315  0.2113  0.8234 -0.2802
 1544TIP3    H226048   0.021   5.446   5.444 -0.5694 -0.0439 -0.3153
 1545TIP3   OH226049   4.519   4.727  12.043  0.7207  0.3566 -0.3485
 1545TIP3    H126050   4.503   4.818  12.066  2.3019  0.0221  2.6833
 1545TIP3    H226051   4.594   4.730  11.983  1.9525  1.0728  1.1413
 1546TIP3   OH226052   1.948   5.083  16.716  0.1188  0.3138  0.5855
 1546TIP3    H126053   2.011   5.152  16.695  0.7002 -0.2419  0.4692
 1546TIP3    H226054   1.999   5.002  16.711 -0.3150 -0.0450  1.7258
 1547TIP3   OH226055   1.131   2.159   5.166 -0.3175  0.0904 -0.0415
 1547TIP3    H126056   1.109   2.118   5.082 -0.8888  1.2636 -0.4835
 1547TIP3    H226057   1.096   2.099   5.232  1.6561 -1.7457 -0.5477
 1548TIP3   OH226058   6.389   6.039  11.527 -0.3602 -0.7695 -0.1565
 1548TIP3    H126059   6.383   6.093  11.448 -0.2571 -0.1361  0.2551
 1548TIP3    H226060   6.385   5.949  11.495 -2.4896 -0.5450 -0.7235
 1549TIP3   OH226061   3.631   6.397   0.323  0.4296 -0.3199  0.5296
 1549TIP3    H126062   3.671   6.391   0.236  1.0547  3.4720  0.3522
 1549TIP3    H226063   3.692   6.451   0.373 -1.2590 -0.0360  2.4069
 1550TIP3   OH226064   5.397   0.756   0.212 -0.0319 -0.0470  0.2722
 1550TIP3    H126065   5.414   0.696   0.140  2.0144 -1.1161  1.5794
 1550TIP3    H226066   5.463   0.736   0.277 -1.0392  1.7390  1.9603
 1551TIP3   OH226067   4.010   5.594   2.783  0.2592 -0.1483  0.1633
 1551TIP3    H126068   3.964   5.595   2.867  2.3109 -3.1888  1.5073
 1551TIP3    H226069   4.101   5.611   2.806  0.8254 -0.8122 -1.4782
 1552TIP3   OH226070   3.529   4.129   0.303  0.1707  0.2485 -0.1467
 1552TIP3    H126071   3.615   4.155   0.337 -0.1021  0.0465  0.7123
 1552TIP3    H226072   3.540   4.132   0.207  1.4214 -0.6925 -0.0660
 1553TIP3   OH226073   0.984   6.610  16.342 -0.8132 -0.4981  0.3941
 1553TIP3    H126074   0.931   6.688  16.356  0.9940  1.3605 -2.2206
 1553TIP3    H226075   1.063   6.642  16.298  0.9594 -3.5649  1.0544
 1554TIP3   OH226076   5.461   4.581  13.717 -0.0797 -0.0390  0.2177
 1554TIP3    H126077   5.377   4.542  13.742  0.7060 -0.6061  2.1420
 1554TIP3    H226078   5.477   4.647  13.783  0.2470  1.2311 -1.0863
 1555TIP3   OH226079   1.545   2.614   4.012  0.2856 -0.0584 -0.2367
 1555TIP3    H126080   1.478   2.606   3.945  0.7006  0.3556 -0.7107
 1555TIP3    H226081   1.509   2.677   4.075 -1.1984 -2.3195  1.3063
 1556TIP3   OH226082   5.966   6.030  16.082  0.0369  0.3854 -0.3929
 1556TIP3    H126083   6.012   6.114  16.076 -0.3128  0.5311 -1.2291
 1556TIP3    H226084   5.911   6.028  16.004 -0.4648 -0.3269 -0.0249
 1557TIP3   OH226085   0.569   0.464  14.599 -0.1518 -0.2312  0.4466
 1557TIP3    H126086   0.505   0.419  14.545 -0.8597 -1.0469  1.8890
 1557TIP3    H226087   0.605   0.533  14.543 -3.1904  1.1105 -0.0105
 1558TIP3   OH226088   2.665   0.438   0.461  0.3747 -0.1933  0.0088
 1558TIP3    H126089   2.577   0.447   0.424  1.6274 -0.1806 -3.2450
 1558TIP3    H226090   2.667   0.349   0.496 -1.1289  0.0710  0.8940
 1559TIP3   OH226091   4.927   1.164   1.273 -0.0451 -0.5358  0.2969
 1559TIP3    H126092   4.901   1.079   1.238 -0.4066 -1.8344  3.3951
 1559TIP3    H226093   4.873   1.227   1.226  0.1727 -1.9864 -2.0203
 1560TIP3   OH226094   4.012   5.197   4.401 -0.0874  0.0405  0.0586
 1560TIP3    H126095   3.975   5.269   4.349 -0.6700  0.1268  0.5874
 1560TIP3    H226096   4.100   5.227   4.424 -0.2808  0.5348  0.1735
 1561TIP3   OH226097   2.447   4.240   3.573 -0.3546  0.4134  0.2555
 1561TIP3    H126098   2.383   4.292   3.525 -1.3085 -1.1039 -0.1895
 1561TIP3    H226099   2.529   4.288   3.564 -1.0979  1.5810 -0.5201
 1562TIP3   OH226100   3.762   2.411   3.175 -0.3847 -0.1777  0.1646
 1562TIP3    H126101   3.754   2.392   3.082  0.7553  0.1028 -0.0101
 1562TIP3    H226102   3.683   2.374   3.214 -1.2342  0.3441 -1.0028
 1563TIP3   OH226103   0.194   3.303  15.671  0.1889 -0.2966 -0.3830
 1563TIP3    H126104   0.280   3.314  15.630  0.5586  0.4166  0.5385
 1563TIP3    H226105   0.136   3.280  15.599  1.2740 -1.4492 -0.9236
 1564TIP3   OH226106   6.479   4.619   1.656  0.1204  0.4865  0.1854
 1564TIP3    H126107   6.405   4.593   1.601 -2.8847 -0.3734  4.2216
 1564TIP3    H226108   6.522   4.537   1.679  0.5364  0.7037  0.1907
 1565TIP3   OH226109   2.559   1.708   6.387 -0.1559  0.0271  0.5712
 1565TIP3    H126110   2.615   1.721   6.464  0.2655 -1.0693  0.4586
 1565TIP3    H226111   2.479   1.757   6.408  1.6832  3.8281 -0.3273
 1566TIP3   OH226112   1.597   1.253  14.449 -0.0705 -0.2273  0.4093
 1566TIP3    H126113   1.614   1.169  14.492 -2.6596 -0.4352  1.2487
 1566TIP3    H226114   1.546   1.231  14.372  0.4576  0.4887 -0.1591
 1567TIP3   OH226115   0.475   3.775  10.420  0.2031  0.3855  0.8922
 1567TIP3    H126116   0.518   3.808  10.342 -1.8909  0.5917 -0.2474
 1567TIP3    H226117   0.440   3.689  10.394  0.1848  0.0841  1.8598
 1568TIP3   OH226118   3.338   4.249   1.797 -0.2751  0.1518 -0.3654
 1568TIP3    H126119   3.310   4.165   1.832  1.0137 -0.0055  0.3474
 1568TIP3    H226120   3.419   4.230   1.750  1.1684  1.2662  1.5250
 1569TIP3   OH226121   1.765   2.188   4.724 -0.4882 -0.0933 -0.0074
 1569TIP3    H126122   1.809   2.105   4.706  0.6903  0.5387 -0.1748
 1569TIP3    H226123   1.822   2.254   4.683 -0.5138  0.9283  1.5211
 1570TIP3   OH226124   0.297   6.180  16.289 -0.2686 -0.2201 -0.9671
 1570TIP3    H126125   0.305   6.239  16.363 -1.7834  0.0264 -0.9547
 1570TIP3    H226126   0.324   6.232  16.213 -1.5177  0.4965 -0.9447
 1571TIP3   OH226127   2.173   3.937   1.250 -0.0076  0.4879  0.2022
 1571TIP3    H126128   2.134   3.900   1.171  0.1818  0.8564 -0.0622
 1571TIP3    H226129   2.128   3.892   1.322 -1.0015  0.9799 -0.0991
 1572TIP3   OH226130   1.375   0.995   3.494 -0.0795  0.1838  0.7236
 1572TIP3    H126131   1.438   0.923   3.503 -1.2135 -0.7821  1.1647
 1572TIP3    H226132   1.306   0.974   3.557 -2.1176 -0.1764 -1.5056
 1573TIP3   OH226133   0.431   0.140  11.355  0.2995 -0.1706 -0.3017
 1573TIP3    H126134   0.506   0.086  11.331  0.0898  0.0676 -1.5360
 1573TIP3    H226135   0.380   0.084  11.414  0.1416 -1.3018 -1.4613
 1574TIP3   OH226136   1.206   5.109   2.845 -0.0234  0.9899  0.4880
 1574TIP3    H126137   1.296   5.102   2.814  0.2909  2.2608  1.0710
 1574TIP3    H226138   1.153   5.086   2.769  0.7764  1.1104 -0.1193
 1575TIP3   OH226139   6.245   1.917  12.068  0.3291  0.2523 -0.3405
 1575TIP3    H126140   6.212   1.831  12.094 -0.1280  1.0739  2.0965
 1575TIP3    H226141   6.166   1.971  12.058  0.6558  0.6510 -0.7927
 1576TIP3   OH226142   4.774   3.272  15.722 -0.0889 -0.0585 -0.3484
 1576TIP3    H126143   4.756   3.320  15.642  0.1477 -1.0424 -1.0067
 1576TIP3    H226144   4.798   3.339  15.786 -0.5801  0.7560 -1.0105
 1577TIP3   OH226145   5.941   2.143   2.501  0.4510 -0.5170  0.0518
 1577TIP3    H126146   5.968   2.227   2.462  0.9388 -1.8624 -2.8128
 1577TIP3    H226147   6.020   2.109   2.542  0.6034 -0.1561  0.0630
 1578TIP3   OH226148   4.693   3.832  16.396  0.1632 -0.3254  0.6529
 1578TIP3    H126149   4.764   3.769  16.409  0.8540  0.4362  0.7302
 1578TIP3    H226150   4.737   3.917  16.400 -0.9377  0.2219  1.9013
 1579TIP3   OH226151   0.810   2.067  16.120  0.0984 -0.1490 -0.5197
 1579TIP3    H126152   0.796   2.110  16.036  0.8606  1.0322 -0.0649
 1579TIP3    H226153   0.891   2.104  16.153  0.2979 -1.2792  0.3265
 1580TIP3   OH226154   2.583   5.012  11.231 -0.0225 -0.0017  0.0432
 1580TIP3    H126155   2.675   5.014  11.205 -0.1199 -1.3286 -0.4384
 1580TIP3    H226156   2.583   4.970  11.317  0.1341  2.9853  1.6394
 1581TIP3   OH226157   3.937   1.778   3.699 -0.5935 -0.5726  0.1329
 1581TIP3    H126158   4.008   1.821   3.746 -1.2048  0.1092  0.4609
 1581TIP3    H226159   3.940   1.687   3.727  1.5254 -1.0881 -1.5160
 1582TIP3   OH226160   2.369   3.602  12.614 -0.2907 -0.1331  0.3704
 1582TIP3    H126161   2.418   3.539  12.561  2.3143 -0.2446  2.7019
 1582TIP3    H226162   2.408   3.687  12.592 -2.4866  0.5466 -1.3189
 1583TIP3   OH226163   4.622   1.735  14.574  0.1659  0.2016 -0.4406
 1583TIP3    H126164   4.664   1.649  14.572 -1.6042 -0.7076 -0.1712
 1583TIP3    H226165   4.636   1.770  14.486  0.4441 -0.5826 -0.7169
 1584TIP3   OH226166   6.242   2.530  16.350  0.0438 -0.5682 -0.4969
 1584TIP3    H126167   6.268   2.526  16.442 -0.5693 -0.9305 -0.3356
 1584TIP3    H226168   6.319   2.500  16.302 -0.1338 -1.8215 -0.0170
 1585TIP3   OH226169   5.900   0.538  16.650 -0.3630  0.2102 -0.4834
 1585TIP3    H126170   5.897   0.500  16.563  3.2750  0.8290 -1.0284
 1585TIP3    H226171   5.930   0.628  16.637  1.4019 -0.0214  1.4168
 1586TIP3   OH226172   3.705   4.520   3.540 -0.8993  0.2549  0.0516
 1586TIP3    H126173   3.616   4.487   3.527 -1.2030  1.1492 -0.1504
 1586TIP3    H226174   3.694   4.611   3.566  0.0239  0.9463 -1.8434
 1587TIP3   OH226175   4.449   4.016   3.511  0.1038 -0.0531 -0.2744
 1587TIP3    H126176   4.512   3.944   3.520 -0.4226 -0.6992 -1.5163
 1587TIP3    H226177   4.375   3.977   3.464 -0.1541  1.3306 -1.0710
 1588TIP3   OH226178   0.160   5.197  17.354 -0.2343 -0.0836 -0.1731
 1588TIP3    H126179   0.140   5.211  17.447 -2.0402 -0.8333 -0.4043
 1588TIP3    H226180   0.255   5.201  17.349 -0.1050  0.1049  1.6914
 1589TIP3   OH226181   4.119   2.784   0.375  0.6431  0.2293 -0.0802
 1589TIP3    H126182   4.066   2.765   0.298 -0.6007 -0.3565  0.8793
 1589TIP3    H226183   4.181   2.711   0.380 -0.6543 -0.8614  0.6253
 1590TIP3   OH226184   5.504   5.208  15.169  0.0362  0.0230  0.1195
 1590TIP3    H126185   5.478   5.296  15.142 -2.7364 -0.9687 -0.8209
 1590TIP3    H226186   5.518   5.216  15.263 -0.7335  1.3753  0.1538
 1591TIP3   OH226187   3.375   0.978   4.281 -0.3190 -0.6114  0.3025
 1591TIP3    H126188   3.391   0.896   4.328 -0.6298  0.0193  1.5573
 1591TIP3    H226189   3.363   1.043   4.351 -1.8710  0.1623 -0.6433
 1592TIP3   OH226190   4.841   2.485   5.489  0.1849  0.6233  0.1733
 1592TIP3    H126191   4.926   2.519   5.516 -1.5348  2.0557  4.5773
 1592TIP3    H226192   4.781   2.560   5.498 -2.2113 -1.3041  1.2774
 1593TIP3   OH226193   4.153   5.883  16.291 -0.2241  0.0047  0.3336
 1593TIP3    H126194   4.129   5.890  16.199 -0.2538 -0.0923  0.3340
 1593TIP3    H226195   4.085   5.827  16.330 -1.2503  1.5011  0.7881
 1594TIP3   OH226196   0.419   2.158  13.886  0.1328  0.5920  0.2888
 1594TIP3    H126197   0.361   2.179  13.813 -0.5134 -1.6429  0.0715
 1594TIP3    H226198   0.469   2.238  13.901 -0.6757  1.5448 -1.7078
 1595TIP3   OH226199   0.764   5.003   1.177  0.0719 -0.6724 -0.4977
 1595TIP3    H126200   0.683   4.962   1.146 -1.1969  0.0930  1.6111
 1595TIP3    H226201   0.755   5.006   1.272 -0.5266  5.3070 -0.3326
 1596TIP3   OH226202   6.230   2.387   4.547 -0.3334 -0.4155  0.7364
 1596TIP3    H126203   6.152   2.347   4.585 -0.8401 -1.6282 -1.4276
 1596TIP3    H226204   6.294   2.386   4.618 -1.9444 -0.2597  2.2830
 1597TIP3   OH226205   4.702   0.384   2.335  0.0474 -0.3133  0.6301
 1597TIP3    H126206   4.721   0.291   2.324 -0.7648 -0.5927  1.4054
 1597TIP3    H226207   4.617   0.396   2.292  0.6626  0.3257 -0.4534
 1598TIP3   OH226208   5.406   1.040  12.964  0.8850 -0.2707  0.8476
 1598TIP3    H126209   5.413   1.001  12.877  0.1321  1.1692  0.1038
 1598TIP3    H226210   5.379   1.130  12.948  0.2882 -0.0939  2.6042
 1599TIP3   OH226211   2.184   4.008   0.042  0.0356  0.5917 -0.1655
 1599TIP3    H126212   2.092   4.006   0.069 -0.9589 -2.0770 -3.0914
 1599TIP3    H226213   2.182   3.980  -0.050  3.5440  3.4459 -1.3483
 1600TIP3   OH226214   0.635   5.573  11.188  0.1017  0.3934 -0.1872
 1600TIP3    H126215   0.667   5.613  11.107 -2.0710  1.1958 -0.7285
 1600TIP3    H226216   0.595   5.491  11.160 -1.1397  0.9310 -0.0343
 1601TIP3   OH226217   3.663   4.112   1.195 -0.5624 -0.2383  0.2394
 1601TIP3    H126218   3.621   4.181   1.144  1.7568 -0.1660 -1.7545
 1601TIP3    H226219   3.671   4.039   1.134  1.2604 -0.5700  0.8251
 1602TIP3   OH226220   4.472   3.475   1.929  0.1008 -0.1231  0.1941
 1602TIP3    H126221   4.479   3.544   1.863 -1.2809  0.1306  0.2812
 1602TIP3    H226222   4.562   3.450   1.947  0.5137 -0.1934 -1.7742
 1603TIP3   OH226223   2.179   3.257   2.527  0.0156  0.0758 -0.4774
 1603TIP3    H126224   2.190   3.166   2.553 -3.5337 -0.4491 -0.3148
 1603TIP3    H226225   2.148   3.301   2.606 -0.9857  0.7522 -1.2140
 1604TIP3   OH226226   1.681   4.752   5.186 -0.0482  0.0029 -0.0544
 1604TIP3    H126227   1.599   4.769   5.232  0.4907  0.8876  0.6308
 1604TIP3    H226228   1.660   4.761   5.093 -0.3536  2.0393  0.1771
 1605TIP3   OH226229   0.723   1.354  13.164  0.3913 -0.9303  0.8665
 1605TIP3    H126230   0.637   1.397  13.157  0.8606 -0.2239 -1.1162
 1605TIP3    H226231   0.742   1.355  13.257  0.4646  3.4383  0.9812
 1606TIP3   OH226232   1.222   1.461  16.505 -0.0584 -0.4920  0.0303
 1606TIP3    H126233   1.312   1.444  16.534  0.7470  2.8554 -0.0793
 1606TIP3    H226234   1.220   1.555  16.487 -3.0328 -0.8216 -2.0895
 1607TIP3   OH226235   2.249   3.246   4.543  0.1012 -0.1004  0.5254
 1607TIP3    H126236   2.289   3.325   4.508  1.3059 -1.4983 -1.4912
 1607TIP3    H226237   2.320   3.182   4.546 -1.4816 -2.0941 -1.2427
 1608TIP3   OH226238   4.099   4.633  15.009 -0.1947 -0.3613  0.2848
 1608TIP3    H126239   4.099   4.719  15.051  0.3823  0.2108 -0.8536
 1608TIP3    H226240   4.017   4.631  14.960  0.0201 -0.2615 -0.0800
 1609TIP3   OH226241   4.966   3.281  11.712  0.5482  0.1699 -0.0512
 1609TIP3    H126242   4.953   3.373  11.691  0.2063 -0.0746 -0.9518
 1609TIP3    H226243   4.994   3.281  11.804  0.8367  1.1827 -0.1295
 1610TIP3   OH226244   2.992   0.845   0.559 -0.0712  0.1556  0.3578
 1610TIP3    H126245   2.907   0.807   0.537 -0.1869  0.3575  0.4580
 1610TIP3    H226246   2.980   0.939   0.550  0.5661  0.1224 -1.1270
 1611TIP3   OH226247   0.295   3.924  13.743 -0.0240 -0.1127  0.4572
 1611TIP3    H126248   0.238   3.970  13.804  0.4916 -0.8733  1.5364
 1611TIP3    H226249   0.320   3.844  13.789 -1.4779 -1.8896 -1.6495
 1612TIP3   OH226250   6.242   2.012   0.136  0.0265 -0.3506  0.1445
 1612TIP3    H126251   6.248   2.065   0.215  1.4438 -0.9984  0.5027
 1612TIP3    H226252   6.304   1.940   0.150  2.0298  0.6982 -2.4453
 1613TIP3   OH226253   6.416   3.887  11.553  0.0235 -0.1907 -0.2929
 1613TIP3    H126254   6.509   3.900  11.573  0.0051 -1.9150  1.1889
 1613TIP3    H226255   6.413   3.802  11.507 -0.6747  0.6113 -1.8031
 1614TIP3   OH226256   4.650   5.691   0.049 -0.2649  0.5981  0.1304
 1614TIP3    H126257   4.565   5.651   0.030  0.9541 -4.1922  3.0357
 1614TIP3    H226258   4.634   5.743   0.128 -0.3988 -1.8626  1.8723
 1615TIP3   OH226259   2.035   2.251  12.790  0.1587 -0.1012 -0.5420
 1615TIP3    H126260   2.057   2.162  12.818 -0.0907  0.5428  1.9275
 1615TIP3    H226261   2.119   2.297  12.790  0.2491 -0.2462 -1.5548
 1616TIP3   OH226262   3.903   2.501  14.508  0.1991 -0.2886  0.6557
 1616TIP3    H126263   3.902   2.440  14.434 -0.6966  0.1664  0.2854
 1616TIP3    H226264   3.965   2.462  14.570 -0.9329 -1.9914  0.7778
 1617TIP3   OH226265   3.367   1.526   0.784  0.5426 -0.2149 -0.4731
 1617TIP3    H126266   3.443   1.505   0.838 -0.3239 -0.1690  0.8127
 1617TIP3    H226267   3.323   1.597   0.831 -1.0150 -1.1378 -0.4496
 1618TIP3   OH226268   0.576   3.369   0.062  0.4699  0.1868 -0.3405
 1618TIP3    H126269   0.656   3.405   0.023  1.0065  0.7052  1.1624
 1618TIP3    H226270   0.507   3.389  -0.001  1.2756  1.1395 -0.9454
 1619TIP3   OH226271   2.148   1.423  14.368  0.3181 -0.4120  0.0752
 1619TIP3    H126272   2.229   1.415  14.418  0.4438  0.1818 -0.0204
 1619TIP3    H226273   2.079   1.427  14.434  0.2665 -1.7936  0.1397
 1620TIP3   OH226274   0.935   5.955  13.791  0.4089 -0.3286 -0.5732
 1620TIP3    H126275   0.983   5.901  13.854 -1.0833 -0.6492  0.3587
 1620TIP3    H226276   0.968   5.929  13.706  1.4906 -0.9063  0.0122
 1621TIP3   OH226277   4.702   3.168  11.707  0.2255 -0.0455 -0.3550
 1621TIP3    H126278   4.796   3.170  11.693  0.3786 -0.2323  0.6107
 1621TIP3    H226279   4.668   3.115  11.635  1.0709 -1.6955  0.4238
 1622TIP3   OH226280   3.151   1.055  12.664  0.0666 -0.4745 -0.0278
 1622TIP3    H126281   3.147   1.140  12.619 -0.0637 -0.6869 -0.4137
 1622TIP3    H226282   3.149   1.078  12.757  1.8899  0.0548 -0.0899
 1623TIP3   OH226283   5.377   3.905   5.284 -0.0083 -0.1234 -0.0699
 1623TIP3    H126284   5.444   3.848   5.323 -0.2795 -0.2116  0.2729
 1623TIP3    H226285   5.343   3.855   5.210  0.1355 -0.1795 -0.0989
 1624TIP3   OH226286   6.497   1.285   0.564  0.3010  0.2759  0.5691
 1624TIP3    H126287   6.585   1.254   0.544  0.2794 -0.4161  1.4668
 1624TIP3    H226288   6.498   1.378   0.541  0.6113 -0.1738 -1.4259
 1625TIP3   OH226289   3.034   6.307  16.391  0.2924  0.5048  0.2295
 1625TIP3    H126290   3.023   6.308  16.296 -0.8778  0.9415  0.3598
 1625TIP3    H226291   2.945   6.308  16.426  0.6979 -0.3786  1.3344
 1626TIP3   OH226292   2.193   6.717   0.764 -0.3837 -0.3632 -0.1337
 1626TIP3    H126293   2.167   6.641   0.712  0.0170 -0.3431 -0.3699
 1626TIP3    H226294   2.242   6.772   0.703 -0.9557  0.2516 -0.0617
 1627TIP3   OH226295   1.366   2.805   5.106 -0.2010 -0.2156 -0.5885
 1627TIP3    H126296   1.290   2.748   5.117 -0.3600 -0.6099 -3.0928
 1627TIP3    H226297   1.330   2.891   5.087 -0.0733 -0.3537 -1.5507
 1628TIP3   OH226298   4.576   1.702   6.089  0.2970 -0.5762 -0.2635
 1628TIP3    H126299   4.658   1.746   6.065 -0.8392  1.1890 -1.1808
 1628TIP3    H226300   4.527   1.769   6.137 -0.5697 -1.6364  0.3604
 1629TIP3   OH226301   4.454   5.012  11.838 -0.0239  0.4601 -0.3114
 1629TIP3    H126302   4.442   5.031  11.931 -0.0310  0.4068 -0.3023
 1629TIP3    H226303   4.538   4.965  11.834  0.4426  1.2877 -0.4353
 1630TIP3   OH226304   1.864   6.011  14.490 -0.5432 -0.2307  0.3969
 1630TIP3    H126305   1.819   6.077  14.543 -1.9245 -0.1197 -0.8550
 1630TIP3    H226306   1.955   6.039  14.488 -0.7988  0.7150  1.2604
 1631TIP3   OH226307   2.159   5.179  11.688 -0.4360 -0.5678 -0.3791
 1631TIP3    H126308   2.210   5.162  11.767 -0.0786 -0.8661 -0.6697
 1631TIP3    H226309   2.128   5.092  11.661 -1.3980 -0.3437 -0.0043
 1632TIP3   OH226310   4.749   2.315  17.313 -0.0954 -0.4348  0.3238
 1632TIP3    H126311   4.840   2.288  17.304  0.0066  0.0061 -0.0239
 1632TIP3    H226312   4.745   2.361  17.397  0.1928  0.2580 -0.0295
 1633TIP3   OH226313   4.434   4.262   2.443  0.1671  0.4455  0.1017
 1633TIP3    H126314   4.349   4.219   2.452  0.9369 -1.0926  0.4070
 1633TIP3    H226315   4.495   4.203   2.487  1.9654 -0.3639 -3.2153
 1634TIP3   OH226316   5.958   5.307   5.426 -0.0566  0.2870 -0.6122
 1634TIP3    H126317   5.868   5.339   5.412 -0.6686 -0.5351  1.1277
 1634TIP3    H226318   5.947   5.219   5.460  1.3439  0.7022  1.0630
 1635TIP3   OH226319   2.874   3.780  16.716  0.4564  0.2167  0.1210
 1635TIP3    H126320   2.841   3.795  16.805  0.7759  0.2129  0.2423
 1635TIP3    H226321   2.947   3.841  16.707 -0.0276  0.7236 -0.3958
 1636TIP3   OH226322   3.840   0.625  13.014  0.1811  0.5689 -0.3819
 1636TIP3    H126323   3.914   0.585  13.059 -1.5675 -0.5241  1.7579
 1636TIP3    H226324   3.799   0.553  12.965 -1.5964  0.1664  1.5502
 1637TIP3   OH226325   1.948   3.107   3.778  0.1364 -0.7437  0.4894
 1637TIP3    H126326   1.896   3.142   3.706  1.2592  1.6389  0.7474
 1637TIP3    H226327   1.886   3.055   3.829 -2.0705  1.9800  0.8253
 1638TIP3   OH226328   2.040   5.571   4.153  0.0357  0.5914 -0.4013
 1638TIP3    H126329   1.985   5.569   4.074  0.0533 -1.4128 -0.4121
 1638TIP3    H226330   1.978   5.579   4.225 -0.1430  0.3978 -0.5298
 1639TIP3   OH226331   3.625   1.106  14.824 -0.3047 -0.5675 -0.2107
 1639TIP3    H126332   3.681   1.127  14.899  0.5446  0.1899 -1.0351
 1639TIP3    H226333   3.584   1.023  14.847 -0.4162 -0.1280  1.2943
 1640TIP3   OH226334   2.634   0.930   5.515  0.1759 -0.1021  0.1099
 1640TIP3    H126335   2.624   0.839   5.486 -0.1340 -0.9912  2.7111
 1640TIP3    H226336   2.657   0.923   5.608  1.4410  2.4807  0.0774
 1641TIP3   OH226337   4.185   5.813   2.407 -0.3568  0.1310 -0.1021
 1641TIP3    H126338   4.219   5.821   2.318 -0.9538  0.2848 -0.3259
 1641TIP3    H226339   4.260   5.829   2.464 -0.0629  0.4590 -0.5797
 1642TIP3   OH226340   6.342   5.594  16.981 -0.6891  0.0980  0.4295
 1642TIP3    H126341   6.367   5.569  16.892 -1.4802 -0.8783  0.4588
 1642TIP3    H226342   6.248   5.614  16.974 -0.3335  2.0910  0.6366
 1643TIP3   OH226343   5.168   3.673   3.247  0.7063  0.4658 -0.0109
 1643TIP3    H126344   5.150   3.765   3.266  0.1534  0.8430 -2.1147
 1643TIP3    H226345   5.097   3.646   3.188  2.3666 -0.4837 -1.6980
 1644TIP3   OH226346   1.652   4.285  12.325 -0.3249  0.1663 -0.5599
 1644TIP3    H126347   1.598   4.349  12.279  0.3688  0.4859 -0.9344
 1644TIP3    H226348   1.701   4.240  12.257 -0.9926 -0.9578 -0.3211
 1645TIP3   OH226349   4.544   1.302  12.105  0.6387  0.0700 -0.3653
 1645TIP3    H126350   4.559   1.324  12.197  0.1709  0.6633 -0.4230
 1645TIP3    H226351   4.464   1.251  12.105 -0.4060  1.6275 -0.6064
 1646TIP3   OH226352   4.381   0.800  13.884 -0.6871  0.6309  0.4503
 1646TIP3    H126353   4.452   0.788  13.946 -0.4505  1.1856  0.2943
 1646TIP3    H226354   4.384   0.893  13.861 -0.1394  0.2522 -1.1380
 1647TIP3   OH226355   5.544   1.610  12.463  0.5935 -0.1609 -0.1621
 1647TIP3    H126356   5.448   1.614  12.457  0.6283  0.0295 -0.6618
 1647TIP3    H226357   5.564   1.641  12.551  0.3165  2.2434 -0.8717
 1648TIP3   OH226358   0.365   4.273  12.001 -0.1299 -0.5094  0.5605
 1648TIP3    H126359   0.379   4.210  11.930 -1.2331 -0.7832  0.5667
 1648TIP3    H226360   0.284   4.318  11.977  0.8500  1.2336  0.3409
 1649TIP3   OH226361   1.394   6.031  13.641 -0.0540 -0.3365 -0.2422
 1649TIP3    H126362   1.380   6.044  13.547 -1.8115 -1.7239 -0.2289
 1649TIP3    H226363   1.463   5.964  13.646  0.5203  0.2276 -0.5161
 1650TIP3   OH226364   5.586   2.309  12.666  0.5068 -0.0317 -0.0046
 1650TIP3    H126365   5.539   2.376  12.617  0.8385 -0.0037 -0.2945
 1650TIP3    H226366   5.564   2.326  12.758  1.1208  0.8997 -0.0129
 1651TIP3   OH226367   2.213   2.208  13.094 -0.4535 -0.4361  0.1288
 1651TIP3    H126368   2.177   2.120  13.099 -2.4216  0.1320 -2.1845
 1651TIP3    H226369   2.157   2.259  13.154 -0.9411 -0.3202 -0.4132
 1652TIP3   OH226370   0.986   2.440  13.257 -0.0656  0.2746 -0.2369
 1652TIP3    H126371   0.971   2.422  13.164 -3.6403 -0.5918  0.3928
 1652TIP3    H226372   0.984   2.354  13.298 -1.1489  0.8396  0.9310
 1653TIP3   OH226373   1.915   2.957  16.455 -0.0819 -0.0073 -0.1155
 1653TIP3    H126374   1.908   2.864  16.434 -1.4574  0.0388  0.0423
 1653TIP3    H226375   1.825   2.990  16.450  0.0782  0.8817  1.7476
 1654TIP3   OH226376   1.991   3.162  12.742 -0.3030 -0.1722 -0.2681
 1654TIP3    H126377   2.082   3.191  12.753 -0.3538 -0.3908  0.9321
 1654TIP3    H226378   1.998   3.078  12.697  0.1438 -0.4969  0.3840
 1655TIP3   OH226379   3.063   4.864  14.630 -0.3628  0.2886 -0.5034
 1655TIP3    H126380   3.003   4.933  14.599 -0.7498 -0.2440 -0.9717
 1655TIP3    H226381   3.087   4.816  14.550 -0.8254 -0.6845 -0.0751
 1656TIP3   OH226382   1.477   0.502  15.010 -0.2697  0.1631  0.0407
 1656TIP3    H126383   1.442   0.580  15.052 -0.5299  1.1055 -1.7975
 1656TIP3    H226384   1.521   0.536  14.932  0.8260 -1.4166 -0.0671
 1657TIP3   OH226385   4.395   6.095  11.060  0.2284 -0.0486 -0.4377
 1657TIP3    H126386   4.324   6.072  11.000 -1.2826 -0.4684  1.4344
 1657TIP3    H226387   4.468   6.038  11.034 -0.1614  0.1883 -2.2075
 1658TIP3   OH226388   0.312   3.877  15.138 -0.2177 -0.0692  0.2583
 1658TIP3    H126389   0.344   3.946  15.196 -1.2780  0.9791 -0.3537
 1658TIP3    H226390   0.384   3.813  15.134 -0.2639 -0.4254  3.0477
 1659TIP3   OH226391   6.486   1.150   5.520 -0.7164  0.0437 -0.5778
 1659TIP3    H126392   6.430   1.186   5.589 -2.8328 -0.7590 -1.7687
 1659TIP3    H226393   6.555   1.103   5.567 -0.0002  2.4489  0.9618
 1660TIP3   OH226394   2.375   2.947   4.872  0.2611 -0.1354  0.2526
 1660TIP3    H126395   2.438   2.892   4.917  1.8575  1.4247  0.0395
 1660TIP3    H226396   2.421   3.029   4.857 -1.6288  0.8609 -0.4828
 1661TIP3   OH226397   5.211   0.849   2.254  0.3352 -0.0560 -0.3802
 1661TIP3    H126398   5.223   0.890   2.168  0.6098  1.7786  0.4949
 1661TIP3    H226399   5.225   0.920   2.317 -0.5780 -1.1889  1.1685
 1662TIP3   OH226400   2.471   2.218  17.393  0.1247  0.0169  0.5888
 1662TIP3    H126401   2.435   2.156  17.329  1.8101 -0.0986 -0.3044
 1662TIP3    H226402   2.394   2.254  17.438 -0.9993 -1.1875 -0.3013
 1663TIP3   OH226403   5.112   0.405   2.941 -0.3875  0.3374 -0.2502
 1663TIP3    H126404   5.163   0.329   2.970  0.3257  0.6798 -0.5981
 1663TIP3    H226405   5.105   0.394   2.846 -1.2913  0.1017 -0.1727
 1664TIP3   OH226406   5.807   6.056   2.467 -0.0419  0.6678 -0.7334
 1664TIP3    H126407   5.805   6.077   2.560 -0.0316  0.5193 -0.6995
 1664TIP3    H226408   5.715   6.041   2.444  0.0942 -0.9054 -0.3757
 1665TIP3   OH226409   4.296   6.078   2.839 -0.5437 -0.3965  0.5561
 1665TIP3    H126410   4.236   6.133   2.890 -0.4230  1.4065 -1.1166
 1665TIP3    H226411   4.381   6.092   2.880 -0.5571  0.5227  0.3065
 1666TIP3   OH226412   6.099   5.869   3.041  0.6052 -0.0801 -0.0841
 1666TIP3    H126413   6.147   5.949   3.020 -1.4234  1.4524  0.7679
 1666TIP3    H226414   6.156   5.798   3.010  1.4969  1.7198 -2.9645
 1667TIP3   OH226415   1.650   2.872  15.157  0.5769  0.2051 -0.3194
 1667TIP3    H126416   1.613   2.790  15.189  0.5885  0.3059 -0.0481
 1667TIP3    H226417   1.712   2.899  15.225 -1.2311  1.7289  0.8136
 1668TIP3   OH226418   2.741   0.462  14.973  0.2022 -0.0351  0.4335
 1668TIP3    H126419   2.680   0.494  14.906  0.6908  1.7555  0.7891
 1668TIP3    H226420   2.741   0.367  14.962 -1.0260  0.0901 -0.9726
 1669TIP3   OH226421   4.955   0.284  12.942  0.1636 -0.0403 -0.4551
 1669TIP3    H126422   4.984   0.257  13.029 -0.4382 -0.7997 -0.4768
 1669TIP3    H226423   5.036   0.302  12.894  0.4915  2.9076  0.9968
 1670TIP3   OH226424   2.663   4.409   3.692 -0.1357  0.7268  0.1575
 1670TIP3    H126425   2.739   4.357   3.720 -1.7636 -1.2481  1.1617
 1670TIP3    H226426   2.637   4.458   3.770  1.2780  3.0928 -0.7319
 1671TIP3   OH226427   6.419   2.009  15.323  0.0890  0.6371  0.5135
 1671TIP3    H126428   6.457   2.002  15.411  0.2802 -0.2576  0.3728
 1671TIP3    H226429   6.376   2.094  15.322  0.0070  0.6209  1.5085
 1672TIP3   OH226430   1.275   0.360  14.848 -0.4167 -0.1350 -0.2973
 1672TIP3    H126431   1.329   0.282  14.837 -1.1017 -0.7257  0.3726
 1672TIP3    H226432   1.318   0.410  14.918 -1.5510 -1.3892  1.3724
 1673TIP3   OH226433   0.168   4.046  13.980  0.2113 -0.0180 -0.3050
 1673TIP3    H126434   0.172   4.136  14.010  2.5616  0.3636 -1.5634
 1673TIP3    H226435   0.076   4.022  13.990 -0.4613  2.4609  0.1563
 1674TIP3   OH226436   2.607   5.037  14.665 -0.9153  0.1371 -0.0876
 1674TIP3    H126437   2.554   5.108  14.629 -0.6804  0.0119 -0.6962
 1674TIP3    H226438   2.645   4.995  14.588  1.5482  1.3564  0.3737
 1675TIP3   OH226439   4.867   4.675  10.667 -1.0096 -0.2342  0.1183
 1675TIP3    H126440   4.809   4.616  10.716  0.0666 -1.8448 -0.4318
 1675TIP3    H226441   4.859   4.646  10.576  1.0171 -0.9162  0.0912
 1676TIP3   OH226442   6.242   6.745   5.734 -0.4536 -0.0482  0.1775
 1676TIP3    H126443   6.256   6.660   5.692 -0.3410 -0.3336  0.7878
 1676TIP3    H226444   6.210   6.724   5.821  0.0728  0.5257  0.5176
 1677TIP3   OH226445   2.096   6.400  15.617  0.1938  0.4739 -0.4142
 1677TIP3    H126446   2.191   6.397  15.604  0.1626 -0.7222 -0.4487
 1677TIP3    H226447   2.077   6.323  15.670 -1.5053 -3.2027 -5.6378
 1678TIP3   OH226448   1.252   0.188   3.309  0.2734  0.1989  0.5621
 1678TIP3    H126449   1.254   0.280   3.281 -2.3288 -0.0045 -0.5682
 1678TIP3    H226450   1.269   0.191   3.403  0.6475  1.8001  0.4646
 1679TIP3   OH226451   6.257   5.969   3.434 -0.2031 -0.3992 -0.2738
 1679TIP3    H126452   6.256   5.948   3.527  0.4982 -2.4538 -0.6684
 1679TIP3    H226453   6.195   6.041   3.424 -1.0586 -0.8232  1.6312
 1680TIP3   OH226454   4.170   0.123   0.522 -0.5408 -0.5343 -0.2098
 1680TIP3    H126455   4.190   0.180   0.447  2.0369 -0.5711  0.3704
 1680TIP3    H226456   4.190   0.177   0.598 -1.9345 -0.9257  0.4593
 1681TIP3   OH226457   1.633   5.513  15.741 -0.0989  0.3550  0.2629
 1681TIP3    H126458   1.540   5.526  15.761 -0.5345 -0.4209 -1.1578
 1681TIP3    H226459   1.654   5.427  15.777  0.0266  0.4518  0.4229
 1682TIP3   OH226460   1.283   4.777  11.003  0.3644 -0.5171  0.2189
 1682TIP3    H126461   1.315   4.736  10.922 -2.4543 -0.5219 -1.0126
 1682TIP3    H226462   1.246   4.860  10.974 -1.5986 -0.9627  1.3062
 1683TIP3   OH226463   4.818   5.441  13.500 -0.0892 -0.0736  0.5006
 1683TIP3    H126464   4.884   5.427  13.568 -0.8021 -0.3293  1.1511
 1683TIP3    H226465   4.747   5.488  13.544 -1.0919 -1.3031  0.2629
 1684TIP3   OH226466   1.532   6.337  16.552  0.0947 -0.0269 -0.3483
 1684TIP3    H126467   1.573   6.282  16.485 -1.2654 -0.9280 -0.4679
 1684TIP3    H226468   1.444   6.354  16.519 -0.6821 -0.6887  1.3077
 1685TIP3   OH226469   4.982   3.730   2.541  0.3281  0.1441  0.5734
 1685TIP3    H126470   4.944   3.646   2.568 -2.3603  0.6018 -1.2968
 1685TIP3    H226471   5.010   3.716   2.451  0.1868  1.1199  0.3625
 1686TIP3   OH226472   1.278   2.712  16.029  0.3155  0.3836  0.1364
 1686TIP3    H126473   1.300   2.793  15.983 -0.0221 -1.0491 -2.8214
 1686TIP3    H226474   1.363   2.672  16.049  0.5011  0.3814 -0.5964
 1687TIP3   OH226475   1.176   2.057   0.976  0.7519 -0.2509 -0.1557
 1687TIP3    H126476   1.094   2.074   0.929  0.6028  1.3266  0.6090
 1687TIP3    H226477   1.166   2.105   1.059  2.7363  0.6106 -0.3635
 1688TIP3   OH226478   0.089   6.682   1.764 -0.7536  0.3222 -0.3213
 1688TIP3    H126479   0.018   6.740   1.792 -1.2184  0.2595 -1.3233
 1688TIP3    H226480   0.162   6.741   1.743 -0.4488  0.3772  0.8411
 1689TIP3   OH226481   3.219   4.712  15.034  0.5601 -0.4088  0.3091
 1689TIP3    H126482   3.155   4.647  15.008 -0.3861  0.4125  0.5389
 1689TIP3    H226483   3.179   4.796  15.011  1.4577  0.1288  0.6546
 1690TIP3   OH226484   5.892   4.371   1.630  0.2087  0.1007 -0.1544
 1690TIP3    H126485   5.963   4.322   1.670  0.4035 -0.3302 -0.9988
 1690TIP3    H226486   5.896   4.457   1.671  0.9555 -0.0493  0.1019
 1691TIP3   OH226487   5.558   6.170   6.148 -0.6148  0.0332  0.1461
 1691TIP3    H126488   5.578   6.261   6.168 -1.7178 -0.1445  2.2572
 1691TIP3    H226489   5.601   6.120   6.217 -0.9183 -0.9916 -0.3856
 1692TIP3   OH226490   1.836   4.773  12.312  0.2474  0.2730 -1.0386
 1692TIP3    H126491   1.776   4.712  12.354  0.8536 -1.3249 -2.3855
 1692TIP3    H226492   1.892   4.804  12.383 -1.4921  1.0606  0.0704
 1693TIP3   OH226493   2.784   1.589  16.277  0.2610  0.0614 -0.3678
 1693TIP3    H126494   2.773   1.639  16.358 -0.0483  0.0977 -0.4332
 1693TIP3    H226495   2.699   1.591  16.235  1.1032  2.5564 -2.1797
 1694TIP3   OH226496   5.737   5.513  14.875 -0.2384 -0.1556  0.1872
 1694TIP3    H126497   5.768   5.521  14.965 -0.7981  0.1613  0.3546
 1694TIP3    H226498   5.770   5.428  14.846  2.7262  1.0416 -0.4164
 1695TIP3   OH226499   0.243   2.115   5.596  0.7711 -0.3935  0.0245
 1695TIP3    H126500   0.238   2.159   5.511  1.4810  0.4314  0.3972
 1695TIP3    H226501   0.330   2.138   5.630  0.6018 -0.9406  0.8498
 1696TIP3   OH226502   2.942   1.802   3.620 -0.5328  1.0042 -0.5477
 1696TIP3    H126503   2.874   1.840   3.565 -0.2214 -1.4390 -2.8149
 1696TIP3    H226504   2.910   1.713   3.639  0.8621  0.6936  0.5344
 1697TIP3   OH226505   6.709   1.383   5.764 -0.6700  0.3883 -0.1593
 1697TIP3    H126506   6.690   1.475   5.779  1.2255  1.5239 -3.6373
 1697TIP3    H226507   6.625   1.346   5.736 -0.8862  1.8354 -1.5711
 1698TIP3   OH226508   1.327   2.806  11.933 -0.1094 -0.1769  0.5043
 1698TIP3    H126509   1.238   2.788  11.966 -0.0809 -1.7802 -0.2049
 1698TIP3    H226510   1.380   2.735  11.968  1.2919  1.6409  2.2702
 1699TIP3   OH226511   3.960   4.458   0.774 -0.2903  0.4388 -0.5893
 1699TIP3    H126512   4.012   4.521   0.725  0.6931 -0.3575 -0.5953
 1699TIP3    H226513   3.870   4.489   0.764  0.1675  1.8640 -0.5410
 1700TIP3   OH226514   0.621   4.288   6.632  0.0864 -0.1601 -0.5473
 1700TIP3    H126515   0.608   4.237   6.713  0.7564  0.8739  0.2396
 1700TIP3    H226516   0.714   4.307   6.631  0.0178  0.1467 -1.3926
 1701TIP3   OH226517   5.876   3.736   4.368 -0.0339  0.5859 -0.5893
 1701TIP3    H126518   5.901   3.661   4.314 -0.6844  0.6344 -0.9735
 1701TIP3    H226519   5.781   3.742   4.358 -0.5370 -0.7501  2.2986
 1702TIP3   OH226520   6.597   6.552  17.174  0.6102 -0.3188  0.2424
 1702TIP3    H126521   6.563   6.568  17.262 -0.1380  1.3174 -0.3072
 1702TIP3    H226522   6.562   6.623  17.121 -0.9517 -2.5405 -1.9612
 1703TIP3   OH226523   0.298   4.736  14.830 -0.3935 -0.0101  0.5428
 1703TIP3    H126524   0.337   4.658  14.871 -0.2359  0.3330  1.0566
 1703TIP3    H226525   0.302   4.718  14.736  0.1705 -0.3770  0.6298
 1704TIP3   OH226526   2.765   1.137  12.544 -0.7107 -0.3710  0.7062
 1704TIP3    H126527   2.733   1.165  12.630 -0.8139  0.2258  0.4746
 1704TIP3    H226528   2.691   1.090  12.506 -1.1632  0.6002  0.3636
 1705TIP3   OH226529   2.847   3.328  17.394  0.3957 -0.1831 -0.2327
 1705TIP3    H126530   2.833   3.341  17.488 -0.6491  0.1727 -0.4213
 1705TIP3    H226531   2.939   3.349  17.381  0.5778 -0.3096  0.7230
 1706TIP3   OH226532   3.393   5.978  17.127 -0.1208  0.2495  0.0208
 1706TIP3    H126533   3.464   5.918  17.104  0.2587  0.7861 -0.2198
 1706TIP3    H226534   3.427   6.028  17.202  0.5554  1.8877 -1.3232
 1707TIP3   OH226535   2.757   1.568   3.655  0.3905  0.5912  0.6791
 1707TIP3    H126536   2.675   1.568   3.606 -0.0870 -0.1555  1.4605
 1707TIP3    H226537   2.806   1.493   3.621 -0.0451 -0.0728  1.5078
 1708TIP3   OH226538   5.623   0.469   3.980  0.1518 -0.8794  0.1992
 1708TIP3    H126539   5.598   0.418   3.903  1.3005 -2.2754  0.6927
 1708TIP3    H226540   5.683   0.411   4.028 -0.0153  0.2073  1.7968
 1709TIP3   OH226541   2.707   2.423   5.297  0.2739  0.4255 -0.3028
 1709TIP3    H126542   2.623   2.460   5.324  0.5843  0.3196  0.8288
 1709TIP3    H226543   2.688   2.333   5.273  0.4454 -0.3745  2.3224
 1710TIP3   OH226544   3.095   3.365  12.592 -0.2007  0.2684  0.3258
 1710TIP3    H126545   3.144   3.373  12.510 -2.1962  1.4055 -0.8483
 1710TIP3    H226546   3.141   3.421  12.653 -0.9593  2.8543 -1.2882
 1711TIP3   OH226547   6.073   6.110   3.921 -0.1139 -0.4256  0.0637
 1711TIP3    H126548   6.150   6.054   3.917  0.5771  0.5067 -0.0605
 1711TIP3    H226549   6.103   6.195   3.890 -1.1149  0.0462  0.3297
 1712TIP3   OH226550   2.004   0.816  14.770 -0.3261 -0.5802 -0.7677
 1712TIP3    H126551   2.004   0.907  14.741 -0.2509 -0.7795 -1.4123
 1712TIP3    H226552   2.096   0.791  14.770 -0.3458 -0.6559 -0.5812
 1713TIP3   OH226553   4.255   2.044  13.286 -0.1063  0.5906  0.1534
 1713TIP3    H126554   4.316   2.030  13.359  0.2609 -1.0786 -0.4190
 1713TIP3    H226555   4.188   2.101  13.322 -0.3634 -0.8250  2.0900
 1714TIP3   OH226556   1.079   2.424  17.246 -0.4834 -0.5901  0.2741
 1714TIP3    H126557   1.109   2.345  17.202  0.0552  1.0032 -2.5069
 1714TIP3    H226558   0.986   2.430  17.223 -1.1354 -1.5890  2.4802
 1715TIP3   OH226559   2.309   6.453   1.140 -0.5047 -0.1282 -0.1159
 1715TIP3    H126560   2.238   6.508   1.174 -0.4532 -0.2896  0.2541
 1715TIP3    H226561   2.270   6.408   1.065 -0.1462  1.4625 -1.3124
 1716TIP3   OH226562   4.005   1.190   0.402  0.1692 -0.6501 -0.7626
 1716TIP3    H126563   3.916   1.193   0.437 -0.8243  1.7241 -3.1832
 1716TIP3    H226564   4.059   1.231   0.470 -1.0704  0.4651 -0.4160
 1717TIP3   OH226565   6.626   2.176   6.284 -0.1433  0.1200 -0.0740
 1717TIP3    H126566   6.581   2.203   6.364  0.6361 -1.0818  0.8057
 1717TIP3    H226567   6.713   2.215   6.289  0.2273 -0.7090  0.1327
 1718TIP3   OH226568   6.622   4.333   1.489 -0.3433  0.9729 -0.6571
 1718TIP3    H126569   6.584   4.368   1.408  1.0358  0.5731 -1.5062
 1718TIP3    H226570   6.549   4.290   1.533 -0.5262 -1.6715 -3.2490
 1719TIP3   OH226571   3.544   0.752  17.266 -0.1270 -0.3950 -0.2389
 1719TIP3    H126572   3.512   0.661  17.261  0.1626 -0.4576 -1.1542
 1719TIP3    H226573   3.617   0.755  17.204  0.3320  0.2828  0.3180
 1720TIP3   OH226574   0.092   0.520  13.330 -0.3433  0.1288  0.3357
 1720TIP3    H126575   0.010   0.484  13.297 -0.5215  0.6850  0.1607
 1720TIP3    H226576   0.126   0.452  13.389  0.2139 -1.0972 -1.3112
 1721TIP3   OH226577   4.712   2.396   1.215 -0.3599 -0.0368 -0.4732
 1721TIP3    H126578   4.757   2.475   1.188  0.0514 -0.3983 -0.8628
 1721TIP3    H226579   4.780   2.342   1.256 -1.1211  0.8854  2.2501
 1722TIP3   OH226580   3.977   3.544  13.099 -0.7706  0.6265  0.6120
 1722TIP3    H126581   4.044   3.612  13.088  0.6255 -0.9540 -1.3464
 1722TIP3    H226582   3.895   3.587  13.074 -0.2133  2.0363  1.0842
 1723TIP3   OH226583   3.139   3.520  17.250  0.1135  0.0313  0.2465
 1723TIP3    H126584   3.075   3.505  17.181 -0.8076  1.1408  0.8327
 1723TIP3    H226585   3.146   3.436  17.296 -1.8764  0.2126  0.9525
 1724TIP3   OH226586   2.446   2.031   1.459  0.0995  0.3462 -0.0673
 1724TIP3    H126587   2.380   2.043   1.391 -2.0846  0.5460  1.9770
 1724TIP3    H226588   2.473   2.121   1.481  0.2964  0.3106 -0.1550
 1725TIP3   OH226589   2.020   3.754   2.356  0.6319 -0.1014 -0.0138
 1725TIP3    H126590   1.951   3.727   2.416  0.8458  1.3864  0.9442
 1725TIP3    H226591   2.090   3.690   2.369  0.8595  0.4522  1.6822
 1726TIP3   OH226592   4.075   6.209   4.635  0.1212 -0.1757  0.2532
 1726TIP3    H126593   4.025   6.287   4.612  1.3358  0.2217 -1.2287
 1726TIP3    H226594   4.060   6.148   4.563  1.2638 -0.2638  0.0579
 1727TIP3   OH226595   0.984   3.339  17.038  0.7841  0.2047  0.0846
 1727TIP3    H126596   1.076   3.333  17.065  0.2240  0.3136  2.1355
 1727TIP3    H226597   0.988   3.364  16.945  2.8048  0.9490  0.3284
 1728TIP3   OH226598   1.767   2.594   2.974  0.0812  0.0283 -0.6186
 1728TIP3    H126599   1.782   2.666   2.913  1.0236  1.2973  1.0430
 1728TIP3    H226600   1.675   2.603   3.000  0.3110  0.9191 -0.0924
 1729TIP3   OH226601   6.511   1.179  11.618  0.5035 -0.2680 -0.4125
 1729TIP3    H126602   6.493   1.163  11.525  0.7480  1.6127 -0.8146
 1729TIP3    H226603   6.443   1.240  11.645  2.2551  1.6926 -0.2066
 1730TIP3   OH226604   2.954   4.080   2.929 -0.1415  0.7044 -0.3575
 1730TIP3    H126605   2.966   4.029   3.008  0.6899  0.0115 -0.9238
 1730TIP3    H226606   2.859   4.090   2.922 -0.3390 -0.9373 -0.3411
 1731TIP3   OH226607   5.963   5.404  13.918  0.2426  0.2923  0.1897
 1731TIP3    H126608   5.996   5.363  13.999  0.8201  1.4414  0.5607
 1731TIP3    H226609   5.976   5.498  13.932 -1.0987  0.6212 -0.6139
 1732TIP3   OH226610   0.547   0.617  13.444  0.7622  0.0089 -0.0308
 1732TIP3    H126611   0.576   0.532  13.412 -1.0081 -0.3834 -0.6927
 1732TIP3    H226612   0.513   0.662  13.367  0.7390  0.9217  0.4976
 1733TIP3   OH226613   6.483   6.716   3.307 -0.0301 -0.1490 -0.2551
 1733TIP3    H126614   6.405   6.748   3.353 -1.1540 -2.3863 -0.4876
 1733TIP3    H226615   6.527   6.659   3.370  0.0657 -0.8594 -0.9549
 1734TIP3   OH226616   0.201   6.735  16.602 -0.0467 -0.0789  0.0642
 1734TIP3    H126617   0.115   6.760  16.568  0.3140 -0.0232 -0.8579
 1734TIP3    H226618   0.232   6.668  16.540  0.7314  0.1847  0.1649
 1735TIP3   OH226619   5.370   3.419   2.828  0.9767 -0.0901  0.4487
 1735TIP3    H126620   5.412   3.360   2.766  1.9029  0.6699  0.3341
 1735TIP3    H226621   5.430   3.421   2.903  1.3085  1.2088  0.1785
 1736TIP3   OH226622   4.637   5.655  11.932  0.4673 -0.2372  0.3270
 1736TIP3    H126623   4.640   5.641  11.838  0.5164 -0.1587  0.3166
 1736TIP3    H226624   4.612   5.747  11.942  1.4073  0.0248  0.3731
 1737TIP3   OH226625   2.716   0.233  12.042  0.0914  0.0066 -0.0855
 1737TIP3    H126626   2.623   0.222  12.023  0.3501  0.2372 -1.6446
 1737TIP3    H226627   2.724   0.217  12.136 -1.4842 -0.2113  0.0325
 1738TIP3   OH226628   3.998   5.256   4.956 -0.2059  0.0957 -0.4633
 1738TIP3    H126629   4.004   5.289   4.866  0.0399 -0.9432 -0.8486
 1738TIP3    H226630   3.910   5.219   4.962  0.5916 -2.1109 -1.1400
 1739TIP3   OH226631   0.818   3.245   2.338  0.2217 -0.3148  0.2299
 1739TIP3    H126632   0.816   3.262   2.244  1.7922  1.8672  0.5048
 1739TIP3    H226633   0.730   3.265   2.368 -0.2324 -0.8085 -0.7324
 1740TIP3   OH226634   4.204   3.472   3.500 -0.6999  0.1914  0.3867
 1740TIP3    H126635   4.154   3.457   3.420 -0.0908  1.0599 -0.1749
 1740TIP3    H226636   4.148   3.529   3.553 -0.7328  0.3376  0.1960
 1741TIP3   OH226637   2.491   6.742  13.427 -0.0247  0.3663  0.1152
 1741TIP3    H126638   2.551   6.670  13.448 -1.4842 -1.0646 -0.4499
 1741TIP3    H226639   2.480   6.737  13.332 -3.2866 -1.3512  0.4537
 1742TIP3   OH226640   2.657   5.126   2.078 -0.3983  0.6952  0.6651
 1742TIP3    H126641   2.609   5.175   2.011 -0.7357 -0.1366  0.2893
 1742TIP3    H226642   2.606   5.047   2.091 -0.0543  0.6055  1.5376
 1743TIP3   OH226643   2.676   2.209  17.039 -0.4551 -0.2272 -0.0028
 1743TIP3    H126644   2.757   2.204  16.989  0.3235  1.5492  1.0042
 1743TIP3    H226645   2.625   2.278  16.996 -1.6400 -1.5391 -0.8263
 1744TIP3   OH226646   6.352   1.561  13.382 -0.4742  0.6728 -0.8074
 1744TIP3    H126647   6.349   1.501  13.307 -0.6228 -0.2937 -0.0483
 1744TIP3    H226648   6.288   1.526  13.443  1.8058 -0.3973  1.1103
 1745TIP3   OH226649   2.113   2.058  16.035 -0.5564 -0.1022  0.0836
 1745TIP3    H126650   2.136   1.967  16.057  2.5903 -0.4231 -3.4470
 1745TIP3    H226651   2.022   2.053  16.005 -0.1574 -2.3601 -0.9650
 1746TIP3   OH226652   4.970   5.583  14.610 -0.0833 -0.0957 -0.3346
 1746TIP3    H126653   4.943   5.495  14.582  1.0016 -0.9933  1.2846
 1746TIP3    H226654   5.066   5.581  14.605 -0.0059  0.6795  0.5618
 1747TIP3   OH226655   5.868   2.354  16.949  0.4391 -0.0271  0.1937
 1747TIP3    H126656   5.945   2.343  17.004  1.2466 -1.2401 -1.1222
 1747TIP3    H226657   5.903   2.374  16.862 -0.7846  0.9145 -0.1159
 1748TIP3   OH226658   0.886   1.832  12.505  0.3740  0.0109 -0.3316
 1748TIP3    H126659   0.906   1.739  12.516 -1.5908 -0.3364  0.8355
 1748TIP3    H226660   0.803   1.833  12.457 -0.4834  1.0873  1.0926
 1749TIP3   OH226661   4.458   3.964  11.739  0.1757  0.1279 -0.2802
 1749TIP3    H126662   4.502   3.887  11.701  1.2328  0.0770  0.9573
 1749TIP3    H226663   4.527   4.008  11.789 -0.7117  1.2357  0.0006
 1750TIP3   OH226664   4.668   0.986  12.861  0.0560  0.2606 -0.2693
 1750TIP3    H126665   4.592   1.044  12.853  1.1908  1.7681 -0.4795
 1750TIP3    H226666   4.721   1.005  12.784  0.4530 -1.1086 -0.3691
 1751TIP3   OH226667   6.393   3.237   5.904 -0.3463 -0.1925 -0.5345
 1751TIP3    H126668   6.431   3.316   5.943 -0.9458 -0.4325  0.5657
 1751TIP3    H226669   6.468   3.191   5.866 -0.1394  1.5326 -2.4052
 1752TIP3   OH226670   4.056   3.389   2.860  0.0499  0.1409 -0.0869
 1752TIP3    H126671   4.109   3.460   2.895 -0.3138  0.8540 -0.9484
 1752TIP3    H226672   4.106   3.309   2.881  0.8974  0.7067  0.1097
 1753TIP3   OH226673   3.259   2.885   1.974 -0.0258 -0.3166  0.5552
 1753TIP3    H126674   3.240   2.907   1.883 -0.4569  1.6657  1.0789
 1753TIP3    H226675   3.280   2.791   1.972 -0.3660 -0.3988 -1.5105
 1754TIP3   OH226676   2.292   5.968   1.066 -0.3729 -0.4625 -0.1959
 1754TIP3    H126677   2.373   5.956   1.017  0.5309  0.5250  0.9993
 1754TIP3    H226678   2.318   5.963   1.158 -1.2748  1.8980  0.2751
 1755TIP3   OH226679   4.594   3.293  16.043 -0.1398  0.1179 -0.5810
 1755TIP3    H126680   4.557   3.359  15.985  0.0517  0.1302 -0.6891
 1755TIP3    H226681   4.622   3.343  16.120 -4.4380 -0.3606  1.6048
 1756TIP3   OH226682   3.449   1.072  12.911 -0.0436 -0.6552 -0.0384
 1756TIP3    H126683   3.398   1.015  12.969 -0.6300 -0.4799 -0.3685
 1756TIP3    H226684   3.438   1.035  12.824 -0.8510  0.2312 -0.3331
 1757TIP3   OH226685   4.999   5.675   3.423  0.1220  0.3088  0.1761
 1757TIP3    H126686   4.932   5.628   3.471  2.9079 -2.4217  1.7527
 1757TIP3    H226687   4.990   5.643   3.333 -0.5666 -0.1724  0.4054
 1758TIP3   OH226688   5.169   3.970  13.010 -0.0414  0.6641 -0.0487
 1758TIP3    H126689   5.214   4.054  13.023  0.9332 -0.0982  1.8713
 1758TIP3    H226690   5.239   3.907  12.993 -0.9227  0.6924 -5.3457
 1759TIP3   OH226691   2.152   4.759   3.500 -0.1248 -0.1342  0.2534
 1759TIP3    H126692   2.063   4.749   3.532 -0.7166 -1.1401 -1.5577
 1759TIP3    H226693   2.143   4.767   3.405  1.5705  1.9801  0.1824
 1760TIP3   OH226694   0.555   5.023  13.234  0.0934 -0.1816 -0.2934
 1760TIP3    H126695   0.606   4.983  13.305 -0.3756 -1.5431 -0.6802
 1760TIP3    H226696   0.612   5.089  13.197  1.1176 -0.8494  0.0650
 1761TIP3   OH226697   3.294   3.488  10.782 -0.1236  0.1897  0.0413
 1761TIP3    H126698   3.242   3.439  10.846  0.8198  0.9819  1.4820
 1761TIP3    H226699   3.236   3.559  10.754 -1.0952 -1.0397 -1.2070
 1762TIP3   OH226700   4.149   3.260  12.622 -0.6022 -0.1405 -0.4724
 1762TIP3    H126701   4.116   3.345  12.653 -1.6645 -0.5998 -0.3266
 1762TIP3    H226702   4.201   3.282  12.544  0.0292  0.7540  0.1680
 1763TIP3   OH226703   6.605   0.207  12.970  0.0072  0.6288  0.1094
 1763TIP3    H126704   6.682   0.162  12.933 -0.2011 -1.3049  1.8561
 1763TIP3    H226705   6.554   0.137  13.010 -1.7712  2.1315  0.5621
 1764TIP3   OH226706   2.547   1.401   2.531 -0.1293  0.2859 -0.2312
 1764TIP3    H126707   2.518   1.404   2.622 -1.7575 -0.2770 -0.7059
 1764TIP3    H226708   2.560   1.493   2.507  0.0134  0.4538  0.4626
 1765TIP3   OH226709   2.762   6.634   2.345  0.1509 -0.0997 -0.4787
 1765TIP3    H126710   2.747   6.591   2.429 -0.4051 -0.0539 -0.5514
 1765TIP3    H226711   2.685   6.612   2.292 -0.8910  2.1791 -0.0253
 1766TIP3   OH226712   1.497   3.619  11.403 -0.0672  0.8223  0.1482
 1766TIP3    H126713   1.452   3.647  11.483  2.0554  1.4390  1.1854
 1766TIP3    H226714   1.493   3.695  11.346  1.6759  1.7468  1.1799
 1767TIP3   OH226715   6.186   2.676  17.285  0.2896 -0.3036 -0.0160
 1767TIP3    H126716   6.221   2.587  17.287  2.7900  0.6038  1.2184
 1767TIP3    H226717   6.251   2.728  17.333 -2.6372  1.6970  2.0885
 1768TIP3   OH226718   4.025   3.994  15.386 -0.3408  0.1264  0.2025
 1768TIP3    H126719   3.946   4.048  15.390 -1.2194 -1.1876  3.6145
 1768TIP3    H226720   3.999   3.910  15.424  2.3111 -0.9176 -0.0771
 1769TIP3   OH226721   2.087   4.686  11.245 -0.2956 -0.5111 -0.1626
 1769TIP3    H126722   2.031   4.622  11.201 -1.5191 -0.3380  1.0827
 1769TIP3    H226723   2.031   4.763  11.256 -0.4977 -0.9735  2.7725
 1770TIP3   OH226724   3.059   2.708   3.469 -0.5811 -0.1117  0.4770
 1770TIP3    H126725   3.134   2.729   3.413 -0.1681 -0.2544  0.9675
 1770TIP3    H226726   2.984   2.744   3.423 -0.5805 -2.2360 -1.3657
 1771TIP3   OH226727   5.621   1.341   0.791 -0.5055  0.0020  0.3086
 1771TIP3    H126728   5.534   1.374   0.812  0.4149  1.3338  2.2770
 1771TIP3    H226729   5.672   1.420   0.773  0.9088 -0.5683  1.7041
 1772TIP3   OH226730   1.633   5.260   2.719  0.4955 -0.1357  0.7148
 1772TIP3    H126731   1.554   5.207   2.723 -0.9562  1.9948  3.2043
 1772TIP3    H226732   1.679   5.240   2.801  1.2281  0.5751  0.4916
 1773TIP3   OH226733   3.949   4.539  16.796  0.2831  0.0291 -0.2331
 1773TIP3    H126734   3.890   4.572  16.864 -1.0057 -1.4015 -0.5962
 1773TIP3    H226735   3.939   4.603  16.724 -0.2884  0.1864 -0.0215
 1774TIP3   OH226736   6.627   2.794  11.748  0.0708 -0.2590 -0.2776
 1774TIP3    H126737   6.611   2.700  11.751 -0.5693 -0.1560 -0.3923
 1774TIP3    H226738   6.565   2.832  11.811  0.9636  0.0100  0.4688
 1775TIP3   OH226739   6.569   0.949   3.516 -0.2218  0.1890 -0.0860
 1775TIP3    H126740   6.555   0.908   3.431 -0.7398  0.0036  0.0849
 1775TIP3    H226741   6.484   0.945   3.559 -0.4183  1.8964 -0.2586
 1776TIP3   OH226742   4.192   3.338  14.816 -0.3485 -0.4984  0.5158
 1776TIP3    H126743   4.276   3.319  14.776 -0.9945 -1.9467 -0.2207
 1776TIP3    H226744   4.210   3.409  14.878  1.3665 -0.6882  0.2700
 1777TIP3   OH226745   3.209   1.755   1.431  0.2174  0.1165  0.3332
 1777TIP3    H126746   3.295   1.747   1.389  0.6040  0.2331  1.0860
 1777TIP3    H226747   3.201   1.676   1.484  0.4630  0.7503  1.3383
 1778TIP3   OH226748   1.422   6.331   3.218  0.0194 -0.1214  0.3549
 1778TIP3    H126749   1.500   6.368   3.177 -1.7210  0.7643 -2.4339
 1778TIP3    H226750   1.427   6.237   3.199  0.6597 -0.1652  0.7079
 1779TIP3   OH226751   6.649   2.777   6.316 -0.1657  0.4376  0.3315
 1779TIP3    H126752   6.742   2.795   6.328  0.7130 -3.4711  0.4944
 1779TIP3    H226753   6.618   2.847   6.258  3.1416  1.1614 -0.7280
 1780TIP3   OH226754   4.973   2.036   2.422  0.1055  0.4324  0.2510
 1780TIP3    H126755   4.922   2.111   2.452  0.4844  0.5793  0.5442
 1780TIP3    H226756   4.908   1.973   2.391 -0.2820  0.4747  0.9408
 1781TIP3   OH226757   4.812   5.745   2.405 -0.0936 -0.2785  0.1616
 1781TIP3    H126758   4.890   5.783   2.446 -1.3891  1.8567  0.7624
 1781TIP3    H226759   4.784   5.677   2.466  1.4880 -1.3903 -0.2676
 1782TIP3   OH226760   0.741   2.372   2.528  0.0068  0.0033 -0.0777
 1782TIP3    H126761   0.683   2.297   2.514  0.5492 -0.1430 -1.7034
 1782TIP3    H226762   0.780   2.356   2.614 -1.6865 -0.3265  0.6764
 1783TIP3   OH226763   3.525   1.294  13.048  0.6859  0.4377  0.1705
 1783TIP3    H126764   3.521   1.222  12.985 -0.0597  0.6602 -0.0513
 1783TIP3    H226765   3.572   1.364  13.003 -1.0209  1.1011 -0.6991
 1784TIP3   OH226766   5.524   3.896   5.861  0.1640  0.5295 -0.2414
 1784TIP3    H126767   5.554   3.936   5.779 -0.1077  0.3355 -0.4374
 1784TIP3    H226768   5.586   3.825   5.877 -1.5712 -1.5305 -1.9862
 1785TIP3   OH226769   4.240   6.117   1.312  0.4479  0.1963 -0.2196
 1785TIP3    H126770   4.277   6.054   1.250  0.6964  0.9131 -0.8114
 1785TIP3    H226771   4.252   6.202   1.270 -0.6603  0.5696  0.1869
 1786TIP3   OH226772   4.386   3.962   4.508 -0.0414 -0.4527  0.0164
 1786TIP3    H126773   4.311   4.018   4.526  0.1687  0.2103 -1.1265
 1786TIP3    H226774   4.351   3.892   4.453  0.3958  0.4985 -1.5011
 1787TIP3   OH226775   1.949   1.641  13.704  0.1042 -0.2742 -0.7581
 1787TIP3    H126776   1.920   1.550  13.705  0.1187 -0.3083  1.7882
 1787TIP3    H226777   2.042   1.637  13.683 -0.2146 -0.6741 -2.2239
 1788TIP3   OH226778   1.848   5.858   1.291 -0.3100  0.7881  0.3018
 1788TIP3    H126779   1.784   5.922   1.262 -0.6680  0.4963  0.4299
 1788TIP3    H226780   1.796   5.792   1.337  0.0584  0.4469  0.2352
 1789TIP3   OH226781   3.306   4.976   3.936  0.0897  0.5802 -0.1119
 1789TIP3    H126782   3.372   4.987   3.868  0.6150 -0.2229  0.2488
 1789TIP3    H226783   3.265   5.062   3.944  1.6873  1.3443  0.2702
 1790TIP3   OH226784   2.750   2.341   2.625 -0.5211 -0.3930  0.9473
 1790TIP3    H126785   2.734   2.434   2.641 -1.2653 -0.4431  0.5192
 1790TIP3    H226786   2.717   2.298   2.704 -0.0535 -0.2940  1.2051
 1791TIP3   OH226787   4.064   4.961  16.188  0.2251 -0.0288  0.4986
 1791TIP3    H126788   3.975   4.971  16.222 -0.4108  1.9558 -1.4819
 1791TIP3    H226789   4.110   5.040  16.216  0.8671 -0.2574  0.1229
 1792TIP3   OH226790   0.304   5.332  15.867 -0.1296 -0.3590 -0.3662
 1792TIP3    H126791   0.222   5.358  15.825  0.3257  3.4516  0.7751
 1792TIP3    H226792   0.351   5.283  15.799 -1.7704  0.6211 -2.3168
 1793TIP3   OH226793   1.964   4.037  14.178  0.1055 -0.0665  0.3143
 1793TIP3    H126794   1.968   4.079  14.092  0.1354 -0.7402 -0.0202
 1793TIP3    H226795   1.883   4.069  14.217 -0.2033 -0.2130 -0.2045
 1794TIP3   OH226796   2.404   1.180   1.306 -0.5527 -0.7928  0.5098
 1794TIP3    H126797   2.381   1.148   1.393 -1.9860 -0.1116  0.4157
 1794TIP3    H226798   2.389   1.105   1.248  2.5154 -1.9723  1.0234
 1795TIP3   OH226799   0.172   1.243   4.683  0.0994  0.0486  0.0636
 1795TIP3    H126800   0.249   1.199   4.645 -0.2736  0.2379 -0.9425
 1795TIP3    H226801   0.133   1.178   4.741  1.2643  0.1002  0.9507
 1796TIP3   OH226802   4.095   5.034   1.224 -0.1528  0.0389 -0.4152
 1796TIP3    H126803   4.127   5.049   1.135  1.8239  1.4202  0.4591
 1796TIP3    H226804   4.053   5.116   1.248 -1.9019 -0.7867 -0.4976
 1797TIP3   OH226805   6.615   4.518  12.243  0.1593 -0.0915 -0.2419
 1797TIP3    H126806   6.535   4.544  12.288 -0.7378 -1.8698 -0.7119
 1797TIP3    H226807   6.685   4.555  12.296 -0.9326  0.3049  0.9897
 1798TIP3   OH226808   6.281   5.511  15.390 -0.0631 -0.1350  0.7217
 1798TIP3    H126809   6.187   5.528  15.395 -0.4845 -2.0533  0.1214
 1798TIP3    H226810   6.290   5.420  15.417  1.8530  0.5052  2.4166
 1799TIP3   OH226811   4.008   1.683  14.133  0.0196 -0.0191  0.1865
 1799TIP3    H126812   4.023   1.716  14.222  1.0919 -1.6453  0.6571
 1799TIP3    H226813   3.949   1.609  14.146  0.7921 -0.7359 -0.3617
 1800TIP3   OH226814   3.205   2.105  15.713  0.3192 -0.3294  0.4033
 1800TIP3    H126815   3.179   2.186  15.757  0.4023  0.2395 -0.5732
 1800TIP3    H226816   3.289   2.082  15.754  0.5258  0.3313  0.3568
 1801TIP3   OH226817   5.843   2.221  13.763  0.3589  0.3929 -0.2402
 1801TIP3    H126818   5.748   2.220  13.755  0.4802 -0.5551 -1.9253
 1801TIP3    H226819   5.867   2.314  13.761 -0.5059  0.6324  0.1741
 1802TIP3   OH226820   4.848   5.491   4.197  0.2426 -0.4351 -0.1409
 1802TIP3    H126821   4.935   5.515   4.230 -0.0342  0.0457  0.2541
 1802TIP3    H226822   4.865   5.449   4.113  0.9415 -1.3602  0.4455
 1803TIP3   OH226823   0.658   2.061  12.203 -0.4408 -0.0997 -0.0608
 1803TIP3    H126824   0.730   2.114  12.239 -1.4163  0.3989  1.2390
 1803TIP3    H226825   0.609   2.122  12.147 -0.0184 -0.3721 -0.7414
 1804TIP3   OH226826   4.071   1.428   5.481 -0.0289  0.1410  0.0632
 1804TIP3    H126827   4.074   1.343   5.438 -0.1273  0.1412  0.0566
 1804TIP3    H226828   4.115   1.487   5.419 -0.1386  0.1347 -0.0210
 1805TIP3   OH226829   3.254   4.659  12.454  0.4494 -0.0753 -0.2655
 1805TIP3    H126830   3.217   4.586  12.504  1.0046 -1.0778 -1.2788
 1805TIP3    H226831   3.341   4.672  12.493 -0.0210  0.7237  0.5626
 1806TIP3   OH226832   0.627   5.741  11.697  0.0957 -0.1565  0.1031
 1806TIP3    H126833   0.581   5.811  11.742 -2.8548 -1.2346 -0.9730
 1806TIP3    H226834   0.586   5.738  11.610  2.4150 -1.1093 -1.0542
 1807TIP3   OH226835   1.440   2.981  16.143  0.2019  0.4511 -0.1448
 1807TIP3    H126836   1.455   2.940  16.229 -0.4965 -0.0934 -0.2726
 1807TIP3    H226837   1.524   3.022  16.121  0.6289 -0.0862  0.4334
 1808TIP3   OH226838   5.743   3.421  16.411  0.3741 -0.2236  0.1972
 1808TIP3    H126839   5.828   3.439  16.369  0.8447  0.4428  1.3856
 1808TIP3    H226840   5.709   3.507  16.434 -0.1258 -0.5531  0.7070
 1809TIP3   OH226841   6.393   2.327   4.107  0.4312 -0.6608 -0.8817
 1809TIP3    H126842   6.376   2.284   4.191 -1.2643  0.6859 -0.4731
 1809TIP3    H226843   6.308   2.364   4.082  1.3004  0.4534 -2.3367
 1810TIP3   OH226844   0.820   2.424   6.033  0.1013  0.0952 -0.3492
 1810TIP3    H126845   0.898   2.467   6.069 -0.5864  1.4869 -0.4424
 1810TIP3    H226846   0.783   2.376   6.107  0.6680 -0.0257 -0.1365
 1811TIP3   OH226847   1.989   0.053   4.870  0.2158  0.3061  0.0733
 1811TIP3    H126848   2.074   0.034   4.909 -0.1314 -0.2411  0.5751
 1811TIP3    H226849   1.927  -0.001   4.919 -0.4124  0.6388 -0.3390
 1812TIP3   OH226850   6.665   1.573   3.166  0.1200  0.2086 -0.3252
 1812TIP3    H126851   6.734   1.554   3.229 -0.4280  0.5779  0.3880
 1812TIP3    H226852   6.645   1.488   3.126 -0.7784 -0.3493  1.2689
 1813TIP3   OH226853   1.572   0.675  12.457 -0.1170  0.2218 -0.2730
 1813TIP3    H126854   1.477   0.659  12.455 -0.3311  1.4297 -0.3282
 1813TIP3    H226855   1.584   0.752  12.403  0.9976 -0.3056 -0.7915
 1814TIP3   OH226856   4.914   5.165   4.451 -0.3939  0.3312 -0.0989
 1814TIP3    H126857   4.852   5.142   4.382  1.1975  0.0414 -1.4795
 1814TIP3    H226858   4.996   5.183   4.406  0.7075  0.1441  1.7128
 1815TIP3   OH226859   1.061   0.500   6.388 -0.0917  1.2580 -0.3175
 1815TIP3    H126860   1.117   0.562   6.435 -2.7652  2.0870  2.0438
 1815TIP3    H226861   1.039   0.433   6.454 -3.0636  1.8401 -0.5759
 1816TIP3   OH226862   5.123   1.938  15.789 -0.1138 -0.1735 -0.2946
 1816TIP3    H126863   5.119   1.879  15.715 -1.1703 -1.8448  1.0367
 1816TIP3    H226864   5.075   2.016  15.761  1.9606  0.4943 -2.3491
 1817TIP3   OH226865   4.816   0.534   5.012  0.1588 -0.3122 -0.1530
 1817TIP3    H126866   4.826   0.450   4.966  1.5376  1.3176 -3.1622
 1817TIP3    H226867   4.858   0.520   5.097  1.8520 -2.2421 -1.1951
 1818TIP3   OH226868   3.270   1.997   1.626 -0.6214  0.4932 -0.4523
 1818TIP3    H126869   3.229   1.923   1.580  0.9006  0.5517 -2.0327
 1818TIP3    H226870   3.356   1.964   1.651  0.1475  1.7413 -1.3330
 1819TIP3   OH226871   1.380   5.122  17.208 -0.2029  0.4217 -0.0674
 1819TIP3    H126872   1.369   5.032  17.177 -0.6067 -0.4508  2.3798
 1819TIP3    H226873   1.475   5.137  17.206 -0.2274  0.5857 -2.0142
 1820TIP3   OH226874   2.161   4.633   5.969 -0.5264 -0.0786  0.4080
 1820TIP3    H126875   2.179   4.724   5.991 -1.7451  0.1332  0.6016
 1820TIP3    H226876   2.066   4.629   5.957 -0.5084 -1.3452  0.5179
 1821TIP3   OH226877   2.752   1.458   5.099 -0.2742 -0.7613 -0.5719
 1821TIP3    H126878   2.799   1.375   5.106  0.0467 -0.5725 -0.5130
 1821TIP3    H226879   2.711   1.469   5.184 -0.5561 -1.0007 -0.6723
 1822TIP3   OH226880   3.236   1.797   0.820 -0.0021 -0.4070 -0.1190
 1822TIP3    H126881   3.252   1.875   0.768  1.8224 -0.2943  0.5591
 1822TIP3    H226882   3.243   1.827   0.911 -1.9199 -0.8519  0.2352
 1823TIP3   OH226883   0.696   3.679   5.211 -0.3438  0.0064  0.0850
 1823TIP3    H126884   0.672   3.747   5.148 -1.9525  1.0567  1.7068
 1823TIP3    H226885   0.785   3.701   5.238 -0.1933  0.4093 -0.7002
 1824TIP3   OH226886   4.699   1.801  11.906 -0.0812 -0.0347  0.4823
 1824TIP3    H126887   4.657   1.729  11.953 -1.0556 -0.0491 -0.3760
 1824TIP3    H226888   4.706   1.871  11.970 -0.7356 -0.2916  0.8420
 1825TIP3   OH226889   2.875   0.232   4.269  0.4120 -0.1066  0.3598
 1825TIP3    H126890   2.944   0.296   4.253 -0.3967  0.9614  1.0015
 1825TIP3    H226891   2.801   0.283   4.301  0.3280 -1.5435  2.7022
 1826TIP3   OH226892   6.170   6.489   2.170  0.2118 -0.1953  0.1211
 1826TIP3    H126893   6.263   6.497   2.151 -0.2013  2.4275 -1.2488
 1826TIP3    H226894   6.130   6.468   2.085 -0.5663 -0.0177  0.4374
 1827TIP3   OH226895   1.787   2.622  12.439 -0.5172 -0.9414 -0.1182
 1827TIP3    H126896   1.843   2.700  12.433  0.5582 -1.6453  0.4378
 1827TIP3    H226897   1.698   2.656  12.434 -0.0711  0.3547  0.3641
 1828TIP3   OH226898   5.541   3.418  11.045 -0.4250 -0.0835  0.1823
 1828TIP3    H126899   5.578   3.480  10.982 -0.6462  1.0442  1.1465
 1828TIP3    H226900   5.453   3.451  11.063 -0.2630 -0.2441  1.3009
 1829TIP3   OH226901   4.042   3.201  16.362  0.0685  0.7730 -0.2483
 1829TIP3    H126902   4.018   3.294  16.361  1.3631  1.1319 -0.9724
 1829TIP3    H226903   4.118   3.196  16.303  0.7337 -0.5428  0.6762
 1830TIP3   OH226904   4.399   0.634  12.701  0.0444  0.1733 -0.4217
 1830TIP3    H126905   4.442   0.663  12.621 -0.6859  0.1348 -0.8368
 1830TIP3    H226906   4.414   0.539  12.703 -0.0545  0.1549 -0.5793
 1831TIP3   OH226907   2.384   0.526  16.603  0.0494  0.5133 -0.5442
 1831TIP3    H126908   2.325   0.504  16.531  0.7700  0.6803 -1.2001
 1831TIP3    H226909   2.355   0.613  16.632 -0.3108  0.3992 -0.5562
 1832TIP3   OH226910   0.582   2.344  15.899  0.0672 -0.1078  0.0484
 1832TIP3    H126911   0.553   2.433  15.920  0.5985 -0.3486  1.9687
 1832TIP3    H226912   0.674   2.342  15.923  0.0149 -1.2191  0.2233
 1833TIP3   OH226913   3.554   5.425  12.550 -0.3494  0.1010  0.2056
 1833TIP3    H126914   3.546   5.331  12.568  1.1092 -0.0674  0.0957
 1833TIP3    H226915   3.467   5.461  12.571 -1.1799 -1.3851 -0.5343
 1834TIP3   OH226916   0.681   6.147   6.429 -0.3098 -0.2217  0.2348
 1834TIP3    H126917   0.776   6.137   6.420 -0.6165 -1.9738 -2.2870
 1834TIP3    H226918   0.665   6.146   6.523  1.9910 -2.0339  0.6991
 1835TIP3   OH226919   1.059   4.241   1.842 -0.3018 -1.0957 -0.3427
 1835TIP3    H126920   1.136   4.216   1.790 -0.4190 -0.6766 -0.7175
 1835TIP3    H226921   1.096   4.278   1.922 -0.1086 -0.8002 -0.5644
 1836TIP3   OH226922   5.374   1.381  10.731  0.5819  0.1413 -0.1277
 1836TIP3    H126923   5.411   1.302  10.771  0.4131 -1.0880 -2.2652
 1836TIP3    H226924   5.419   1.389  10.647 -1.2578  0.8299 -1.0975
 1837TIP3   OH226925   6.162   4.034  15.455 -0.1584  0.2116 -0.3860
 1837TIP3    H126926   6.084   4.087  15.439 -0.4713 -0.3061 -0.5969
 1837TIP3    H226927   6.154   3.961  15.394 -0.2802 -0.6666  0.6591
 1838TIP3   OH226928   1.453   5.070   2.728  0.2393 -0.0346 -0.5331
 1838TIP3    H126929   1.464   5.011   2.654  2.8526 -1.0164  0.5059
 1838TIP3    H226930   1.464   5.014   2.805  1.6563  1.5684  0.5007
 1839TIP3   OH226931   3.586   6.280   0.058 -0.3307 -0.1531  0.5655
 1839TIP3    H126932   3.572   6.296  -0.035  1.9622 -0.8631  0.0430
 1839TIP3    H226933   3.509   6.230   0.086 -1.4975  0.8843 -0.6978
 1840TIP3   OH226934   6.677   5.773  14.370  0.2042 -0.1476  0.4562
 1840TIP3    H126935   6.733   5.696  14.379 -0.5502 -0.6679  0.8405
 1840TIP3    H226936   6.593   5.737  14.340  0.5409  0.7852 -1.8160
 1841TIP3   OH226937   6.492   4.164  12.376  0.3552  0.2725 -0.6055
 1841TIP3    H126938   6.575   4.212  12.374  0.8572 -0.5488 -0.0839
 1841TIP3    H226939   6.426   4.230  12.357  0.7587  1.7607  2.5139
 1842TIP3   OH226940   3.023   6.327  15.320  0.6040  0.0419  0.4432
 1842TIP3    H126941   3.050   6.419  15.319  1.0321 -0.0780  0.7052
 1842TIP3    H226942   3.056   6.293  15.403  0.9846 -0.5023  0.0747
 1843TIP3   OH226943   4.823   5.783  16.856 -0.0266  0.3226  0.1595
 1843TIP3    H126944   4.830   5.730  16.935 -1.7544 -1.1299 -0.6025
 1843TIP3    H226945   4.819   5.720  16.785 -0.0363  1.5548 -0.9694
 1844TIP3   OH226946   0.878   1.440   5.195 -0.2350  0.4909 -0.2779
 1844TIP3    H126947   0.865   1.481   5.280 -1.1244  0.3961 -0.3538
 1844TIP3    H226948   0.955   1.483   5.158 -0.5802  1.4075  0.0481
 1845TIP3   OH226949   0.087   3.649   4.912 -0.7691 -0.0621  0.3258
 1845TIP3    H126950   0.179   3.656   4.886 -0.4413 -2.8420  0.4529
 1845TIP3    H226951   0.090   3.616   5.002 -1.9256  0.7874  0.7063
 1846TIP3   OH226952   4.216   0.663   4.763 -0.0807  0.5082 -0.0643
 1846TIP3    H126953   4.181   0.682   4.850 -0.2200 -0.0659  0.0116
 1846TIP3    H226954   4.311   0.669   4.773 -0.0779  0.0344  0.2311
 1847TIP3   OH226955   5.320   2.132  15.301 -0.2784  0.0481  0.0550
 1847TIP3    H126956   5.380   2.206  15.289  0.3680 -0.7419 -1.9354
 1847TIP3    H226957   5.342   2.071  15.231 -1.0985 -1.8650  1.3687
 1848TIP3   OH226958   4.001   1.935   5.443 -0.0778  0.1676  0.5901
 1848TIP3    H126959   3.942   1.866   5.413  0.0925  0.5745 -0.7625
 1848TIP3    H226960   3.943   2.007   5.470 -0.3175 -0.9278  3.3279
 1849TIP3   OH226961   3.362   5.485  11.182 -0.2133 -0.3789 -0.1950
 1849TIP3    H126962   3.388   5.422  11.115 -0.9401  0.1758 -1.0284
 1849TIP3    H226963   3.267   5.473  11.191  0.0311 -1.2919  1.6440
 1850TIP3   OH226964   5.524   3.437  17.238  0.3829 -0.4034 -0.4713
 1850TIP3    H126965   5.535   3.495  17.163  0.0915  0.5498  0.1961
 1850TIP3    H226966   5.448   3.384  17.215  1.3619 -1.3736 -1.5969
 1851TIP3   OH226967   0.562   3.107   1.206 -0.1337 -0.3431 -0.6360
 1851TIP3    H126968   0.608   3.059   1.274  0.4367  0.1157 -0.6811
 1851TIP3    H226969   0.520   3.180   1.252 -2.1446 -1.6001 -0.3516
 1852TIP3   OH226970   1.417   5.293   1.341 -0.6957 -0.0578 -0.4829
 1852TIP3    H126971   1.368   5.300   1.423 -1.1487 -1.5691 -0.6004
 1852TIP3    H226972   1.458   5.206   1.345 -0.4659 -0.0165 -1.7184
 1853TIP3   OH226973   5.435   5.729   3.236  0.3110 -0.8981  0.3932
 1853TIP3    H126974   5.424   5.758   3.145  0.1330  1.0300  0.9952
 1853TIP3    H226975   5.461   5.808   3.284  0.9243 -1.9883  1.9404
 1854TIP3   OH226976   2.687   2.490   6.263 -0.2484  0.1801  0.0596
 1854TIP3    H126977   2.709   2.552   6.332 -1.0225 -0.3310  0.7831
 1854TIP3    H226978   2.668   2.409   6.309 -0.6718 -0.1943 -0.7609
 1855TIP3   OH226979   1.797   3.044   3.228  0.0293  0.0211  0.0943
 1855TIP3    H126980   1.851   2.970   3.199  0.6936  0.5236  0.0308
 1855TIP3    H226981   1.770   3.020   3.317  0.3291 -0.2488  0.1148
 1856TIP3   OH226982   4.296   1.776   1.900 -0.0372 -0.4870 -0.3226
 1856TIP3    H126983   4.309   1.861   1.942  0.2434 -0.7535  0.1240
 1856TIP3    H226984   4.242   1.796   1.823  0.9728  0.2707 -0.8623
 1857TIP3   OH226985   2.213   5.815  15.138  0.2351 -0.2167  0.2120
 1857TIP3    H126986   2.267   5.891  15.158  0.1224 -0.0815  0.0064
 1857TIP3    H226987   2.187   5.827  15.046  1.1700 -1.0869 -0.1860
 1858TIP3   OH226988   4.564   3.685  14.938 -0.1333  0.2182 -0.2454
 1858TIP3    H126989   4.562   3.781  14.943  1.7435  0.3179 -0.6990
 1858TIP3    H226990   4.563   3.666  14.845 -0.1229 -0.1721 -0.1658
 1859TIP3   OH226991   3.515   6.614  14.488 -0.2073 -0.6916  0.1122
 1859TIP3    H126992   3.496   6.665  14.409  0.3780  3.4270  2.3469
 1859TIP3    H226993   3.606   6.633  14.507 -0.3092 -1.6735  1.7687
 1860TIP3   OH226994   3.531   1.643  16.980 -0.9346  0.1807  0.2623
 1860TIP3    H126995   3.590   1.676  17.047 -0.8152 -0.9087  0.7244
 1860TIP3    H226996   3.578   1.569  16.942 -1.7660 -0.3549  0.2537
 1861TIP3   OH226997   1.199   1.173   4.885 -0.1440  0.2458 -0.2816
 1861TIP3    H126998   1.168   1.190   4.974  0.6221  3.1491 -0.4452
 1861TIP3    H226999   1.294   1.179   4.891 -0.0553 -0.0908 -1.1971
 1862TIP3   OH227000   1.456   6.398   0.275 -0.2194  0.5425  0.4998
 1862TIP3    H127001   1.365   6.379   0.297 -0.2661  1.7608  1.4562
 1862TIP3    H227002   1.496   6.425   0.357  0.6394  1.4329 -0.1850
 1863TIP3   OH227003   2.502   4.017   0.494  0.0528  0.4578 -0.7756
 1863TIP3    H127004   2.548   4.097   0.516 -1.2408  0.9000  0.4604
 1863TIP3    H227005   2.420   4.046   0.454 -0.0544 -0.2628 -1.0974
 1864TIP3   OH227006   0.503   3.161  11.025 -0.0584 -0.4975 -0.4601
 1864TIP3    H127007   0.471   3.071  11.028 -1.5195  0.0106  0.1733
 1864TIP3    H227008   0.483   3.191  10.936 -3.8455  0.5854  0.5460
 1865TIP3   OH227009   1.271   0.094  16.496 -0.2628  0.2266 -0.4983
 1865TIP3    H127010   1.361   0.116  16.523 -0.2120  0.1258 -0.5870
 1865TIP3    H227011   1.223   0.176  16.507 -0.7914 -0.3766  2.1543
 1866TIP3   OH227012   6.377   5.649   4.015  0.1487 -0.7756  0.2526
 1866TIP3    H127013   6.299   5.678   3.968 -0.2368 -0.9350  0.7797
 1866TIP3    H227014   6.383   5.708   4.090  0.8460 -0.4232 -0.0711
 1867TIP3   OH227015   4.176   0.756   5.791  0.5378 -0.2875  0.5749
 1867TIP3    H127016   4.168   0.797   5.877  1.7606 -0.4680  0.7969
 1867TIP3    H227017   4.254   0.700   5.798 -0.7065 -2.1553  0.0635
 1868TIP3   OH227018   2.479   5.857  14.778  0.3708 -0.8254  0.0632
 1868TIP3    H127019   2.466   5.911  14.856  0.3426 -0.6466 -0.0646
 1868TIP3    H227020   2.510   5.918  14.711 -0.5284 -0.7981 -0.3421
 1869TIP3   OH227021   6.181   6.174  16.523  0.2990  0.3824  0.2680
 1869TIP3    H127022   6.202   6.134  16.439 -0.6980 -3.2044  1.5723
 1869TIP3    H227023   6.263   6.213  16.552  1.8808 -2.1621 -0.4715
 1870TIP3   OH227024   6.684   2.388   3.654  0.1213 -0.3330  0.7428
 1870TIP3    H127025   6.609   2.372   3.597 -0.8137 -0.3974  1.9752
 1870TIP3    H227026   6.710   2.302   3.686 -0.5776 -0.1306  1.9162
 1871TIP3   OH227027   1.783   2.037   1.844  0.4347  0.0044  0.7028
 1871TIP3    H127028   1.828   2.122   1.849  0.7956 -0.1809  0.6468
 1871TIP3    H227029   1.789   2.001   1.933  2.2023 -0.9265  0.2616
 1872TIP3   OH227030   5.713   4.916   2.961  0.5571 -0.1503  0.0554
 1872TIP3    H127031   5.667   4.861   3.024  1.6712  0.6649  1.6548
 1872TIP3    H227032   5.681   5.005   2.980 -0.3272 -0.0531 -1.6856
 1873TIP3   OH227033   6.193   6.631  14.140  0.4121 -0.3217 -0.0389
 1873TIP3    H127034   6.250   6.667  14.208 -0.1303  1.3019 -0.4067
 1873TIP3    H227035   6.243   6.640  14.059  1.1383 -2.4345  0.1118
 1874TIP3   OH227036   1.866   0.718   5.545  0.0953 -0.2104 -0.2981
 1874TIP3    H127037   1.930   0.761   5.602 -0.7368  0.5390  0.0822
 1874TIP3    H227038   1.840   0.640   5.593 -0.7558  0.5235  0.4677
 1875TIP3   OH227039   1.735   6.728   3.074  0.3176  0.6611  0.0398
 1875TIP3    H127040   1.748   6.691   2.988  0.0728  0.9961 -0.1466
 1875TIP3    H227041   1.683   6.807   3.059 -1.3061 -0.2360  0.6528
 1876TIP3   OH227042   2.613   0.712   2.590 -0.3910 -0.4722 -0.1753
 1876TIP3    H127043   2.562   0.643   2.632 -0.8076 -0.3096 -0.4063
 1876TIP3    H227044   2.583   0.793   2.631 -0.2131 -0.3869 -0.2106
 1877TIP3   OH227045   4.460   0.673   2.119 -0.0560  0.8385  0.1358
 1877TIP3    H127046   4.469   0.596   2.174 -2.4624  0.8227  0.6293
 1877TIP3    H227047   4.416   0.642   2.040 -1.7310  1.7676  0.6505
 1878TIP3   OH227048   4.252   3.338  13.082  0.6875  0.0089 -0.2405
 1878TIP3    H127049   4.291   3.287  13.010  1.5832 -0.5963  0.6437
 1878TIP3    H227050   4.245   3.427  13.047  2.4287  0.0331 -0.6138
 1879TIP3   OH227051   3.668   0.928   2.886 -0.8278  0.3680 -0.0505
 1879TIP3    H127052   3.728   0.859   2.913  0.2919  2.1052  2.3088
 1879TIP3    H227053   3.687   0.942   2.793 -0.6040 -1.9335 -0.4015
 1880TIP3   OH227054   5.745   6.134  11.347 -0.0957  0.0369  0.0424
 1880TIP3    H127055   5.668   6.162  11.395 -0.4531 -0.0692 -0.4657
 1880TIP3    H227056   5.747   6.189  11.269  1.9238  2.0361  1.3769
 1881TIP3   OH227057   1.852   0.072   1.822  0.0423  0.0917 -0.5415
 1881TIP3    H127058   1.760   0.093   1.804 -0.2248  0.7383  1.3774
 1881TIP3    H227059   1.900   0.151   1.798 -0.1959  0.5967  0.5849
 1882TIP3   OH227060   4.970   6.622   0.135  0.2413  0.0401 -0.5934
 1882TIP3    H127061   5.060   6.592   0.126 -0.1749 -1.4994  0.0343
 1882TIP3    H227062   4.943   6.645   0.046  0.8232 -0.7848 -0.9916
 1883TIP3   OH227063   0.093   4.278  14.178  0.0638 -0.1394 -0.2682
 1883TIP3    H127064   0.112   4.243  14.265  0.8646  0.9031 -0.0042
 1883TIP3    H227065   0.162   4.342  14.162 -0.5143  0.2409 -1.3515
 1884TIP3   OH227066   0.777   1.241   5.780 -0.2184  0.2188 -0.3664
 1884TIP3    H127067   0.704   1.200   5.826  0.5602 -2.5398 -1.4112
 1884TIP3    H227068   0.833   1.275   5.849 -0.5263 -1.2270  0.6438
 1885TIP3   OH227069   5.833   2.480   1.361 -0.1766  0.0435  0.3001
 1885TIP3    H127070   5.805   2.447   1.276 -0.2909 -1.1289  0.7720
 1885TIP3    H227071   5.784   2.562   1.372 -0.1366  0.2185 -0.7615
 1886TIP3   OH227072   2.960   3.186  12.397  0.0010  0.3104  0.4517
 1886TIP3    H127073   3.022   3.181  12.324  0.7288 -2.5346  1.1585
 1886TIP3    H227074   3.011   3.220  12.470 -0.4100  1.9454  0.0251
 1887TIP3   OH227075   0.997   4.718  14.352  0.2543 -0.6354  0.1945
 1887TIP3    H127076   1.073   4.702  14.408 -0.4226  1.7657  1.9574
 1887TIP3    H227077   0.976   4.810  14.365 -2.7506 -1.1082 -0.4539
 1888TIP3   OH227078   3.964   3.859   5.097  0.9009  0.6766 -0.6187
 1888TIP3    H127079   3.876   3.846   5.063 -0.2621  0.1722  2.3031
 1888TIP3    H227080   3.991   3.772   5.127  1.0116  1.3448  1.4086
 1889TIP3   OH227081   4.307   5.816  11.097 -0.2139  0.0754 -0.0170
 1889TIP3    H127082   4.216   5.789  11.080  0.1955 -1.5536  0.1610
 1889TIP3    H227083   4.307   5.840  11.190 -0.5337  0.3769 -0.0934
 1890TIP3   OH227084   1.480   1.389  17.148  0.3147  0.3111 -0.0414
 1890TIP3    H127085   1.513   1.479  17.144  1.2988 -0.0435 -0.2506
 1890TIP3    H227086   1.538   1.344  17.210  1.0114 -0.6204 -1.2959
 1891TIP3   OH227087   5.981   3.742   3.185  0.2231 -0.4209  0.3394
 1891TIP3    H127088   6.074   3.734   3.205  0.6219 -0.3230 -1.3614
 1891TIP3    H227089   5.946   3.796   3.256  1.1216 -1.7395  1.8607
 1892TIP3   OH227090   5.526   0.693  14.677  0.2320  0.1682  0.0674
 1892TIP3    H127091   5.546   0.761  14.613  0.8730  1.7575  1.8367
 1892TIP3    H227092   5.432   0.679  14.668  0.4018 -0.0973 -1.5899
 1893TIP3   OH227093   3.394   5.638  12.660  0.1093  0.6398  0.0151
 1893TIP3    H127094   3.406   5.671  12.749 -0.7305 -1.3893  0.9402
 1893TIP3    H227095   3.480   5.649  12.619  0.1762  2.7874  0.6033
 1894TIP3   OH227096   6.505   3.029   4.936 -0.0693 -0.2026 -0.4167
 1894TIP3    H127097   6.427   2.974   4.931  0.1075 -0.6604  1.2502
 1894TIP3    H227098   6.576   2.974   4.903  0.0842 -0.9798  1.1249
 1895TIP3   OH227099   1.774   2.633   4.543 -0.5427 -0.5632  0.2419
 1895TIP3    H127100   1.689   2.656   4.581 -0.3144  0.2367  0.2936
 1895TIP3    H227101   1.824   2.595   4.616 -0.2212  0.6637  0.7010
 1896TIP3   OH227102   3.875   4.404  15.827  0.1330 -0.1885 -0.0655
 1896TIP3    H127103   3.955   4.434  15.871  0.3611 -0.4370 -0.3067
 1896TIP3    H227104   3.906   4.364  15.746 -0.1292 -1.4639  0.4487
 1897TIP3   OH227105   0.195   2.114  10.574 -0.0812 -0.1019  0.0346
 1897TIP3    H127106   0.240   2.128  10.657  0.4340 -0.4851 -0.1714
 1897TIP3    H227107   0.253   2.152  10.508 -1.2762  1.7489 -0.0233
 1898TIP3   OH227108   3.980   2.317  12.050  0.9025  0.4305 -0.1502
 1898TIP3    H127109   3.995   2.229  12.015  1.4640  0.1525  0.7627
 1898TIP3    H227110   3.886   2.331  12.042  0.8091 -0.2616 -0.2731
 1899TIP3   OH227111   5.230   2.201  13.671  0.9737  0.3996 -0.3730
 1899TIP3    H127112   5.194   2.157  13.749 -0.8190  0.9537 -0.8433
 1899TIP3    H227113   5.242   2.131  13.607 -1.8246  0.4729 -1.1034
 1900TIP3   OH227114   4.794   1.831   3.215 -0.0620 -0.2408 -0.7258
 1900TIP3    H127115   4.727   1.807   3.279  0.4531  0.0553 -0.0745
 1900TIP3    H227116   4.745   1.842   3.133 -0.3594 -3.3420 -1.0750
 1901TIP3   OH227117   1.526   3.473   4.906 -0.1422 -0.0210 -0.2369
 1901TIP3    H127118   1.522   3.496   4.998 -0.6615  2.7206 -0.8724
 1901TIP3    H227119   1.442   3.499   4.870  0.4584  0.0141 -1.7006
 1902TIP3   OH227120   1.407   5.115   5.982  0.1272 -0.0800  0.3919
 1902TIP3    H127121   1.420   5.117   5.888  0.2109 -0.2545  0.3998
 1902TIP3    H227122   1.434   5.027   6.009 -0.8148 -0.3598  0.4411
 1903TIP3   OH227123   4.162   3.605  14.891  0.0738  0.5864 -0.5841
 1903TIP3    H127124   4.212   3.667  14.837 -0.7408  0.8731 -1.0351
 1903TIP3    H227125   4.080   3.594  14.843 -0.3826  0.3016  0.2595
 1904TIP3   OH227126   4.717   3.561   2.050  0.5566 -0.1035  0.5524
 1904TIP3    H127127   4.666   3.514   2.116 -2.3247 -0.1886 -1.5595
 1904TIP3    H227128   4.691   3.652   2.059  1.0485  0.0696  0.2834
 1905TIP3   OH227129   4.360   3.041  14.240 -0.1145 -0.2253 -0.1292
 1905TIP3    H127130   4.420   3.114  14.233 -0.6888  0.4001  1.1158
 1905TIP3    H227131   4.390   2.992  14.317 -0.4434 -0.6166 -0.2457
 1906TIP3   OH227132   5.265   1.789  10.921 -0.1098  0.6563  0.2970
 1906TIP3    H127133   5.302   1.811  11.006 -0.7333  1.0710  0.4740
 1906TIP3    H227134   5.212   1.866  10.898  1.6135  1.4274 -1.4027
 1907TIP3   OH227135   6.431   6.191   1.001 -0.7797  0.9639  0.5832
 1907TIP3    H127136   6.493   6.154   1.064 -1.2268 -0.0855  0.4386
 1907TIP3    H227137   6.461   6.281   0.987  0.7297  0.4651  0.4700
 1908TIP3   OH227138   2.573   0.168  14.109  0.1758  0.0939  0.2122
 1908TIP3    H127139   2.637   0.150  14.041  0.4427  0.4183  0.3803
 1908TIP3    H227140   2.604   0.247  14.152 -1.4556  1.5421 -1.0887
 1909TIP3   OH227141   3.079   0.790   0.209  0.5030  0.1108  0.2755
 1909TIP3    H127142   3.033   0.874   0.222  1.7447  0.8854 -0.1262
 1909TIP3    H227143   3.072   0.745   0.293  2.1528  1.8303  1.4079
 1910TIP3   OH227144   5.730   1.083  17.354 -0.0504  0.3832 -0.0849
 1910TIP3    H127145   5.762   1.081  17.444  0.4647  1.7503 -0.2071
 1910TIP3    H227146   5.776   1.011  17.311  0.3608  0.2645  0.5379
 1911TIP3   OH227147   3.382   6.146  15.914 -0.5210 -0.4626  0.0432
 1911TIP3    H127148   3.448   6.077  15.928  0.4722  0.2762 -0.9206
 1911TIP3    H227149   3.336   6.150  15.998  0.3928 -1.2712  0.6222
 1912TIP3   OH227150   4.250   6.362   1.075  0.3491 -0.2082  0.1283
 1912TIP3    H127151   4.238   6.430   1.009  0.3355  0.4581  0.8146
 1912TIP3    H227152   4.281   6.286   1.025  1.6607  0.6869 -0.4741
 1913TIP3   OH227153   6.388   6.481  15.776 -0.1342 -0.0539  0.4849
 1913TIP3    H127154   6.377   6.574  15.795 -0.4938  0.3792 -1.5970
 1913TIP3    H227155   6.481   6.464  15.789  0.1845  0.9372 -0.3511
 1914TIP3   OH227156   3.463   0.159   5.639  0.0660 -0.0467  0.0541
 1914TIP3    H127157   3.492   0.249   5.654  0.6862 -0.4246  1.3074
 1914TIP3    H227158   3.490   0.139   5.550  1.3791  0.4835  0.3137
 1915TIP3   OH227159   1.191   6.382   0.312 -0.7134 -0.0260  0.1458
 1915TIP3    H127160   1.141   6.364   0.232 -0.0095 -1.8110  0.0503
 1915TIP3    H227161   1.126   6.416   0.374 -1.3039  1.2056 -1.1014
 1916TIP3   OH227162   0.917   3.480  14.557  0.2775  0.0291 -0.1256
 1916TIP3    H127163   0.876   3.425  14.489 -2.1403  0.7977  0.6008
 1916TIP3    H227164   0.872   3.564  14.550  0.3377  0.3012  2.0648
 1917TIP3   OH227165   1.769   3.812   0.999 -0.0816 -0.7065  0.3005
 1917TIP3    H127166   1.796   3.745   1.062  0.7333 -0.8507 -0.1989
 1917TIP3    H227167   1.738   3.762   0.924 -1.1081 -0.5345  0.5843
 1918TIP3   OH227168   2.587   2.878   2.785  0.0507 -0.6223 -0.3475
 1918TIP3    H127169   2.644   2.875   2.862  0.4431 -0.0668 -0.6074
 1918TIP3    H227170   2.560   2.970   2.779 -2.6339 -1.2172  1.0353
 1919TIP3   OH227171   1.930   4.650   4.411  0.1968  0.9479 -0.4849
 1919TIP3    H127172   1.945   4.597   4.489  2.1022  1.0026 -0.7554
 1919TIP3    H227173   1.958   4.594   4.339  0.9746  1.8259 -0.8885
 1920TIP3   OH227174   2.781   4.516  15.227 -0.6598  0.5701 -0.1032
 1920TIP3    H127175   2.722   4.566  15.283  1.7693  2.4400  0.9829
 1920TIP3    H227176   2.778   4.427  15.262 -1.3577  1.0781  1.1775
 1921TIP3   OH227177   4.452   2.212  12.071  0.0424 -0.1132  0.0797
 1921TIP3    H127178   4.517   2.273  12.037  0.1320  1.0663  2.2527
 1921TIP3    H227179   4.368   2.250  12.044  0.1557 -0.4472 -0.7907
 1922TIP3   OH227180   5.268   4.938   3.427 -0.5676  0.0475 -0.0717
 1922TIP3    H127181   5.321   4.863   3.454 -0.4811  0.6722  1.6313
 1922TIP3    H227182   5.266   4.933   3.332  2.1660 -0.2901 -0.2034
 1923TIP3   OH227183   0.612   6.355  11.479 -0.8631 -0.5023  0.0560
 1923TIP3    H127184   0.698   6.378  11.443 -0.4822  0.0707  1.2768
 1923TIP3    H227185   0.550   6.409  11.430 -0.5701 -1.1722 -1.0725
 1924TIP3   OH227186   6.064   1.942   1.826  0.4082  0.6550 -0.3676
 1924TIP3    H127187   6.051   1.993   1.745 -1.2201  1.6151  0.4545
 1924TIP3    H227188   5.976   1.916   1.853  1.0866 -1.3783  0.0651
 1925TIP3   OH227189   1.382   0.945   0.870  0.0617  0.1163 -0.0204
 1925TIP3    H127190   1.399   1.038   0.889  1.2212 -0.2033  0.6007
 1925TIP3    H227191   1.304   0.924   0.923  1.6216 -0.0383  2.3717
 1926TIP3   OH227192   1.412   1.633   1.929  0.3247 -0.2376  0.5359
 1926TIP3    H127193   1.403   1.728   1.935  0.8948 -0.0570 -0.8521
 1926TIP3    H227194   1.323   1.600   1.922  0.1558  0.2945  0.0811
 1927TIP3   OH227195   0.581   2.578   1.322  0.7739  0.0497  0.2289
 1927TIP3    H127196   0.561   2.486   1.305 -0.1915  0.4198 -0.8353
 1927TIP3    H227197   0.587   2.617   1.234  2.5828  0.7326  0.6191
 1928TIP3   OH227198   6.267   3.140   5.673  0.2189  0.1935 -0.5374
 1928TIP3    H127199   6.190   3.186   5.640 -0.6332 -0.0838  0.9846
 1928TIP3    H227200   6.307   3.201   5.735  0.8347  0.0488 -0.7803
 1929TIP3   OH227201   4.097   4.584  12.567  0.2747  0.1428 -0.2673
 1929TIP3    H127202   4.015   4.551  12.531 -1.1739 -0.7045  3.3424
 1929TIP3    H227203   4.156   4.508  12.566 -0.4428 -0.4612  0.8912
 1930TIP3   OH227204   5.180   2.597  16.339  0.3412 -0.3118 -0.1426
 1930TIP3    H127205   5.192   2.622  16.247  0.3607 -0.3425 -0.1482
 1930TIP3    H227206   5.259   2.548  16.361  0.2493 -0.4724 -0.1661
 1931TIP3   OH227207   5.083   6.688   0.459  0.3233 -0.3572 -0.0120
 1931TIP3    H127208   5.174   6.682   0.490  0.0904 -1.9969  0.3986
 1931TIP3    H227209   5.043   6.753   0.517  1.1146  0.0885  0.0567
 1932TIP3   OH227210   1.390   1.943  11.185 -0.0475  0.3948  0.0764
 1932TIP3    H127211   1.429   1.903  11.263  1.1700  0.3879 -0.5037
 1932TIP3    H227212   1.415   1.885  11.114 -1.4162  0.2307 -0.2979
 1933TIP3   OH227213   1.714   4.251  13.292 -0.3412  0.3473 -0.1352
 1933TIP3    H127214   1.672   4.205  13.221 -0.9724 -0.8553  0.9775
 1933TIP3    H227215   1.642   4.280  13.348  0.1700  0.6252  0.3924
 1934TIP3   OH227216   5.226   4.919  15.518  0.6636  0.2846  0.5212
 1934TIP3    H127217   5.197   4.886  15.604  0.6484  1.6196  1.0536
 1934TIP3    H227218   5.292   4.856  15.490 -0.8537 -1.3889  0.4914
 1935TIP3   OH227219   4.211   1.084  17.356  0.0989 -0.7409 -0.1934
 1935TIP3    H127220   4.153   1.113  17.286 -0.2229  2.1929  1.1428
 1935TIP3    H227221   4.297   1.076  17.315 -0.1508  0.5955 -1.0438
 1936TIP3   OH227222   2.214   0.934   2.292 -0.0348 -0.1494  0.2448
 1936TIP3    H127223   2.197   0.929   2.198 -0.2657  2.9169  0.0285
 1936TIP3    H227224   2.299   0.892   2.303 -0.9763 -2.5256 -0.9322
 1937TIP3   OH227225   4.256   4.268  12.053  0.4880 -0.3894  0.1173
 1937TIP3    H127226   4.290   4.248  11.966 -0.0604  2.0163 -0.7353
 1937TIP3    H227227   4.329   4.310  12.098 -0.0570  0.9338 -0.2101
 1938TIP3   OH227228   4.034   4.759   1.093 -0.3062  0.0421  0.2394
 1938TIP3    H127229   4.118   4.772   1.048 -2.0260  0.6767 -3.0523
 1938TIP3    H227230   4.013   4.846   1.129 -0.8536  0.6370 -1.4436
 1939TIP3   OH227231   1.554   3.777   4.987 -0.3026  0.1885  0.0412
 1939TIP3    H127232   1.627   3.724   5.020  0.2849  2.5405  2.8747
 1939TIP3    H227233   1.580   3.799   4.898  0.6806 -1.9626 -0.2912
 1940TIP3   OH227234   4.955   1.501  15.447  0.3647  0.9721  0.2196
 1940TIP3    H127235   4.892   1.484  15.517  0.3009  2.8050  0.6552
 1940TIP3    H227236   4.905   1.490  15.366  0.6166 -1.8904  0.3674
 1941TIP3   OH227237   3.163   2.021  16.821 -0.2417  0.5246 -0.2375
 1941TIP3    H127238   3.203   2.053  16.740 -1.7912  0.3165 -1.1305
 1941TIP3    H227239   3.215   2.060  16.891  0.1090  2.1149 -1.3179
 1942TIP3   OH227240   4.878   2.574  14.892 -0.1585 -0.4567 -0.6290
 1942TIP3    H127241   4.966   2.537  14.881  0.1980  0.6021 -1.4981
 1942TIP3    H227242   4.845   2.535  14.973  0.6289 -1.8046 -0.9245
 1943TIP3   OH227243   3.888   2.293  16.333 -0.2934  0.1414  0.1331
 1943TIP3    H127244   3.969   2.339  16.310  0.2814 -1.1674 -0.5888
 1943TIP3    H227245   3.887   2.294  16.429 -0.1349  1.3468  0.1333
 1944TIP3   OH227246   3.727   6.103  14.903  0.0628  0.7034 -0.3722
 1944TIP3    H127247   3.650   6.093  14.847 -1.9545  0.4805  2.2492
 1944TIP3    H227248   3.742   6.015  14.939  0.0437  1.2106  0.9272
 1945TIP3   OH227249   2.039   6.661   0.245  0.1772  0.7725  0.0254
 1945TIP3    H127250   2.026   6.656   0.339 -1.1930  1.3627 -0.1102
 1945TIP3    H227251   1.990   6.587   0.209 -1.0321  1.7075 -0.3390
 1946TIP3   OH227252   6.078   6.473   0.988 -0.0487  0.5743 -0.6872
 1946TIP3    H127253   6.105   6.388   1.022 -1.4903  0.3581  0.0112
 1946TIP3    H227254   6.157   6.510   0.950  0.5323 -1.2411 -1.3652
 1947TIP3   OH227255   3.610   5.920  16.429 -0.0254 -0.6215 -0.8648
 1947TIP3    H127256   3.638   5.970  16.506  1.8822 -1.5475 -0.8998
 1947TIP3    H227257   3.538   5.866  16.461 -0.0703 -0.1034 -0.0480
 1948TIP3   OH227258   5.611   2.114   1.363  0.0129  0.5145  0.2274
 1948TIP3    H127259   5.586   2.127   1.271  0.8067  2.5343  0.2415
 1948TIP3    H227260   5.532   2.082   1.405 -0.8102  1.0169 -0.8734
 1949TIP3   OH227261   4.081   1.801   5.870 -0.2473  0.0705 -0.0633
 1949TIP3    H127262   3.990   1.780   5.895  0.1710 -3.5173 -0.9438
 1949TIP3    H227263   4.128   1.804   5.953 -0.5560 -2.0507  0.2523
 1950TIP3   OH227264   0.089   6.387   2.821 -0.1336 -0.2177 -0.0604
 1950TIP3    H127265   0.071   6.426   2.735 -0.7428  2.2260  1.0863
 1950TIP3    H227266   0.009   6.402   2.871  0.7252 -0.2948  1.3891
 1951TIP3   OH227267   3.111   3.472   0.933  0.5797  0.2443  0.3504
 1951TIP3    H127268   3.084   3.554   0.892 -0.8722 -0.8120 -0.9527
 1951TIP3    H227269   3.060   3.467   1.014 -1.2517 -0.4832 -0.7914
 1952TIP3   OH227270   4.753   5.266   0.366  0.1391 -0.1801 -0.0852
 1952TIP3    H127271   4.782   5.290   0.455  0.4836 -1.3358  0.1303
 1952TIP3    H227272   4.832   5.273   0.313  0.2055 -0.6682 -0.0527
 1953TIP3   OH227273   6.662   3.013   4.291  0.5754 -0.5758  0.4836
 1953TIP3    H127274   6.570   3.037   4.280  1.0611  0.8691 -0.8160
 1953TIP3    H227275   6.660   2.929   4.337 -1.3303  0.3200  2.1818
 1954TIP3   OH227276   2.398   5.144  11.506  0.4772  0.4335  0.3568
 1954TIP3    H127277   2.446   5.095  11.573  0.9555  0.8755  0.3405
 1954TIP3    H227278   2.339   5.201  11.556 -0.4499 -0.5141  0.3701
 1955TIP3   OH227279   2.540   5.067   1.142  0.0066  0.3173  0.1537
 1955TIP3    H127280   2.565   5.138   1.201 -0.4359  0.7492 -0.1655
 1955TIP3    H227281   2.444   5.064   1.148  0.0949 -1.1007  1.1309
 1956TIP3   OH227282   3.660   1.318   4.829  1.0176 -0.0216  0.0712
 1956TIP3    H127283   3.574   1.307   4.787  1.7864 -0.8076 -1.3649
 1956TIP3    H227284   3.643   1.377   4.902 -0.6422  0.3217 -0.5375
 1957TIP3   OH227285   1.688   0.885  12.921  1.1107 -0.2667  0.6867
 1957TIP3    H127286   1.719   0.930  13.000  0.0130 -1.3055  1.7430
 1957TIP3    H227287   1.593   0.896  12.923  1.0304 -0.6764 -0.2817
 1958TIP3   OH227288   2.350   1.917  12.930 -0.0249  0.3299  0.3523
 1958TIP3    H127289   2.428   1.940  12.879 -0.3205  0.1393 -0.1976
 1958TIP3    H227290   2.277   1.956  12.881 -0.5906 -1.9891 -0.8296
 1959TIP3   OH227291   0.979   2.063   0.694 -0.0676  0.0673  0.1661
 1959TIP3    H127292   0.944   2.146   0.663 -0.5132 -0.1171  0.1615
 1959TIP3    H227293   1.043   2.037   0.628  0.0628  0.3966  0.1605
 1960TIP3   OH227294   2.192   6.683  12.450  0.4411  0.1418  0.5437
 1960TIP3    H127295   2.247   6.721  12.518  0.1709  0.2266  0.7157
 1960TIP3    H227296   2.253   6.664  12.378  0.9316 -0.9981  1.2277
 1961TIP3   OH227297   0.935   3.829  12.030 -0.1230 -0.1607 -0.2518
 1961TIP3    H127298   0.933   3.827  11.934 -2.4433 -0.9069 -0.2446
 1961TIP3    H227299   0.871   3.763  12.057  0.9444 -0.4287  1.8493
 1962TIP3   OH227300   1.820   0.405   6.766 -0.0924  0.2624  0.2314
 1962TIP3    H127301   1.809   0.500   6.767 -1.0185  0.2786 -2.6555
 1962TIP3    H227302   1.872   0.387   6.687  0.0779 -1.6535  0.7128
 1963TIP3   OH227303   2.621   1.241   3.513 -0.1124  0.0676  0.2454
 1963TIP3    H127304   2.703   1.237   3.464 -1.3186  0.3463 -1.9115
 1963TIP3    H227305   2.594   1.150   3.523  0.4494 -0.0293  1.0160
 1964TIP3   OH227306   4.339   5.624  13.463 -0.4857 -0.4472  0.1557
 1964TIP3    H127307   4.259   5.657  13.503  0.9066  1.5334  1.5696
 1964TIP3    H227308   4.369   5.555  13.523  0.1973  0.6650  1.1480
 1965TIP3   OH227309   5.347   0.206  14.515 -0.1930 -0.0756 -0.1126
 1965TIP3    H127310   5.328   0.286  14.465  0.7061 -0.2698 -0.7873
 1965TIP3    H227311   5.407   0.157  14.459 -1.8519 -1.9103 -0.3700
 1966TIP3   OH227312   0.772   6.729   0.222 -0.0008  0.2552 -0.1036
 1966TIP3    H127313   0.770   6.822   0.246  0.5730  0.6444 -1.4046
 1966TIP3    H227314   0.756   6.682   0.303  2.2701  1.4420  1.1188
 1967TIP3   OH227315   0.705   5.434  16.667  0.0530  0.1882  0.1304
 1967TIP3    H127316   0.800   5.428  16.656 -0.1689 -0.2074 -1.7842
 1967TIP3    H227317   0.676   5.494  16.599 -1.1945 -0.5050  0.0242
 1968TIP3   OH227318   6.177   1.150  15.579  0.1462  0.3361  0.1435
 1968TIP3    H127319   6.257   1.199  15.598  0.8010 -1.2765  1.9438
 1968TIP3    H227320   6.130   1.204  15.516  2.0481  1.9495 -0.0039
 1969TIP3   OH227321   4.693   3.334   1.203 -0.0653 -0.0730  0.6908
 1969TIP3    H127322   4.754   3.396   1.241  1.0592 -0.7049 -0.0320
 1969TIP3    H227323   4.705   3.344   1.108 -2.1804  0.8612  0.4609
 1970TIP3   OH227324   1.573   0.873   4.381  0.1441  0.3626  0.6419
 1970TIP3    H127325   1.570   0.968   4.382  0.8615  0.3879  1.3254
 1970TIP3    H227326   1.507   0.846   4.445  0.2117  0.4123  0.7324
 1971TIP3   OH227327   4.045   1.175   0.697  0.2545 -0.0554 -0.6770
 1971TIP3    H127328   4.131   1.197   0.661  0.9644 -1.4228  0.1157
 1971TIP3    H227329   4.035   1.081   0.683 -0.4643 -0.1941  0.5398
 1972TIP3   OH227330   4.672   1.499  12.902 -0.4886 -0.3173 -0.6252
 1972TIP3    H127331   4.579   1.523  12.903 -0.4893 -0.3208 -0.5945
 1972TIP3    H227332   4.680   1.437  12.975 -0.0369  1.2341  0.7093
 1973TIP3   OH227333   1.426   4.648   2.435  0.2011 -0.4146 -0.8729
 1973TIP3    H127334   1.356   4.615   2.491  1.3644 -0.2661  0.7507
 1973TIP3    H227335   1.502   4.594   2.457  1.5251  1.7142  0.1381
 1974TIP3   OH227336   3.728   5.289  13.560  0.2153 -0.0395  0.2035
 1974TIP3    H127337   3.685   5.367  13.527  0.3798  0.4977  1.2370
 1974TIP3    H227338   3.662   5.220  13.552  0.0547  0.1954 -0.6592
 1975TIP3   OH227339   2.547   5.228   1.556 -0.2542 -0.1104  0.3423
 1975TIP3    H127340   2.612   5.190   1.615  1.1477 -0.4289 -1.2951
 1975TIP3    H227341   2.591   5.230   1.471 -2.0554  0.6338 -0.6333
 1976TIP3   OH227342   4.872   1.319   3.600  0.1735  0.1800 -0.0222
 1976TIP3    H127343   4.877   1.309   3.505 -0.8545  0.1067 -0.0761
 1976TIP3    H227344   4.880   1.414   3.614  1.1253  0.1232 -0.1154
 1977TIP3   OH227345   6.134   2.962  15.009 -0.7730  0.1846  0.1428
 1977TIP3    H127346   6.174   3.043  14.977  1.5022 -0.2726  1.6251
 1977TIP3    H227347   6.115   2.911  14.930  1.6575  0.4363 -0.6776
 1978TIP3   OH227348   6.147   3.829   0.522  0.2753 -0.3800 -0.0857
 1978TIP3    H127349   6.224   3.791   0.481  0.0334 -0.3640 -0.5555
 1978TIP3    H227350   6.133   3.912   0.477 -0.0763 -0.4294 -0.0763
 1979TIP3   OH227351   4.811   3.313  16.933 -0.8412 -0.0702  0.1800
 1979TIP3    H127352   4.883   3.295  16.994 -0.8129 -1.4842 -0.2335
 1979TIP3    H227353   4.815   3.407  16.919  0.6577 -0.0536  0.5190
 1980TIP3   OH227354   0.264   1.528  16.476  0.7276  0.4291  0.0584
 1980TIP3    H127355   0.258   1.613  16.432 -1.2445  0.4712  0.3332
 1980TIP3    H227356   0.242   1.464  16.408  2.7508  0.0474 -0.2933
 1981TIP3   OH227357   6.254   0.843   5.043 -0.2151  0.0318  0.0681
 1981TIP3    H127358   6.202   0.918   5.073  1.7741  2.2017 -1.5471
 1981TIP3    H227359   6.330   0.841   5.102  0.4581  0.2424 -0.7685
 1982TIP3   OH227360   5.408   5.453  17.180  0.1144  0.1313  0.4672
 1982TIP3    H127361   5.465   5.516  17.136 -0.5004 -0.4681 -1.2713
 1982TIP3    H227362   5.322   5.466  17.138 -0.9112  0.6117  2.5990
 1983TIP3   OH227363   4.161   1.465   4.321 -0.7466  0.3878  0.7222
 1983TIP3    H127364   4.140   1.380   4.282  2.3532  0.5457 -1.6801
 1983TIP3    H227365   4.081   1.517   4.313 -1.3257 -0.8130 -2.2140
 1984TIP3   OH227366   2.586   4.732   2.847 -0.0084 -0.0492  0.1292
 1984TIP3    H127367   2.594   4.655   2.904  0.9622  0.9181  1.3426
 1984TIP3    H227368   2.674   4.745   2.812  0.3590  1.6927  1.5582
 1985TIP3   OH227369   3.019   2.367  17.239 -0.1016 -0.2646 -0.0226
 1985TIP3    H127370   2.929   2.401  17.240 -0.4131 -1.0628 -0.2324
 1985TIP3    H227371   3.072   2.439  17.274 -0.5643  0.9310 -1.6324
 1986TIP3   OH227372   2.995   6.087   4.027 -0.8072 -0.3724  0.1902
 1986TIP3    H127373   2.932   6.034   3.978 -2.0842  1.1784  0.0389
 1986TIP3    H227374   3.073   6.033   4.035 -1.3066 -1.4447 -1.7543
 1987TIP3   OH227375   2.574   0.766   4.122 -0.3683 -0.0816 -0.0547
 1987TIP3    H127376   2.585   0.857   4.093  0.9228 -0.2817 -0.2549
 1987TIP3    H227377   2.639   0.717   4.072  0.2227 -0.8356  1.3922
 1988TIP3   OH227378   2.178   6.154  15.973  0.4518  0.6947 -0.2226
 1988TIP3    H127379   2.149   6.088  16.036  1.0118 -0.7228 -1.3675
 1988TIP3    H227380   2.111   6.152  15.905  0.8239  0.8081 -0.5949
 1989TIP3   OH227381   3.439   1.257  17.051  0.4089  0.1551  1.1987
 1989TIP3    H127382   3.455   1.348  17.025 -0.9244  0.1595  0.3227
 1989TIP3    H227383   3.428   1.261  17.146 -1.3402  1.1929  0.9879
 1990TIP3   OH227384   4.480   5.920   1.601  0.2068  0.0311 -0.7231
 1990TIP3    H127385   4.498   5.855   1.533  0.0630  0.7926 -1.4972
 1990TIP3    H227386   4.432   5.989   1.557  0.8073  0.9209 -0.0180
 1991TIP3   OH227387   3.165   4.418  12.577  0.5411  0.0864 -0.3788
 1991TIP3    H127388   3.178   4.330  12.540  0.2517  0.2465 -0.8741
 1991TIP3    H227389   3.228   4.423  12.648  0.9627 -0.3171 -0.7110
 1992TIP3   OH227390   0.782   2.879  14.113  0.3486 -0.1438 -0.0821
 1992TIP3    H127391   0.753   2.825  14.039  1.2367 -2.2429  1.0112
 1992TIP3    H227392   0.839   2.821  14.164  0.5562  1.5477  1.7193
 1993TIP3   OH227393   5.297   6.342   0.709  0.3510 -0.1885 -0.6285
 1993TIP3    H127394   5.331   6.257   0.739 -2.5768 -1.4751 -0.5768
 1993TIP3    H227395   5.304   6.399   0.785 -0.0012 -1.1880  0.1890
 1994TIP3   OH227396   4.414   1.788  13.135  0.0322  0.7336 -0.1356
 1994TIP3    H127397   4.466   1.712  13.158 -0.7241 -1.2409 -4.0708
 1994TIP3    H227398   4.323   1.762  13.153 -0.2609  0.4408 -1.8042
 1995TIP3   OH227399   2.241   1.644   0.958 -0.1025 -0.2828 -0.1590
 1995TIP3    H127400   2.180   1.640   0.884 -0.1740  1.2268 -0.2025
 1995TIP3    H227401   2.326   1.621   0.919 -0.5747 -2.4137 -0.0925
 1996TIP3   OH227402   4.487   0.484   0.477  0.1409  0.1449 -0.0695
 1996TIP3    H127403   4.507   0.495   0.569  0.9412  0.6688 -0.2953
 1996TIP3    H227404   4.482   0.573   0.442  0.4357 -0.0566 -0.6489
 1997TIP3   OH227405   6.583   3.723  14.436  0.4507 -0.8127  0.1040
 1997TIP3    H127406   6.520   3.662  14.397  1.1712 -1.6445  0.2216
 1997TIP3    H227407   6.668   3.685  14.415  0.8756 -0.8240  1.7557
 1998TIP3   OH227408   3.549   5.398   4.579  0.0206  0.6881 -0.1853
 1998TIP3    H127409   3.542   5.445   4.496  0.1329 -0.5731 -0.9354
 1998TIP3    H227410   3.634   5.353   4.573 -1.1990 -1.6869 -0.6379
 1999TIP3   OH227411   1.645   2.067  13.790 -0.3136 -0.0783 -0.6244
 1999TIP3    H127412   1.680   2.116  13.864 -1.2713  2.0477 -1.4745
 1999TIP3    H227413   1.576   2.012  13.827 -0.5882  0.7471  0.1120
 2000TIP3   OH227414   4.000   3.604   5.206  0.3718 -0.0291 -0.0053
 2000TIP3    H127415   4.063   3.532   5.202  2.6182  1.8797 -2.6187
 2000TIP3    H227416   4.031   3.658   5.279 -0.3628 -0.8254  0.9223
 2001TIP3   OH227417   5.522   2.959   1.733 -0.0947  0.2815 -0.1066
 2001TIP3    H127418   5.527   2.867   1.707  1.1729  0.4148 -0.3666
 2001TIP3    H227419   5.535   3.008   1.652  1.8153  0.6887  0.4024
 2002TIP3   OH227420   3.599   4.819   2.367 -0.3730  0.3564 -0.2351
 2002TIP3    H127421   3.568   4.776   2.446 -0.3044 -0.8873 -0.8519
 2002TIP3    H227422   3.526   4.874   2.339 -0.5964  0.3800  0.3832
 2003TIP3   OH227423   1.638   5.011   5.501  0.2709 -0.1256 -0.1533
 2003TIP3    H127424   1.710   5.054   5.454  1.0944  0.0131  1.2009
 2003TIP3    H227425   1.657   4.917   5.493 -0.1137 -0.1578 -0.8696
 2004TIP3   OH227426   1.238   6.086  11.787 -0.3135  0.3794 -0.0610
 2004TIP3    H127427   1.177   6.096  11.713 -1.3942 -1.4542  0.5157
 2004TIP3    H227428   1.209   6.006  11.832  1.1607  0.6862  1.5620
 2005TIP3   OH227429   6.740   2.818   3.305 -0.2282 -0.0479  0.5350
 2005TIP3    H127430   6.671   2.753   3.298 -0.1307 -0.1587  0.6095
 2005TIP3    H227431   6.770   2.813   3.395 -0.8726  0.7675  0.8084
 2006TIP3   OH227432   5.963   2.315   0.605  0.3050  0.4815 -0.0619
 2006TIP3    H127433   5.964   2.410   0.601 -0.5393  0.5109  0.1221
 2006TIP3    H227434   6.031   2.292   0.667  1.1080  0.9210 -0.7628
 2007TIP3   OH227435   3.396   4.462   4.361  0.2879  0.6387 -0.2540
 2007TIP3    H127436   3.379   4.433   4.451 -0.7215 -0.4916 -0.7811
 2007TIP3    H227437   3.332   4.531   4.345 -0.2967  0.0500 -0.4767
 2008TIP3   OH227438   1.268   3.877   1.014  0.0933  0.3807 -0.7357
 2008TIP3    H127439   1.277   3.782   1.005 -0.4706  0.3147 -0.6095
 2008TIP3    H227440   1.352   3.905   1.051  0.5665  0.0400 -1.5258
 2009TIP3   OH227441   6.270   0.150  14.559 -0.0688  0.5703  0.2076
 2009TIP3    H127442   6.307   0.094  14.627 -2.3558 -2.1131 -0.5635
 2009TIP3    H227443   6.177   0.158  14.583 -0.9534 -0.4854 -2.5358
 2010TIP3   OH227444   1.968   1.842  15.069  0.1243  0.0433 -0.3888
 2010TIP3    H127445   1.922   1.886  15.140 -2.4056 -1.1471 -1.1771
 2010TIP3    H227446   1.942   1.750  15.077 -1.3038  0.0563 -3.5442
 2011TIP3   OH227447   4.257   5.431   3.094 -0.0088 -0.0542  0.4369
 2011TIP3    H127448   4.329   5.375   3.122 -1.8347 -2.9175 -0.2287
 2011TIP3    H227449   4.187   5.371   3.070 -1.4109  2.4476 -2.4850
 2012TIP3   OH227450   0.760   1.848   6.472  0.1676 -0.6771  0.3414
 2012TIP3    H127451   0.739   1.769   6.522 -2.4334 -0.4316 -0.2226
 2012TIP3    H227452   0.807   1.816   6.395  1.6650 -1.3361  1.4702
 2013TIP3   OH227453   4.262   1.347   1.734 -0.2420 -0.5744  0.0910
 2013TIP3    H127454   4.342   1.312   1.773 -0.6007 -1.4873  0.0412
 2013TIP3    H227455   4.194   1.330   1.800 -0.5916 -0.8161 -0.3253
 2014TIP3   OH227456   2.932   3.894   3.457 -0.2043 -0.5084  0.1133
 2014TIP3    H127457   2.962   3.979   3.491 -0.6122 -0.8670  1.4181
 2014TIP3    H227458   2.894   3.915   3.371  1.4538  0.3260 -0.4611
 2015TIP3   OH227459   2.061   4.638  17.044  0.2738 -0.0614 -0.2358
 2015TIP3    H127460   1.982   4.644  16.990  0.1546 -0.8492 -0.1600
 2015TIP3    H227461   2.108   4.562  17.010 -0.0427 -0.8794  1.0654
 2016TIP3   OH227462   0.604   3.681  14.253  0.9942  0.5018  0.4587
 2016TIP3    H127463   0.595   3.716  14.341 -0.7968 -0.2462  0.6169
 2016TIP3    H227464   0.587   3.755  14.195  0.7517  0.6787  0.7562
 2017TIP3   OH227465   0.183   2.632   0.592  0.2412 -0.6219 -0.9698
 2017TIP3    H127466   0.150   2.676   0.670 -0.0124 -2.6919  0.1641
 2017TIP3    H227467   0.263   2.588   0.621  0.5151 -0.8546 -2.0472
 2018TIP3   OH227468   5.174   3.921  17.016  0.4100  0.3836 -0.3089
 2018TIP3    H127469   5.198   4.012  17.002  0.6803  0.2137 -0.9759
 2018TIP3    H227470   5.230   3.892  17.088  1.3384  0.3463 -1.0310
 2019TIP3   OH227471   3.858   0.514   3.837  0.5106  0.0572  0.0782
 2019TIP3    H127472   3.860   0.603   3.871 -3.0268 -0.0221  0.8943
 2019TIP3    H227473   3.870   0.524   3.743 -0.6328  1.5619  0.0524
 2020TIP3   OH227474   6.290   1.075  12.167 -0.1922 -0.7080 -0.7255
 2020TIP3    H127475   6.237   1.132  12.223  0.4435  0.8973 -1.6951
 2020TIP3    H227476   6.234   0.999  12.149 -0.9202 -0.5991  0.9056
 2021TIP3   OH227477   6.339   3.689   5.418  0.1870  0.2631  0.6295
 2021TIP3    H127478   6.400   3.615   5.408  2.2762  1.8430  0.8764
 2021TIP3    H227479   6.328   3.697   5.513  1.0951  1.0733  0.6873
 2022TIP3   OH227480   5.381   3.327   3.826 -0.4577  0.1332 -0.2127
 2022TIP3    H127481   5.300   3.374   3.847 -0.6570  0.4656 -1.6611
 2022TIP3    H227482   5.450   3.381   3.866 -0.9948 -1.2639  2.9369
 2023TIP3   OH227483   5.869   5.597  17.086 -0.8814  0.0098  0.5336
 2023TIP3    H127484   5.932   5.669  17.075  0.8024 -1.0336  2.5785
 2023TIP3    H227485   5.786   5.640  17.105  0.3574  1.5075  3.1254
 2024TIP3   OH227486   6.551   1.090   0.298 -0.3323 -0.4712 -0.1714
 2024TIP3    H127487   6.603   1.154   0.347 -3.1699  4.6956 -2.9925
 2024TIP3    H227488   6.482   1.063   0.359  0.6746 -0.5100  0.9793
 2025TIP3   OH227489   1.847   6.384   0.565 -0.2463 -0.2773  0.8607
 2025TIP3    H127490   1.822   6.303   0.520 -0.1109  0.6777 -1.0450
 2025TIP3    H227491   1.931   6.409   0.526 -0.0150  0.5000  1.8115
 2026TIP3   OH227492   3.891   0.823   6.932 -0.1039 -0.1799  0.0834
 2026TIP3    H127493   3.800   0.854   6.934  0.0990  0.4226  0.5095
 2026TIP3    H227494   3.915   0.825   6.840 -0.9389 -1.6254 -0.1849
 2027TIP3   OH227495   4.565   4.770  14.520  0.4644 -0.2108 -0.1156
 2027TIP3    H127496   4.539   4.724  14.441 -0.0987 -0.3134  0.1181
 2027TIP3    H227497   4.584   4.701  14.583  2.4032 -0.1544 -0.6002
 2028TIP3   OH227498   4.696   6.014  11.515  0.0561 -0.2674  0.3602
 2028TIP3    H127499   4.761   6.072  11.554  1.1606 -0.8556 -0.5274
 2028TIP3    H227500   4.620   6.020  11.572 -0.0328  2.3455  0.0873
 2029TIP3   OH227501   3.502   0.578  12.378 -0.0320 -0.2941 -0.0284
 2029TIP3    H127502   3.438   0.544  12.316 -1.0827  1.3717  0.0710
 2029TIP3    H227503   3.505   0.512  12.448 -0.7540 -0.9680 -0.6094
 2030TIP3   OH227504   6.063   0.272  16.307  0.5464 -0.2028  0.3212
 2030TIP3    H127505   6.094   0.363  16.296 -0.1044 -0.0415 -0.2198
 2030TIP3    H227506   6.061   0.237  16.218  0.0813 -0.5077  0.4513
 2031TIP3   OH227507   2.503   1.079  12.226  0.1060  0.6100 -0.7547
 2031TIP3    H127508   2.434   1.086  12.291  0.4320  0.2706 -0.3713
 2031TIP3    H227509   2.486   1.153  12.166 -0.4978  0.6126 -0.5898
 2032TIP3   OH227510   5.488   2.323  14.289  0.1391 -0.0075  0.1872
 2032TIP3    H127511   5.434   2.399  14.265 -2.0871 -0.9038  2.0381
 2032TIP3    H227512   5.507   2.280  14.205 -2.7473 -0.0858 -0.5265
 2033TIP3   OH227513   1.638   6.660   4.851 -0.0905  0.5825 -0.3963
 2033TIP3    H127514   1.694   6.631   4.779 -1.2490 -1.2694 -0.6552
 2033TIP3    H227515   1.551   6.627   4.827 -0.7240  0.9042  1.3066
 2034TIP3   OH227516   6.420   3.541  16.651 -0.2491  0.4466  0.0350
 2034TIP3    H127517   6.342   3.576  16.608 -0.8664 -0.0242  0.7335
 2034TIP3    H227518   6.407   3.561  16.744 -0.2406 -0.8913  0.3482
 2035TIP3   OH227519   0.774   6.094   5.852 -0.0023 -0.0876 -0.2381
 2035TIP3    H127520   0.808   6.013   5.814 -0.1446  0.0428 -0.6511
 2035TIP3    H227521   0.824   6.163   5.810 -2.0352  0.2460 -2.3597
 2036TIP3   OH227522   4.071   5.751  14.898  0.2366 -0.0130  0.2574
 2036TIP3    H127523   4.045   5.794  14.980 -0.6457  1.3494 -0.6941
 2036TIP3    H227524   4.141   5.691  14.924 -0.6261 -0.2714  2.1382
 2037TIP3   OH227525   1.086   5.042  16.944 -0.1757 -0.0358 -0.3480
 2037TIP3    H127526   1.161   5.016  16.890  1.2300  2.8833 -0.0182
 2037TIP3    H227527   1.043   5.111  16.893 -1.5530 -0.3763  0.3111
 2038TIP3   OH227528   3.576   6.653   0.954 -0.3647  0.0903 -0.7231
 2038TIP3    H127529   3.565   6.572   1.003  0.3326  0.4536  0.0604
 2038TIP3    H227530   3.528   6.639   0.872 -0.9011 -0.8112 -0.2658
 2039TIP3   OH227531   5.578   6.707  12.529 -0.1573 -0.2356  0.8749
 2039TIP3    H127532   5.592   6.679  12.439 -1.2607 -1.7700  1.1409
 2039TIP3    H227533   5.521   6.784  12.522 -0.9797 -0.8940  0.3026
 2040TIP3   OH227534   0.825   3.283   5.664 -0.0949  0.5385 -0.2970
 2040TIP3    H127535   0.828   3.288   5.569  2.2483  1.4275 -0.2387
 2040TIP3    H227536   0.874   3.204   5.686  0.8270  1.2310  0.1944
 2041TIP3   OH227537   2.644   0.752  15.648 -0.3583  0.3419 -0.0999
 2041TIP3    H127538   2.555   0.772  15.617 -0.2857  1.2604  0.2352
 2041TIP3    H227539   2.701   0.790  15.581 -0.2083  1.8715  0.8540
 2042TIP3   OH227540   5.878   2.093  16.286  0.2678 -0.3884 -0.3858
 2042TIP3    H127541   5.894   2.048  16.369  1.3642 -2.1951 -1.5144
 2042TIP3    H227542   5.786   2.120  16.291 -0.0297 -1.5128  0.9157
 2043TIP3   OH227543   5.958   5.744  16.124  0.0925 -0.5768  0.0071
 2043TIP3    H127544   5.962   5.838  16.107  1.1071 -0.7095 -0.5212
 2043TIP3    H227545   6.048   5.719  16.146  0.2019 -1.7387 -1.5723
 2044TIP3   OH227546   4.204   5.138   0.308 -0.5259  0.3792 -0.3586
 2044TIP3    H127547   4.182   5.051   0.342 -0.8786 -0.0174 -1.5394
 2044TIP3    H227548   4.268   5.173   0.370 -0.3865 -0.7232  0.1436
 2045TIP3   OH227549   1.846   0.649  17.002 -0.4638 -0.0878 -0.5796
 2045TIP3    H127550   1.795   0.619  16.927  0.0435 -1.5866 -0.3455
 2045TIP3    H227551   1.788   0.709  17.049 -0.9439  0.5230 -1.9079
 2046TIP3   OH227552   2.770   0.214  12.305  0.0249  0.7329  0.6017
 2046TIP3    H127553   2.736   0.281  12.364  0.8935 -0.0566  2.0746
 2046TIP3    H227554   2.736   0.132  12.341  1.1490  0.1770  0.4261
 2047TIP3   OH227555   1.568   3.243  15.733 -0.4447  0.0270 -0.6954
 2047TIP3    H127556   1.630   3.221  15.802 -1.6968  0.2520  0.5507
 2047TIP3    H227557   1.531   3.327  15.759 -2.7742 -1.0470 -0.2739
 2048TIP3   OH227558   1.551   3.467  14.201  0.2279 -0.3632  0.0836
 2048TIP3    H127559   1.631   3.432  14.162  0.5246 -0.6252  0.8915
 2048TIP3    H227560   1.514   3.393  14.249 -0.3679 -0.1756 -0.0800
 2049TIP3   OH227561   4.286   2.636   5.989  0.2071 -0.3146  0.3291
 2049TIP3    H127562   4.376   2.668   5.981 -0.1590  0.7390  0.2072
 2049TIP3    H227563   4.251   2.681   6.066 -0.5709  0.2145 -0.3090
 2050TIP3   OH227564   3.203   6.201  14.368 -0.1482  0.6676 -0.3396
 2050TIP3    H127565   3.245   6.284  14.391  0.6270  0.6579 -1.6226
 2050TIP3    H227566   3.133   6.191  14.433  0.8689  1.4239  0.9299
 2051TIP3   OH227567   1.762   4.679   0.098  0.6377  0.1087  0.1391
 2051TIP3    H127568   1.672   4.691   0.068  0.4651  0.4178  0.7448
 2051TIP3    H227569   1.812   4.663   0.019  0.0814  0.1487 -0.2290
 2052TIP3   OH227570   5.871   1.304  17.148 -0.0820 -0.1490 -0.3793
 2052TIP3    H127571   5.871   1.334  17.057  1.5658 -2.3596 -1.2025
 2052TIP3    H227572   5.857   1.384  17.200  0.2863  1.3726 -2.4962
 2053TIP3   OH227573   6.447   3.256   1.314  0.4145  0.8378  0.0325
 2053TIP3    H127574   6.539   3.246   1.336  0.5143  0.0614 -0.6717
 2053TIP3    H227575   6.403   3.182   1.357 -0.0100  1.6359  1.0117
 2054TIP3   OH227576   3.523   4.476   6.068  0.0962 -0.1447  0.3790
 2054TIP3    H127577   3.483   4.389   6.062  0.2882 -0.2290  0.3107
 2054TIP3    H227578   3.564   4.477   6.155 -1.2120  0.4393  1.0171
 2055TIP3   OH227579   2.014   3.664  12.283 -0.2111 -0.0982  0.0845
 2055TIP3    H127580   1.954   3.734  12.256 -0.0664  0.3249  0.8375
 2055TIP3    H227581   2.098   3.689  12.245 -0.5424 -0.8199 -1.1829
 2056TIP3   OH227582   1.849   4.865  11.235  0.2215 -0.7417  0.0199
 2056TIP3    H127583   1.791   4.854  11.160  0.0944 -0.3226  0.0574
 2056TIP3    H227584   1.808   4.814  11.305 -0.1238 -0.4005  0.0611
 2057TIP3   OH227585   3.441   1.783   5.091  0.1154  0.1228 -0.1341
 2057TIP3    H127586   3.527   1.779   5.133  1.3966  0.8478 -2.4805
 2057TIP3    H227587   3.394   1.852   5.138  2.3875  2.6355 -1.2664
 2058TIP3   OH227588   4.724   2.634  15.558 -0.1334 -0.0724 -0.0706
 2058TIP3    H127589   4.775   2.714  15.560  1.0790 -0.8248  1.0692
 2058TIP3    H227590   4.643   2.658  15.514  1.1505  1.1746 -1.8746
 2059TIP3   OH227591   0.020   2.929   3.069  0.0145  0.8268  0.2615
 2059TIP3    H127592   0.080   2.880   3.014  0.8768  2.0606  0.0594
 2059TIP3    H227593   0.004   2.872   3.145  0.1864 -0.1580 -0.4229
 2060TIP3   OH227594   2.642   3.592   4.194 -0.1532  0.2045 -0.6931
 2060TIP3    H127595   2.599   3.670   4.228 -2.2134 -0.8150 -0.8010
 2060TIP3    H227596   2.720   3.582   4.247 -1.2480  0.8747  1.1155
 2061TIP3   OH227597   1.119   1.325  16.277 -0.1563 -0.4530 -0.4335
 2061TIP3    H127598   1.211   1.306  16.260 -0.3251 -0.9231 -0.8315
 2061TIP3    H227599   1.117   1.355  16.368 -0.0724 -3.7824  0.7822
 2062TIP3   OH227600   6.131   2.420  13.173  0.4363  0.2672  0.4277
 2062TIP3    H127601   6.214   2.413  13.126  0.9338  2.5127  0.8526
 2062TIP3    H227602   6.117   2.515  13.184 -2.2952 -0.0039  0.1795
 2063TIP3   OH227603   6.676   2.235  15.369 -0.0606 -0.5725  0.1042
 2063TIP3    H127604   6.612   2.295  15.330  0.0870 -0.7193 -0.3663
 2063TIP3    H227605   6.718   2.192  15.295 -0.5921 -1.7123  0.4428
 2064TIP3   OH227606   4.935   1.645  16.664 -0.0489 -0.8065 -0.3442
 2064TIP3    H127607   4.932   1.582  16.737  2.5330 -0.9417 -0.2873
 2064TIP3    H227608   5.025   1.677  16.663 -0.5680  0.7705 -2.1954
 2065TIP3   OH227609   4.719   6.478   4.299 -0.4325  0.1439  0.3486
 2065TIP3    H127610   4.628   6.471   4.330  0.2095  1.7241  2.8434
 2065TIP3    H227611   4.768   6.418   4.354 -0.1252 -2.2187 -2.2934
 2066TIP3   OH227612   6.236   6.100  15.791 -0.9186  0.3234 -0.1922
 2066TIP3    H127613   6.266   6.131  15.706  0.2894 -0.0046  0.0982
 2066TIP3    H227614   6.287   6.151  15.855 -0.5110 -0.6790  0.3084
 2067TIP3   OH227615   5.522   6.465  13.051 -0.1687 -0.3509  0.1658
 2067TIP3    H127616   5.479   6.550  13.054 -2.0978 -1.2836  0.3203
 2067TIP3    H227617   5.561   6.461  12.964 -0.4263  0.5189  0.0010
 2068TIP3   OH227618   6.146   1.892  10.943 -0.0725 -0.1732  0.0280
 2068TIP3    H127619   6.161   1.802  10.974  1.7260 -0.6114 -1.9197
 2068TIP3    H227620   6.203   1.946  10.997  0.6565 -0.5202 -0.3876
 2069TIP3   OH227621   0.380   0.970  12.325 -0.4277  0.0187 -0.4269
 2069TIP3    H127622   0.444   0.958  12.254 -0.1080 -1.8446  0.1063
 2069TIP3    H227623   0.296   0.974  12.281 -0.1652 -0.3654 -0.9835
 2070TIP3   OH227624   3.475   4.033  11.095 -0.2252  0.2621  0.3358
 2070TIP3    H127625   3.393   4.040  11.047 -0.7190  0.7714  1.2139
 2070TIP3    H227626   3.494   3.939  11.098 -0.5880  0.1701 -0.1875
 2071TIP3   OH227627   0.773   3.322  16.150  0.0307  0.6967 -0.8062
 2071TIP3    H127628   0.787   3.336  16.243 -1.1387  1.3804 -0.7219
 2071TIP3    H227629   0.797   3.406  16.109 -0.0967  0.6161 -1.0480
 2072TIP3   OH227630   0.250   6.091  10.920 -0.7524  1.0103  0.4301
 2072TIP3    H127631   0.231   6.182  10.942 -0.7625  0.6722  1.8692
 2072TIP3    H227632   0.174   6.062  10.870 -0.9887  1.6247  0.4275
 2073TIP3   OH227633   1.940   0.339  11.504  0.2864  0.4685  0.3345
 2073TIP3    H127634   1.903   0.319  11.418  0.0387 -3.1767  1.1239
 2073TIP3    H227635   2.034   0.328  11.493  0.2743  0.2274  0.4569
 2074TIP3   OH227636   3.459   3.534   1.006  0.7079 -0.0548 -0.2432
 2074TIP3    H127637   3.549   3.511   0.986  0.7855 -1.1444  1.2147
 2074TIP3    H227638   3.465   3.597   1.078  0.3232  0.6730 -0.8322
 2075TIP3   OH227639   4.670   5.674  12.408 -0.6416 -0.0325 -0.2869
 2075TIP3    H127640   4.638   5.587  12.386  0.5631 -0.4769 -0.3655
 2075TIP3    H227641   4.591   5.728  12.415 -1.2808 -0.5039 -2.8380
 2076TIP3   OH227642   5.677   4.384  12.801  0.2120  0.1177 -0.1878
 2076TIP3    H127643   5.662   4.471  12.763  0.2169 -0.1764 -0.8741
 2076TIP3    H227644   5.699   4.328  12.726  2.9866  0.1148  0.4908
 2077TIP3   OH227645   6.232   2.175  13.392 -0.8401  0.1409  0.2217
 2077TIP3    H127646   6.195   2.193  13.479  1.2156  0.2108  1.1254
 2077TIP3    H227647   6.241   2.261  13.352 -0.9942  0.1842  0.2788
 2078TIP3   OH227648   1.840   3.989  15.733 -0.1836  0.2688 -0.0764
 2078TIP3    H127649   1.804   4.076  15.748 -1.1208  0.0461 -0.8918
 2078TIP3    H227650   1.763   3.932  15.724  0.3790 -0.3946 -0.8833
 2079TIP3   OH227651   5.472   4.162   1.822  0.3225  0.0820  0.3557
 2079TIP3    H127652   5.432   4.233   1.772 -0.2276 -1.9172 -2.2549
 2079TIP3    H227653   5.413   4.150   1.897 -0.9938  0.7362 -0.5236
 2080TIP3   OH227654   4.580   3.475   2.968 -0.2397  0.1729  0.1428
 2080TIP3    H127655   4.637   3.545   3.001  2.4490 -1.8111  0.1043
 2080TIP3    H227656   4.542   3.437   3.047 -0.8391  0.9667  0.2450
 2081TIP3   OH227657   5.885   3.058   1.739  0.3600  0.9165  0.5368
 2081TIP3    H127658   5.890   2.962   1.743  0.4538  0.8866 -0.2307
 2081TIP3    H227659   5.952   3.088   1.799  1.6534  0.5003 -0.6509
 2082TIP3   OH227660   4.975   1.193   4.268 -0.3517  0.2788 -0.2081
 2082TIP3    H127661   4.942   1.131   4.202  1.1344 -2.5000  1.4809
 2082TIP3    H227662   5.012   1.138   4.336  1.9313  3.0981  1.0247
 2083TIP3   OH227663   4.370   1.819  11.033 -0.5076 -0.2342  0.1775
 2083TIP3    H127664   4.429   1.878  10.986 -2.4244  1.4068 -0.3351
 2083TIP3    H227665   4.348   1.752  10.968  0.2699 -0.4872  0.1673
 2084TIP3   OH227666   1.758   4.093   2.501 -0.0427 -0.1410 -0.1623
 2084TIP3    H127667   1.669   4.111   2.469  0.2608  1.1083 -0.3442
 2084TIP3    H227668   1.815   4.138   2.440  0.8608 -2.3842 -1.0864
 2085TIP3   OH227669   2.971   1.021   4.823  0.5209  0.3697  0.4342
 2085TIP3    H127670   3.033   0.984   4.760  1.1990  0.1017  1.2568
 2085TIP3    H227671   2.937   0.946   4.871 -0.4442  0.5134  0.0175
 2086TIP3   OH227672   0.641   4.781  12.174  0.3002 -0.3150 -0.8258
 2086TIP3    H127673   0.728   4.805  12.146  0.6953 -1.8219 -0.9792
 2086TIP3    H227674   0.653   4.700  12.223 -0.5414  1.3051  2.3749
 2087TIP3   OH227675   3.159   3.715  14.820  0.7782  0.1500  0.0957
 2087TIP3    H127676   3.206   3.702  14.737 -1.6764  0.6883 -1.5041
 2087TIP3    H227677   3.200   3.792  14.859  0.6822  1.1824 -1.7200
 2088TIP3   OH227678   5.805   0.190  15.284 -0.1030  0.4274 -0.3250
 2088TIP3    H127679   5.726   0.164  15.332 -0.9345 -1.9228 -2.7057
 2088TIP3    H227680   5.785   0.276  15.249 -1.6324 -0.1091 -0.8433
 2089TIP3   OH227681   1.168   4.876   1.396 -0.7194  0.2092 -0.4440
 2089TIP3    H127682   1.092   4.847   1.445 -0.8751 -1.6253 -1.7031
 2089TIP3    H227683   1.138   4.954   1.349 -1.3290  0.4201  0.2732
 2090TIP3   OH227684   0.070   4.425  16.122 -0.2276 -0.5212 -0.1004
 2090TIP3    H127685   0.017   4.505  16.122 -0.3963 -0.6311 -0.3776
 2090TIP3    H227686   0.142   4.445  16.062 -0.4345 -0.6824 -0.4059
 2091TIP3   OH227687   5.670   5.560   1.310  0.1363 -0.0969  0.1668
 2091TIP3    H127688   5.591   5.543   1.362  0.2218  1.1838  0.7426
 2091TIP3    H227689   5.742   5.529   1.365  0.0951 -0.5248 -0.0178
 2092TIP3   OH227690   5.294   4.609  12.585 -0.1601 -0.4234  0.2334
 2092TIP3    H127691   5.260   4.545  12.522  1.4163  0.3351 -1.4931
 2092TIP3    H227692   5.304   4.560  12.667 -2.6328 -1.3488  0.0670
 2093TIP3   OH227693   2.474   2.815  16.416  0.1046  0.3503  0.3891
 2093TIP3    H127694   2.550   2.870  16.431  0.0443  0.3240  0.8036
 2093TIP3    H227695   2.407   2.851  16.474 -0.4686  0.9115 -0.5938
 2094TIP3   OH227696   2.775   1.645   4.289  0.2077  0.4282 -0.3737
 2094TIP3    H127697   2.828   1.723   4.277  1.4738 -0.2412  0.5738
 2094TIP3    H227698   2.711   1.669   4.356  1.8930  0.1065  1.4432
 2095TIP3   OH227699   4.242   2.063   0.556 -0.1539 -0.4423  0.0328
 2095TIP3    H127700   4.286   2.146   0.536 -1.6206 -0.0066 -1.6163
 2095TIP3    H227701   4.289   2.029   0.632  1.2812  1.2869 -0.0124
 2096TIP3   OH227702   2.455   3.898  13.452  0.3909  0.0292 -1.3205
 2096TIP3    H127703   2.450   3.976  13.397  0.4846  0.4608 -0.7246
 2096TIP3    H227704   2.455   3.825  13.390 -0.3271  0.4742 -1.8537
 2097TIP3   OH227705   6.468   6.740  12.752  0.6948 -0.1779  0.4004
 2097TIP3    H127706   6.397   6.783  12.799  0.7439 -0.6963  0.9646
 2097TIP3    H227707   6.430   6.714  12.668  0.8828  1.6898 -0.3350
 2098TIP3   OH227708   5.461   4.241  10.681 -0.1378  0.5756 -0.6048
 2098TIP3    H127709   5.429   4.153  10.699  1.2781  0.2009  0.2775
 2098TIP3    H227710   5.385   4.298  10.694 -0.6959 -0.3561  0.3752
 2099TIP3   OH227711   0.462   6.494  15.705 -0.4898  0.1555 -0.5673
 2099TIP3    H127712   0.392   6.558  15.712 -2.1692 -1.5883 -0.6064
 2099TIP3    H227713   0.533   6.541  15.661 -0.8107  2.5874  1.3146
 2100TIP3   OH227714   0.253   3.785  17.377  0.0640  0.4689 -0.1654
 2100TIP3    H127715   0.269   3.877  17.359 -0.5797  0.6252  0.0400
 2100TIP3    H227716   0.337   3.752  17.409  0.3012  0.9791 -0.2556
 2101TIP3   OH227717   6.656   0.452   6.008 -0.9705 -0.1342  0.4384
 2101TIP3    H127718   6.729   0.396   6.036 -1.0933 -0.2033  0.6216
 2101TIP3    H227719   6.581   0.419   6.057 -1.0855  0.0590  0.3906
 2102TIP3   OH227720   2.845   0.431  12.498  0.4413  0.0897  0.7100
 2102TIP3    H127721   2.925   0.483  12.488 -0.6236  1.6871  0.1881
 2102TIP3    H227722   2.781   0.475  12.443  0.2062 -3.4415 -2.2597
 2103TIP3   OH227723   0.944   3.779  11.704  0.0266  0.8088  0.0984
 2103TIP3    H127724   0.990   3.738  11.631 -0.7285  0.0705  0.0234
 2103TIP3    H227725   0.896   3.852  11.664 -1.3311 -0.3112 -0.3674
 2104TIP3   OH227726   3.472   4.152  16.087  0.6365 -0.1655 -0.0492
 2104TIP3    H127727   3.558   4.183  16.059  0.1019 -0.0179 -1.5737
 2104TIP3    H227728   3.491   4.103  16.168  2.5064 -2.1813 -1.5842
 2105TIP3   OH227729   1.958   3.537  13.031  0.1176  0.0956 -0.0059
 2105TIP3    H127730   1.944   3.618  13.080 -1.5173 -0.8163  1.0980
 2105TIP3    H227731   1.978   3.567  12.942  1.4472  1.7361  0.7825
 2106TIP3   OH227732   5.258   2.678  16.095  0.0514  0.7474  0.2967
 2106TIP3    H127733   5.237   2.771  16.099  0.3292  0.8685 -0.7822
 2106TIP3    H227734   5.312   2.669  16.017  1.0120 -0.1359  1.0369
 2107TIP3   OH227735   3.291   0.961  16.712  0.1260  0.0668  0.3728
 2107TIP3    H127736   3.312   0.884  16.766 -0.9961  0.5631  1.5671
 2107TIP3    H227737   3.311   0.933  16.622  0.9265 -1.1851  0.9102
 2108TIP3   OH227738   3.979   4.663  14.441 -0.2433  0.3685 -0.3528
 2108TIP3    H127739   4.051   4.670  14.379 -0.5773 -3.6724 -1.4684
 2108TIP3    H227740   4.005   4.593  14.501 -1.8788  1.0511  1.2551
 2109TIP3   OH227741   4.697   5.003  15.189  0.0008 -0.0304  0.0118
 2109TIP3    H127742   4.718   5.002  15.096  1.9071  0.0736  0.3982
 2109TIP3    H227743   4.758   5.067  15.227 -0.0161 -0.8339  1.4752
 2110TIP3   OH227744   0.498   2.725  14.475  0.2996  0.1221 -0.0836
 2110TIP3    H127745   0.430   2.674  14.519  0.1262 -1.1442 -1.7331
 2110TIP3    H227746   0.490   2.813  14.514 -1.0240 -0.4603  1.0776
 2111TIP3   OH227747   6.270   5.683   0.730 -0.2700  0.4591 -0.1308
 2111TIP3    H127748   6.290   5.751   0.665  1.1234 -0.4049 -0.6519
 2111TIP3    H227749   6.314   5.712   0.810  1.1831 -0.2827 -0.6289
 2112TIP3   OH227750   3.557   2.653   1.110  0.3080  0.0389  0.4554
 2112TIP3    H127751   3.597   2.696   1.185 -1.8501 -1.0483  2.3839
 2112TIP3    H227752   3.622   2.588   1.081  1.4130  0.8967  0.9483
 2113TIP3   OH227753   4.886   2.176  15.932  0.2223 -0.3555 -0.0177
 2113TIP3    H127754   4.898   2.266  15.902 -0.1425 -0.4802 -0.5429
 2113TIP3    H227755   4.928   2.122  15.865  0.6669 -0.5739  0.4216
 2114TIP3   OH227756   1.172   1.462  15.071  0.5330  0.1924  0.1091
 2114TIP3    H127757   1.121   1.458  15.152 -0.8301  1.7738 -0.5975
 2114TIP3    H227758   1.255   1.500  15.097 -0.5311  2.3702  0.5699
 2115TIP3   OH227759   4.725   0.357   3.232 -0.1540 -0.0025 -0.0545
 2115TIP3    H127760   4.642   0.310   3.241  0.7828 -1.5136  1.2166
 2115TIP3    H227761   4.714   0.436   3.285 -0.8507 -0.1011 -0.0481
 2116TIP3   OH227762   2.033   1.390  17.368  0.1116  0.5203  0.6085
 2116TIP3    H127763   1.944   1.409  17.337 -0.1254  0.5293  1.2830
 2116TIP3    H227764   2.025   1.388  17.463  0.4389 -1.4376  0.6205
 2117TIP3   OH227765   0.403   6.395  16.472 -0.0597 -0.4104 -0.2145
 2117TIP3    H127766   0.324   6.446  16.452 -0.9304 -1.8001 -0.4629
 2117TIP3    H227767   0.475   6.446  16.435 -0.4052  2.3995  2.5179
 2118TIP3   OH227768   6.585   0.347  11.717  0.2314 -0.1499 -0.3114
 2118TIP3    H127769   6.639   0.423  11.740 -0.0123  0.2106 -0.9349
 2118TIP3    H227770   6.564   0.307  11.802  1.1130 -0.0481 -0.0338
 2119TIP3   OH227771   5.930   0.007   0.620  0.3791  0.1307 -0.3716
 2119TIP3    H127772   6.006  -0.034   0.662 -0.2733 -0.5809  0.1641
 2119TIP3    H227773   5.884  -0.066   0.580 -0.1222  0.5312 -0.5287
 2120TIP3   OH227774   2.833   0.653   6.497 -0.2190 -0.2991  0.0799
 2120TIP3    H127775   2.837   0.572   6.546 -0.0721 -0.3719 -0.0501
 2120TIP3    H227776   2.888   0.637   6.420 -2.1146 -0.9507 -1.2324
 2121TIP3   OH227777   2.952   2.403  14.666 -0.0326  0.2946  0.4506
 2121TIP3    H127778   2.993   2.376  14.584  1.2724 -0.5954  1.3596
 2121TIP3    H227779   2.873   2.349  14.672 -0.0807  0.2914 -0.1633
 2122TIP3   OH227780   6.025   3.118  16.585  0.2811 -0.1907  0.1604
 2122TIP3    H127781   6.065   3.072  16.659 -1.5505  1.5136  2.3515
 2122TIP3    H227782   6.075   3.199  16.577 -0.5563  0.3919  0.6758
 2123TIP3   OH227783   4.657   4.586  15.756 -0.2485  0.1006 -0.5447
 2123TIP3    H127784   4.613   4.669  15.775  1.1881  0.5921  0.8160
 2123TIP3    H227785   4.693   4.598  15.668  1.8059  1.8307  0.4403
 2124TIP3   OH227786   3.485   4.682   2.580  0.0377  0.1989  0.5997
 2124TIP3    H127787   3.408   4.666   2.635 -0.4139  0.2092 -0.0228
 2124TIP3    H227788   3.491   4.604   2.525  0.2647  0.3545  0.4058
 2125TIP3   OH227789   6.634   4.517   1.117  0.0847  0.3315  0.1588
 2125TIP3    H127790   6.679   4.433   1.108 -0.6219 -0.0452  0.0127
 2125TIP3    H227791   6.691   4.569   1.173  0.0990 -0.5819  1.0399
 2126TIP3   OH227792   1.948   6.415   6.759  0.1742 -0.2867 -0.1468
 2126TIP3    H127793   1.887   6.482   6.788  1.1344  0.4831  0.1238
 2126TIP3    H227794   2.016   6.462   6.712  0.2826 -1.1952 -0.9389
 2127TIP3   OH227795   1.884   6.570  15.707 -0.0855  0.1566  0.3646
 2127TIP3    H127796   1.936   6.495  15.678 -0.5312  0.4647 -1.3355
 2127TIP3    H227797   1.942   6.618  15.766  1.8489  0.7779 -1.8692
 2128TIP3   OH227798   4.842   4.173   5.574  0.0018 -0.0476  0.4251
 2128TIP3    H127799   4.791   4.140   5.500 -0.6680  0.8343  0.4803
 2128TIP3    H227800   4.847   4.099   5.635  1.1350 -1.0055 -0.7620
 2129TIP3   OH227801   4.693   1.034  12.178  0.0661 -0.6871  0.1106
 2129TIP3    H127802   4.696   1.105  12.242  0.1295  1.6173 -2.3011
 2129TIP3    H227803   4.605   0.996  12.188 -0.3911  0.4817  0.6791
 2130TIP3   OH227804   6.400   5.077   1.478  0.0294 -0.0885  0.4480
 2130TIP3    H127805   6.307   5.071   1.497  0.1702 -1.9030  0.8146
 2130TIP3    H227806   6.405   5.123   1.394 -1.1933 -0.0297  0.3908
 2131TIP3   OH227807   5.893   1.232   1.402  0.7768  0.2927  0.0104
 2131TIP3    H127808   5.809   1.253   1.362 -0.3431 -1.6811  1.1565
 2131TIP3    H227809   5.946   1.199   1.330  0.3439  0.8999 -0.6025
 2132TIP3   OH227810   6.236   1.188  14.020 -0.5742 -0.0731  0.1339
 2132TIP3    H127811   6.186   1.119  14.064 -1.5769 -1.1716 -2.5470
 2132TIP3    H227812   6.174   1.262  14.014 -0.4537  0.0589  0.4690
 2133TIP3   OH227813   4.867   0.564   5.724 -0.3693  0.3343  0.3237
 2133TIP3    H127814   4.921   0.556   5.803 -1.4297 -0.3795  1.0094
 2133TIP3    H227815   4.779   0.542   5.754 -0.4982 -1.9433 -1.4239
 2134TIP3   OH227816   0.217   6.670  14.613 -0.0800 -0.3800  0.0813
 2134TIP3    H127817   0.161   6.739  14.578 -0.2909 -0.7990 -0.4365
 2134TIP3    H227818   0.306   6.699  14.594 -0.0420  0.7758  1.8187
 2135TIP3   OH227819   1.297   3.617   2.232 -0.1823 -0.1090  0.1486
 2135TIP3    H127820   1.309   3.710   2.252  2.6391 -0.9549  3.4601
 2135TIP3    H227821   1.340   3.606   2.147 -0.0411  1.5283 -0.0412
 2136TIP3   OH227822   5.559   4.325   4.089  0.1538 -0.3807  0.0313
 2136TIP3    H127823   5.583   4.410   4.125 -2.3000 -0.0834  1.1535
 2136TIP3    H227824   5.476   4.303   4.131  0.1112 -2.7974 -1.1146
 2137TIP3   OH227825   5.231   6.281   4.307  0.2104 -0.0644  0.0670
 2137TIP3    H127826   5.236   6.268   4.402 -0.4680  0.3178  0.1583
 2137TIP3    H227827   5.187   6.203   4.274  1.3173 -0.6622 -0.0612
 2138TIP3   OH227828   6.689   6.181   1.297  0.0089 -0.5660 -0.4934
 2138TIP3    H127829   6.743   6.251   1.260  0.1378 -0.8730 -0.8972
 2138TIP3    H227830   6.712   6.180   1.390 -0.3827  0.2692 -0.3852
 2139TIP3   OH227831   4.321   1.337  15.203  0.5670 -0.0312  0.3947
 2139TIP3    H127832   4.274   1.288  15.135  1.0258 -0.7629  0.5843
 2139TIP3    H227833   4.315   1.281  15.281  1.7185 -0.1451  0.4256
 2140TIP3   OH227834   4.999   2.645  15.310  0.1672  0.3127 -0.7660
 2140TIP3    H127835   4.910   2.639  15.344  0.3843  1.2743  0.0178
 2140TIP3    H227836   5.033   2.556  15.316 -0.2718  0.1951  0.2489
 2141TIP3   OH227837   2.679   6.133  13.674 -0.3162  0.4541 -0.6024
 2141TIP3    H127838   2.690   6.055  13.619  2.3174  0.8927 -0.8119
 2141TIP3    H227839   2.677   6.100  13.764  4.3432  0.2008 -0.3849
 2142TIP3   OH227840   1.129   0.771  15.334  0.1950 -0.2378  0.5614
 2142TIP3    H127841   1.120   0.866  15.341  0.7473 -0.0866 -0.5236
 2142TIP3    H227842   1.084   0.749  15.252 -0.2319 -0.9657  0.9819
 2143TIP3   OH227843   1.308   0.333   1.424  0.1718  0.2993 -0.0717
 2143TIP3    H127844   1.401   0.343   1.408  0.1636 -0.3564 -0.5829
 2143TIP3    H227845   1.277   0.277   1.353 -0.5653  0.3124  0.2242
 2144TIP3   OH227846   2.212   4.362  12.554  0.4260  0.4937  0.4334
 2144TIP3    H127847   2.228   4.328  12.466  0.6019  0.1367  0.6002
 2144TIP3    H227848   2.260   4.302  12.612 -0.6119  0.0499  0.8619
 2145TIP3   OH227849   1.941   0.919   5.223 -0.1520  0.8242  0.4858
 2145TIP3    H127850   1.941   0.885   5.134 -0.2569 -1.2065  1.2116
 2145TIP3    H227851   1.849   0.918   5.250  0.1727 -2.4754  1.9282
 2146TIP3   OH227852   0.725   5.008   0.005  0.1355  0.3272 -0.9658
 2146TIP3    H127853   0.687   5.028   0.091  2.0105  1.0964 -0.2604
 2146TIP3    H227854   0.731   5.092  -0.039 -2.1043 -0.2304 -2.4856
 2147TIP3   OH227855   5.889   0.996   0.587 -0.2994  0.0005  0.0591
 2147TIP3    H127856   5.874   1.058   0.658  1.1963  1.3636 -0.7653
 2147TIP3    H227857   5.866   1.044   0.508  0.1454 -0.7600 -0.5473
 2148TIP3   OH227858   5.637   4.358   3.564 -0.5898  0.2856  0.2068
 2148TIP3    H127859   5.595   4.362   3.650  0.7128  2.4574  0.8045
 2148TIP3    H227860   5.712   4.417   3.571 -0.9785  1.2739 -2.7006
 2149TIP3   OH227861   5.566   4.914   4.896 -0.4722  0.0759 -0.1069
 2149TIP3    H127862   5.657   4.914   4.926  0.4578  1.8652 -2.5411
 2149TIP3    H227863   5.540   4.822   4.898  0.8927 -0.3277  1.9211
 2150TIP3   OH227864   2.515   1.997   4.354  0.3894 -0.0450 -0.4121
 2150TIP3    H127865   2.608   2.018   4.341  0.2198  0.9454 -0.1061
 2150TIP3    H227866   2.473   2.027   4.273  0.4736 -1.4952 -1.0152
 2151TIP3   OH227867   0.192   3.643  12.806  0.1877 -0.0564 -0.1281
 2151TIP3    H127868   0.187   3.663  12.899  1.5299  0.4560 -0.1368
 2151TIP3    H227869   0.102   3.650  12.774 -0.3471 -0.6283  1.1929
 2152TIP3   OH227870   1.121   6.172   0.015  0.2146  0.2612  0.1821
 2152TIP3    H127871   1.076   6.137   0.092  1.9063 -0.3100  0.9383
 2152TIP3    H227872   1.214   6.170   0.037  0.7916 -0.3229 -2.0379
 2153TIP3   OH227873   4.846   6.507   0.582 -0.2139  0.3484 -0.7487
 2153TIP3    H127874   4.850   6.417   0.614  0.7503 -0.2537 -2.4346
 2153TIP3    H227875   4.834   6.560   0.661 -1.9414 -1.3093  0.1815
 2154TIP3   OH227876   3.108   4.217  13.506 -0.2675 -0.1234  0.5055
 2154TIP3    H127877   3.091   4.133  13.462 -0.2496  0.1334  0.0027
 2154TIP3    H227878   3.039   4.275  13.474  0.9977  0.6804 -0.8576
 2155TIP3   OH227879   1.401   6.191  11.439  0.2950 -0.6177  0.1289
 2155TIP3    H127880   1.474   6.240  11.402  1.0834 -1.3829  0.6545
 2155TIP3    H227881   1.384   6.121  11.375 -0.3271 -0.1470 -0.2410
 2156TIP3   OH227882   5.893   5.435  13.637 -0.1571  0.0970  0.1612
 2156TIP3    H127883   5.962   5.384  13.594 -0.3802  0.4539 -0.6438
 2156TIP3    H227884   5.922   5.443  13.728  0.2713 -0.7783  0.1161
 2157TIP3   OH227885   4.117   0.780  13.938  0.2607  0.4300 -0.1457
 2157TIP3    H127886   4.207   0.801  13.911 -0.0219  2.0071  0.0782
 2157TIP3    H227887   4.062   0.831  13.879 -0.4753  0.0725  0.2247
 2158TIP3   OH227888   1.179   2.186  17.164  0.5425 -0.1304  0.3841
 2158TIP3    H127889   1.146   2.119  17.223  0.1515 -0.3068 -0.0302
 2158TIP3    H227890   1.125   2.177  17.085  0.8225  0.3359  0.1374
 2159TIP3   OH227891   3.032   2.735   5.631 -0.2761  0.6009  0.2874
 2159TIP3    H127892   3.039   2.663   5.569  0.1128  0.1379  0.8584
 2159TIP3    H227893   3.120   2.744   5.668 -0.2960  1.4227  0.1666
 2160TIP3   OH227894   6.749   5.001   0.729  0.5375 -0.2911  0.1753
 2160TIP3    H127895   6.686   5.018   0.659 -0.7080  0.5488  1.4261
 2160TIP3    H227896   6.768   4.908   0.722 -1.4987 -0.7569  0.2336
 2161TIP3   OH227897   4.094   5.911  11.959 -0.6153 -0.1008  0.3548
 2161TIP3    H127898   4.125   5.822  11.947 -0.1305  0.3033 -1.8202
 2161TIP3    H227899   4.167   5.956  12.002  0.2753 -0.1468 -1.0190
 2162TIP3   OH227900   0.133   3.118  17.194 -0.1545  0.4960 -0.4205
 2162TIP3    H127901   0.132   3.024  17.212 -0.2220  0.8433  1.5947
 2162TIP3    H227902   0.185   3.126  17.114 -0.1380 -1.2403 -0.6334
 2163TIP3   OH227903   3.294   6.458  14.457 -0.3277  0.1746  0.5988
 2163TIP3    H127904   3.294   6.435  14.550 -0.5118  0.5223  0.6846
 2163TIP3    H227905   3.356   6.530  14.451  0.3808 -0.4441  0.3011
 2164TIP3   OH227906   5.305   4.998   4.799 -0.4683  0.2063  0.5685
 2164TIP3    H127907   5.307   5.094   4.796  0.9170  0.1716 -1.2055
 2164TIP3    H227908   5.396   4.973   4.816 -0.1063 -0.8107 -2.3297
 2165TIP3   OH227909   3.414   0.898   3.005 -0.3226  0.0563 -0.1063
 2165TIP3    H127910   3.486   0.945   2.965 -0.1726 -0.1793 -0.1163
 2165TIP3    H227911   3.343   0.962   3.009 -0.8791 -0.3373 -2.2418
 2166TIP3   OH227912   1.069   1.590   3.775 -0.2577  0.2256  0.2617
 2166TIP3    H127913   1.092   1.567   3.865 -2.5942 -0.2286  0.8105
 2166TIP3    H227914   1.128   1.661   3.752  1.3194 -0.5706  1.6407
 2167TIP3   OH227915   5.764   0.458  17.205  0.1382 -0.2978 -0.3929
 2167TIP3    H127916   5.858   0.465  17.189 -0.0490 -0.3780 -1.6384
 2167TIP3    H227917   5.753   0.486  17.296  1.4982 -1.4427  0.1628
 2168TIP3   OH227918   2.258   3.881   5.882 -0.7129 -0.3492 -0.3281
 2168TIP3    H127919   2.278   3.912   5.970 -1.5710 -2.7841  0.8124
 2168TIP3    H227920   2.170   3.914   5.864 -0.1387  1.0312 -0.7614
 2169TIP3   OH227921   5.347   4.471   5.359  0.9579  0.7062  0.1468
 2169TIP3    H127922   5.395   4.421   5.426 -0.9089 -0.6365  0.5675
 2169TIP3    H227923   5.297   4.535   5.409 -0.7268 -0.5406  0.1277
 2170TIP3   OH227924   5.624   4.277  14.639 -0.0084  0.3061  0.4423
 2170TIP3    H127925   5.614   4.216  14.565 -0.6814  2.2898 -1.1841
 2170TIP3    H227926   5.618   4.221  14.716  1.1303 -1.9303 -0.9662
 2171TIP3   OH227927   6.250   1.305   5.205 -0.0562  0.4047  0.1116
 2171TIP3    H127928   6.314   1.296   5.134  0.4744  0.4203  0.5799
 2171TIP3    H227929   6.301   1.335   5.280 -0.6279  0.4867  0.4763
 2172TIP3   OH227930   1.561   3.705  14.895  0.5006 -0.4140 -0.3287
 2172TIP3    H127931   1.627   3.774  14.899 -0.6115  0.6430  0.2795
 2172TIP3    H227932   1.517   3.719  14.811 -0.9123  0.7727  0.5732
 2173TIP3   OH227933   6.152   2.858  15.507  0.5365 -0.2660 -0.0862
 2173TIP3    H127934   6.081   2.836  15.567  0.7686  0.2975  0.4096
 2173TIP3    H227935   6.176   2.948  15.530  1.2060 -0.3423 -0.4509
 2174TIP3   OH227936   1.295   3.418  11.276  0.1992  0.1780 -0.0625
 2174TIP3    H127937   1.310   3.499  11.326  2.4219  0.7069 -1.4481
 2174TIP3    H227938   1.327   3.438  11.188 -3.2288 -0.8469 -1.7060
 2175TIP3   OH227939   3.591   4.229   1.672  0.3284 -0.5421 -0.3222
 2175TIP3    H127940   3.597   4.170   1.597  0.4679 -0.1691 -0.6068
 2175TIP3    H227941   3.649   4.190   1.738 -1.2849 -1.9641  0.3562
 2176TIP3   OH227942   2.967   4.047  16.302  0.1015  0.9631  0.4671
 2176TIP3    H127943   2.933   4.057  16.213 -2.4798  0.3195  1.2704
 2176TIP3    H227944   3.052   4.006  16.292 -0.4517  0.2233 -1.6771
 2177TIP3   OH227945   6.022   1.145   0.329 -0.1122  0.4201 -0.1730
 2177TIP3    H127946   6.037   1.226   0.377 -2.5576  0.1874  1.1954
 2177TIP3    H227947   5.937   1.158   0.287 -1.4152 -1.9482  1.4667
 2178TIP3   OH227948   2.815   6.697   4.491 -0.3123  0.5610 -0.1422
 2178TIP3    H127949   2.747   6.713   4.556  0.1298 -0.0807  0.5078
 2178TIP3    H227950   2.811   6.603   4.475  0.4143  0.5127 -0.0842
 2179TIP3   OH227951   0.995   0.577   3.179 -0.0227 -0.0273 -0.1568
 2179TIP3    H127952   1.019   0.658   3.135 -0.8380  0.7770  0.8131
 2179TIP3    H227953   0.934   0.534   3.119 -0.5611  0.6996 -0.1444
 2180TIP3   OH227954   5.282   1.213  14.173  0.2989  0.2646 -0.4756
 2180TIP3    H127955   5.354   1.264  14.209 -0.4134 -0.1129  1.6543
 2180TIP3    H227956   5.247   1.267  14.103  1.1693  1.5410  0.0374
 2181TIP3   OH227957   4.274   1.407  14.793  0.0232  0.0533 -0.2203
 2181TIP3    H127958   4.316   1.487  14.826 -1.3488  0.6306  0.2264
 2181TIP3    H227959   4.312   1.337  14.845  0.9997  0.4421 -0.3785
 2182TIP3   OH227960   6.756   6.460  12.275 -0.7107 -0.3026  0.8294
 2182TIP3    H127961   6.728   6.448  12.184 -1.5172  2.7025  0.5720
 2182TIP3    H227962   6.828   6.398  12.287  0.2806  0.0740 -2.2954
 2183TIP3   OH227963   3.496   1.385  15.645  0.5136 -0.1173  0.6093
 2183TIP3    H127964   3.575   1.356  15.598  0.4842 -0.3383  0.6989
 2183TIP3    H227965   3.448   1.304  15.664  0.0729  0.0479  0.2122
 2184TIP3   OH227966   0.639   3.299  11.246 -0.5179  0.8814  0.4454
 2184TIP3    H127967   0.589   3.253  11.179  0.3139  2.2900 -1.1959
 2184TIP3    H227968   0.572   3.337  11.303 -1.2373 -0.1602  0.3185
 2185TIP3   OH227969   5.624   2.336   0.522  0.5727  0.5694  0.2071
 2185TIP3    H127970   5.663   2.359   0.606  1.5786  0.6156 -0.2695
 2185TIP3    H227971   5.663   2.252   0.499 -0.8125 -0.1758  0.4871
 2186TIP3   OH227972   6.378   0.208   4.800  0.1361 -0.9359 -0.1064
 2186TIP3    H127973   6.364   0.116   4.824 -2.2250 -1.3729 -2.5959
 2186TIP3    H227974   6.383   0.207   4.705 -0.2654  1.5523 -0.2200
 2187TIP3   OH227975   1.974   1.075  14.224 -0.0366 -0.1278 -0.1969
 2187TIP3    H127976   2.020   0.998  14.258  1.7168  0.9837  0.0499
 2187TIP3    H227977   1.935   1.045  14.142 -0.4503 -1.6000  0.5032
 2188TIP3   OH227978   5.430   6.087   2.788  0.2049  0.1857  0.0127
 2188TIP3    H127979   5.372   6.164   2.787 -0.9111 -0.6266 -0.1094
 2188TIP3    H227980   5.406   6.039   2.709 -0.2835 -1.1269  0.9404
 2189TIP3   OH227981   0.115   4.008  11.809  0.1144 -0.0248  0.1083
 2189TIP3    H127982   0.165   4.088  11.798 -0.1059 -0.0082 -0.8319
 2189TIP3    H227983   0.062   4.023  11.888 -1.9458  1.8531 -1.5201
 2190TIP3   OH227984   1.764   5.005  15.011 -0.7200 -0.1090 -0.3354
 2190TIP3    H127985   1.769   5.079  14.951  0.1424  1.4510  1.5255
 2190TIP3    H227986   1.693   4.951  14.977 -1.1988  1.4298 -1.9275
 2191TIP3   OH227987   3.315   4.194   0.480 -0.6166 -0.2029 -0.4364
 2191TIP3    H127988   3.368   4.271   0.499  0.2175 -0.8592 -0.0273
 2191TIP3    H227989   3.365   4.146   0.414 -1.0397 -0.4947 -0.5539
 2192TIP3   OH227990   0.067   4.833  14.987 -0.3749 -0.3418 -0.0822
 2192TIP3    H127991   0.006   4.781  14.934 -1.0417  1.1509 -0.8203
 2192TIP3    H227992   0.153   4.814  14.948 -0.7729  0.1706 -1.2738
 2193TIP3   OH227993   5.132   1.363   5.016 -0.5191 -0.2182  0.6297
 2193TIP3    H127994   5.202   1.300   5.003 -0.7361 -0.3842  0.2573
 2193TIP3    H227995   5.059   1.330   4.963 -1.0254 -0.2770  1.3350
 2194TIP3   OH227996   4.582   4.397   1.697  0.0288  0.1213  0.0219
 2194TIP3    H127997   4.493   4.371   1.674 -0.1499  1.5666 -1.0280
 2194TIP3    H227998   4.575   4.436   1.784 -0.0166 -1.4734  0.7687
 2195TIP3   OH227999   0.706   5.343   5.287  0.3031 -0.0997 -0.3489
 2195TIP3    H128000   0.796   5.310   5.287  0.9760  1.6060 -1.2434
 2195TIP3    H228001   0.660   5.286   5.226 -0.2276 -3.2494  2.6445
 2196TIP3   OH228002   3.812   2.282   2.186 -0.5348  0.0147 -0.3658
 2196TIP3    H128003   3.746   2.301   2.253 -0.1625 -0.5708  0.1749
 2196TIP3    H228004   3.835   2.368   2.150 -2.2232  0.1663 -1.1985
 2197TIP3   OH228005   4.633   1.931   1.917  0.1184  0.1041 -0.5261
 2197TIP3    H128006   4.650   2.014   1.872  0.8776 -0.7438 -1.8962
 2197TIP3    H228007   4.540   1.914   1.902 -0.6072  1.7351  1.6534
 2198TIP3   OH228008   1.170   4.999   5.615  0.0362  0.1264  0.2440
 2198TIP3    H128009   1.214   5.077   5.648 -0.6916  0.8728 -0.4960
 2198TIP3    H228010   1.207   4.986   5.528  0.0889 -0.2938  0.3306
 2199TIP3   OH228011   1.777   3.502   4.285 -0.3130 -0.1180  0.4968
 2199TIP3    H128012   1.795   3.411   4.261 -1.2193 -1.0582  3.0577
 2199TIP3    H228013   1.690   3.500   4.324 -0.7933  2.0784 -0.3336
 2200TIP3   OH228014   4.774   0.154   5.955 -0.2194  0.4455  0.4748
 2200TIP3    H128015   4.835   0.226   5.973 -0.2931  0.7244 -0.3512
 2200TIP3    H228016   4.801   0.084   6.014 -0.9076  1.5615  2.1825
 2201TIP3   OH228017   3.410   1.238  11.437  0.2460 -0.0270  0.6160
 2201TIP3    H128018   3.497   1.276  11.431  1.2755 -2.5160 -2.7535
 2201TIP3    H228019   3.425   1.144  11.447 -1.9641 -0.6883 -1.3791
 2202TIP3   OH228020   2.037   4.441  16.155 -0.0870 -0.0488 -0.5993
 2202TIP3    H128021   2.103   4.372  16.141  3.0769  2.7205 -0.6443
 2202TIP3    H228022   2.041   4.459  16.249 -2.3300 -1.1221 -0.2325
 2203TIP3   OH228023   1.218   2.751   2.576  0.6403 -0.1709  0.1928
 2203TIP3    H128024   1.197   2.811   2.504  0.7422 -0.9160 -0.4721
 2203TIP3    H228025   1.278   2.688   2.537 -0.8127 -1.7406  0.3915
 2204TIP3   OH228026   1.170   3.152  13.966 -0.5897 -0.1132  0.0961
 2204TIP3    H128027   1.142   3.115  14.050 -0.7540 -2.3314 -0.8649
 2204TIP3    H228028   1.140   3.243  13.969 -2.3885 -0.6841  1.6175
 2205TIP3   OH228029   6.163   1.019   0.671  0.0350 -0.1647  0.3175
 2205TIP3    H128030   6.091   0.994   0.613  2.5647 -1.6838 -2.4072
 2205TIP3    H228031   6.201   0.937   0.700  1.0579  0.6103  1.2773
 2206TIP3   OH228032   3.671   2.567   2.771 -0.2774 -0.7366 -0.0796
 2206TIP3    H128033   3.733   2.637   2.791  2.3744 -3.0225  0.2803
 2206TIP3    H228034   3.714   2.516   2.702 -2.2092 -1.9344 -0.4818
 2207TIP3   OH228035   1.224   1.358   3.015 -0.5064 -0.2493  0.0017
 2207TIP3    H128036   1.314   1.342   2.986 -0.2852  0.7508  0.1354
 2207TIP3    H228037   1.202   1.280   3.066  0.6788 -0.0164  0.9179
 2208TIP3   OH228038   0.717   0.159  13.781  0.3559 -0.0542  0.7206
 2208TIP3    H128039   0.804   0.138  13.748  0.6412 -0.1522  1.5135
 2208TIP3    H228040   0.668   0.188  13.704  0.8177 -0.8507  0.1068
 2209TIP3   OH228041   3.792   0.369  12.460 -0.3967 -0.1756  0.1034
 2209TIP3    H128042   3.814   0.457  12.430  0.2520 -0.3811 -0.0367
 2209TIP3    H228043   3.850   0.354  12.534 -1.8488  0.2527  1.3927
 2210TIP3   OH228044   1.681   3.446  16.683 -0.6394 -0.2943  0.1787
 2210TIP3    H128045   1.698   3.472  16.592  0.5598 -0.0636  0.4602
 2210TIP3    H228046   1.703   3.353  16.686 -0.3295 -0.2160  0.3220
 2211TIP3   OH228047   6.195   3.618  14.487 -0.0390  0.1887 -0.2718
 2211TIP3    H128048   6.136   3.678  14.440 -0.0548  1.7685  1.6364
 2211TIP3    H228049   6.137   3.568  14.545  0.1329 -0.8194 -0.9355
 2212TIP3   OH228050   4.304   3.556   5.916  0.3333  0.4931 -0.4002
 2212TIP3    H128051   4.235   3.503   5.957 -1.0701  1.9948 -0.7322
 2212TIP3    H228052   4.359   3.491   5.872  0.5535 -0.9614  1.8279
 2213TIP3   OH228053   5.511   4.336  12.248 -0.2462  0.4453  0.0115
 2213TIP3    H128054   5.583   4.310  12.305 -0.5649 -0.0582  0.1962
 2213TIP3    H228055   5.530   4.293  12.164 -0.4523  0.1002  0.1352
 2214TIP3   OH228056   4.699   5.729   2.726  0.0449  0.8175 -0.2417
 2214TIP3    H128057   4.695   5.651   2.671 -0.4637 -0.0799  1.0049
 2214TIP3    H228058   4.704   5.694   2.816 -1.1825  2.2219  0.4122
 2215TIP3   OH228059   3.739   3.609   5.929  0.8636 -0.0437  0.1812
 2215TIP3    H128060   3.806   3.677   5.940  0.0101  1.0635 -1.1043
 2215TIP3    H228061   3.764   3.565   5.848 -0.9575  1.6600 -1.4022
 2216TIP3   OH228062   1.986   0.283  12.960  0.4310 -0.0136 -0.3217
 2216TIP3    H128063   2.009   0.266  12.868 -0.0778 -2.7490 -0.0230
 2216TIP3    H228064   2.005   0.201  13.005  3.0134  1.9521  2.5884
 2217TIP3   OH228065   1.879   2.725  16.291 -0.4238 -0.2098 -0.1586
 2217TIP3    H128066   1.829   2.726  16.209 -0.4477 -2.1767 -0.2137
 2217TIP3    H228067   1.961   2.768  16.269 -0.8367  0.2169 -0.9271
 2218TIP3   OH228068   3.760   6.598  11.550 -0.3735 -0.0789  0.2559
 2218TIP3    H128069   3.822   6.582  11.479  0.6624 -0.4583  1.2073
 2218TIP3    H228070   3.710   6.516  11.557  2.2562 -1.6474  2.5367
 2219TIP3   OH228071   0.765   2.626   1.082 -0.3319  0.2957  0.1892
 2219TIP3    H128072   0.796   2.713   1.055  2.2905 -0.7250 -0.3962
 2219TIP3    H228073   0.827   2.599   1.151 -1.0292 -1.1470  0.2845
 2220TIP3   OH228074   4.917   5.523  16.986 -0.2088  0.3360 -0.7674
 2220TIP3    H128075   4.874   5.533  17.071  2.0018 -0.2211  0.5141
 2220TIP3    H228076   4.880   5.442  16.950 -1.0963  0.5196 -0.3002
 2221TIP3   OH228077   5.118   3.241   0.867 -0.4133  0.2377 -0.3472
 2221TIP3    H128078   5.203   3.242   0.823  0.3842 -1.8724  0.9479
 2221TIP3    H228079   5.069   3.314   0.829  1.7602  1.1464 -1.5475
 2222TIP3   OH228080   0.321   0.439  12.710 -0.0582  0.5076 -0.2348
 2222TIP3    H128081   0.310   0.455  12.616 -1.6517 -1.1898 -0.3859
 2222TIP3    H228082   0.252   0.491  12.751 -0.5518 -0.2095 -0.1539
 2223TIP3   OH228083   4.346   0.424   0.079  0.4231 -0.0033 -0.2459
 2223TIP3    H128084   4.397   0.504   0.087 -1.2786  1.0216  0.9705
 2223TIP3    H228085   4.272   0.447   0.023  0.5753 -1.0923 -0.9320
 2224TIP3   OH228086   6.311   1.894   1.672  0.0688  0.1623  0.6536
 2224TIP3    H128087   6.243   1.898   1.738 -1.0670 -0.9844 -0.3797
 2224TIP3    H228088   6.388   1.862   1.718 -0.6843 -0.5620  1.4373
 2225TIP3   OH228089   6.623   5.563  15.845  0.4836 -0.8643  0.1563
 2225TIP3    H128090   6.591   5.553  15.755 -0.3114  1.2129  0.1416
 2225TIP3    H228091   6.543   5.579  15.896  1.1610  0.9893  0.7024
 2226TIP3   OH228092   4.270   6.087   1.753  0.2113 -0.7374 -0.0028
 2226TIP3    H128093   4.266   5.992   1.753  1.3151 -0.8432 -1.8714
 2226TIP3    H228094   4.335   6.108   1.820  2.0251 -1.5149 -1.4256
 2227TIP3   OH228095   3.400   6.186   4.645  0.2941  0.6413  0.6898
 2227TIP3    H128096   3.477   6.210   4.696  0.3091  1.4621  0.2952
 2227TIP3    H228097   3.406   6.091   4.636  1.1200  0.6684  0.8789
 2228TIP3   OH228098   5.599   0.752   1.325 -0.2785 -0.1588 -0.0667
 2228TIP3    H128099   5.574   0.660   1.331  1.1486 -0.5855 -0.1636
 2228TIP3    H228100   5.691   0.750   1.300 -0.7546  1.3313 -2.2362
 2229TIP3   OH228101   3.447   0.317  15.063 -0.1963 -0.4011 -0.6819
 2229TIP3    H128102   3.359   0.355  15.054  0.1795  0.2859 -1.7335
 2229TIP3    H228103   3.465   0.279  14.977 -0.1270 -2.0560  0.0294
 2230TIP3   OH228104   1.880   1.618   5.874  0.5000 -0.1961 -0.0556
 2230TIP3    H128105   1.970   1.637   5.899  0.3247  3.8071 -1.6805
 2230TIP3    H228106   1.831   1.623   5.956  1.4816 -0.3698  0.5561
 2231TIP3   OH228107   3.239   4.639  13.919  0.4179 -0.1151 -0.0313
 2231TIP3    H128108   3.310   4.587  13.879  0.4331  0.5032 -0.8254
 2231TIP3    H228109   3.170   4.639  13.853  0.4333  0.9026 -0.0559
 2232TIP3   OH228110   3.925   5.913  13.446  0.2876  0.2268 -0.6348
 2232TIP3    H128111   3.984   5.973  13.492 -0.5085  1.3682 -1.0725
 2232TIP3    H228112   3.846   5.911  13.501  0.9866 -1.9585  0.4045
 2233TIP3   OH228113   1.529   4.750  12.167 -0.5141 -0.3433  0.2405
 2233TIP3    H128114   1.470   4.729  12.239  0.2563  0.0840  1.0199
 2233TIP3    H228115   1.561   4.838  12.187 -0.1087 -0.3151 -0.4951
 2234TIP3   OH228116   4.297   4.809   0.263  0.3857 -0.2247  0.5067
 2234TIP3    H128117   4.313   4.715   0.276 -0.1833 -0.1974  1.4890
 2234TIP3    H228118   4.204   4.820   0.284  0.4900  0.5811  0.5503
 2235TIP3   OH228119   6.135   1.351   2.481 -0.1122 -0.0080 -0.0753
 2235TIP3    H128120   6.197   1.423   2.465 -2.2072  1.9965  0.2365
 2235TIP3    H228121   6.131   1.304   2.398  0.8489  0.6091 -0.4892
 2236TIP3   OH228122   4.051   4.363  16.241  0.0343  0.3918 -0.2097
 2236TIP3    H128123   4.067   4.269  16.241 -0.9408  0.2178 -0.3260
 2236TIP3    H228124   4.057   4.388  16.334 -0.7786  0.0204 -0.0526
 2237TIP3   OH228125   1.780   3.384  11.400 -0.4103  0.1681  0.1895
 2237TIP3    H128126   1.794   3.456  11.462  0.2303 -1.0930  1.5691
 2237TIP3    H228127   1.686   3.366  11.406 -0.4390  0.3811  0.4165
 2238TIP3   OH228128   4.265   3.451   1.141 -0.1155 -0.5793 -0.0815
 2238TIP3    H128129   4.277   3.358   1.162 -0.9616 -0.6036  0.3235
 2238TIP3    H228130   4.320   3.497   1.205  0.3653 -0.7973 -0.3314
 2239TIP3   OH228131   2.592   5.189  16.794  0.4261  0.0057  0.0809
 2239TIP3    H128132   2.565   5.276  16.826  1.3683 -0.0110  0.9505
 2239TIP3    H228133   2.682   5.201  16.766  0.6607 -0.7593  0.4877
 2240TIP3   OH228134   5.171   4.230   4.785  0.1901 -0.2714  0.0399
 2240TIP3    H128135   5.098   4.291   4.792 -0.5734 -1.0542 -0.9108
 2240TIP3    H228136   5.136   4.146   4.816  1.5317 -0.0684  2.4410
 2241TIP3   OH228137   0.768   4.455   2.188  0.2466  0.1679 -0.3253
 2241TIP3    H128138   0.748   4.366   2.158  1.6305 -0.0514 -0.6259
 2241TIP3    H228139   0.721   4.463   2.271 -0.4818 -0.5807 -0.6530
 2242TIP3   OH228140   4.837   4.732  11.381  0.2715  0.0156  0.3734
 2242TIP3    H128141   4.900   4.803  11.390  0.0281  0.1707  0.9122
 2242TIP3    H228142   4.849   4.679  11.459  0.7452 -0.7902 -0.2271
 2243TIP3   OH228143   3.336   4.468   3.945 -0.6817 -0.0953 -0.5247
 2243TIP3    H128144   3.388   4.422   4.010  0.3797  1.8189  0.0674
 2243TIP3    H228145   3.285   4.400   3.902  2.0852 -2.0881 -0.9281
 2244TIP3   OH228146   5.565   4.123  13.518  0.3438  0.1170 -0.3042
 2244TIP3    H128147   5.601   4.092  13.435 -0.2471 -2.9887  0.4970
 2244TIP3    H228148   5.642   4.134  13.575  0.6214  0.9822 -0.8155
 2245TIP3   OH228149   1.367   5.477  11.834 -0.1246  0.5885  0.0981
 2245TIP3    H128150   1.434   5.421  11.797  0.1457 -0.8605  2.5684
 2245TIP3    H228151   1.388   5.565  11.800  1.4182 -0.2360 -1.2328
 2246TIP3   OH228152   6.729   6.098   2.840  0.2923  0.0241  0.2045
 2246TIP3    H128153   6.783   6.026   2.810  0.2597 -0.7418  1.8447
 2246TIP3    H228154   6.745   6.169   2.777 -0.5385 -1.7233 -2.0990
 2247TIP3   OH228155   2.297   4.806   4.284 -0.0932  0.0396  0.8244
 2247TIP3    H128156   2.371   4.815   4.344  0.6792 -1.1305  0.0917
 2247TIP3    H228157   2.334   4.762   4.207 -1.2725  0.6260 -0.1046
 2248TIP3   OH228158   0.431   3.246   4.821 -0.4495 -0.4291  0.2396
 2248TIP3    H128159   0.468   3.301   4.752  2.3873 -1.4155  0.8301
 2248TIP3    H228160   0.396   3.170   4.774  3.4459 -2.2016 -0.2279
 2249TIP3   OH228161   5.705   1.071   2.862 -0.7296  0.3774  0.8148
 2249TIP3    H128162   5.616   1.061   2.893 -0.7417 -0.5156  0.5270
 2249TIP3    H228163   5.709   1.017   2.783 -0.5851  2.2270 -0.5250
 2250TIP3   OH228164   2.721   2.496  14.967  0.3432 -0.5369  0.0170
 2250TIP3    H128165   2.673   2.574  14.938 -1.4946 -2.5480 -3.0150
 2250TIP3    H228166   2.786   2.481  14.899  1.8112 -0.7655  1.4265
 2251TIP3   OH228167   5.158   1.830  12.186 -0.0994  0.0713  0.0378
 2251TIP3    H128168   5.233   1.776  12.211 -2.2375 -2.4290  1.5142
 2251TIP3    H228169   5.089   1.806  12.247 -2.8723  0.4485 -2.6682
 2252TIP3   OH228170   1.338   2.646  17.050 -0.0411  0.5964 -0.2659
 2252TIP3    H128171   1.368   2.561  17.082 -0.4608  0.5784  0.0938
 2252TIP3    H228172   1.244   2.635  17.036  0.0154  0.8140 -0.8389
 2253TIP3   OH228173   3.299   5.095   2.662 -0.0523 -0.7025  0.3396
 2253TIP3    H128174   3.279   5.188   2.676 -0.0230 -0.4622 -1.0462
 2253TIP3    H228175   3.310   5.059   2.750 -0.1452  0.5889  0.9018
 2254TIP3   OH228176   6.258   4.497   1.564 -0.0011 -0.3170  0.0328
 2254TIP3    H128177   6.184   4.557   1.572  1.1481  1.0792  0.5055
 2254TIP3    H228178   6.287   4.506   1.473  1.8492  1.9622  0.7674
 2255TIP3   OH228179   0.666   1.043  12.224  0.1677 -0.3326  1.0337
 2255TIP3    H128180   0.642   1.130  12.191 -0.2636 -0.7404  0.2245
 2255TIP3    H228181   0.738   1.015  12.168 -1.5285 -1.6500 -0.6347
 2256TIP3   OH228182   1.851   4.661  13.490  0.2709  0.2132  0.1039
 2256TIP3    H128183   1.883   4.571  13.490 -2.3011 -0.8046  0.3801
 2256TIP3    H228184   1.812   4.672  13.577 -0.3365  1.2472 -0.2853
 2257TIP3   OH228185   1.414   6.448  14.707 -0.6208 -0.1349 -0.2406
 2257TIP3    H128186   1.345   6.411  14.763 -0.7463 -2.1590 -1.6337
 2257TIP3    H228187   1.491   6.451  14.763 -1.2974  0.1053  0.7068
 2258TIP3   OH228188   2.687   4.081  16.335  0.3850 -0.2694  0.3491
 2258TIP3    H128189   2.779   4.061  16.319  0.4011 -0.8911  1.1237
 2258TIP3    H228190   2.688   4.131  16.417  0.0928  0.3420 -0.0198
 2259TIP3   OH228191   2.804   0.500  11.067 -0.1829  0.3668 -0.1089
 2259TIP3    H128192   2.850   0.551  11.134  0.9969  0.0486 -0.6551
 2259TIP3    H228193   2.873   0.451  11.022 -1.1251 -0.5790 -0.5756
 2260TIP3   OH228194   4.902   3.716  13.717 -0.2059  0.1314  0.3092
 2260TIP3    H128195   4.858   3.707  13.633  0.3400  0.4838 -0.0120
 2260TIP3    H228196   4.964   3.787  13.705 -0.5025  0.5564  1.1749
 2261TIP3   OH228197   3.679   3.386   5.699  0.2465  0.4290  0.0065
 2261TIP3    H128198   3.717   3.387   5.787 -1.8209 -1.0605  0.9927
 2261TIP3    H228199   3.589   3.358   5.712 -0.9290  2.6751 -2.3313
 2262TIP3   OH228200   4.042   5.676   4.812  0.0840  0.0280  0.5512
 2262TIP3    H128201   4.123   5.647   4.856  2.2309  3.4902 -0.7038
 2262TIP3    H228202   3.997   5.729   4.878 -0.5991 -0.9110  0.8609
 2263TIP3   OH228203   4.067   6.296  17.236  0.3748  0.5832  0.2865
 2263TIP3    H128204   4.070   6.339  17.150  0.0071  0.2413  0.0992
 2263TIP3    H228205   4.124   6.350  17.292 -0.3572  1.5205  0.1546
 2264TIP3   OH228206   4.493   5.549   1.965 -0.0699 -0.3435 -0.1088
 2264TIP3    H128207   4.428   5.480   1.975 -0.1216 -0.3450 -0.4341
 2264TIP3    H228208   4.467   5.595   1.885 -1.3091  1.4143  1.2246
 2265TIP3   OH228209   1.280   5.984  13.036  0.9009 -0.1338 -0.0617
 2265TIP3    H128210   1.315   6.072  13.025  0.5613  0.0771  0.4666
 2265TIP3    H228211   1.199   5.997  13.086  1.5921 -0.8701  1.2992
 2266TIP3   OH228212   3.999   5.901  16.993 -0.4902  0.3545  0.7308
 2266TIP3    H128213   3.968   5.916  17.083 -0.6043 -1.8245  1.1181
 2266TIP3    H228214   4.091   5.875  17.004  0.1578  2.1403 -0.0193
 2267TIP3   OH228215   0.148   2.827   2.584 -0.4568  0.5305  0.4246
 2267TIP3    H128216   0.100   2.784   2.513 -0.7762  1.2039  0.2305
 2267TIP3    H228217   0.095   2.813   2.662 -0.9765  1.2661  0.2123
 2268TIP3   OH228218   5.478   4.124   2.405 -0.0508 -0.4763  0.3060
 2268TIP3    H128219   5.501   4.089   2.319 -1.3281  2.0637 -1.2083
 2268TIP3    H228220   5.419   4.059   2.443  2.1878 -2.6660  0.2726
 2269TIP3   OH228221   3.777   3.088  12.897  0.0331 -0.0359  0.4469
 2269TIP3    H128222   3.848   3.131  12.945  0.0526 -0.0154  0.4000
 2269TIP3    H228223   3.786   2.995  12.918  0.3563 -0.0924  0.0755
 2270TIP3   OH228224   2.023   0.551   5.257  0.2574 -0.4824  0.4250
 2270TIP3    H128225   2.113   0.569   5.286  0.4245  1.1871 -1.0219
 2270TIP3    H228226   2.027   0.557   5.162 -1.0952 -1.9559  0.2421
 2271TIP3   OH228227   2.811   4.468  17.079 -0.3007  0.2077 -0.0898
 2271TIP3    H128228   2.774   4.387  17.115  1.2658 -0.7156 -0.4544
 2271TIP3    H228229   2.828   4.523  17.155 -0.7540 -0.0865  0.2246
 2272TIP3   OH228230   5.605   3.467  13.363 -0.5741  0.6260  0.0100
 2272TIP3    H128231   5.603   3.461  13.458 -1.1268  1.1539  0.0374
 2272TIP3    H228232   5.679   3.525  13.344  0.5904 -0.7861  0.0266
 2273TIP3   OH228233   0.860   1.538  14.831  0.0844  0.0965  0.1430
 2273TIP3    H128234   0.953   1.519  14.845  0.1928 -0.1538 -0.8598
 2273TIP3    H228235   0.846   1.522  14.738 -0.5260  1.9905 -0.1303
 2274TIP3   OH228236   0.353   5.149   6.455 -0.4530 -0.1608 -0.1319
 2274TIP3    H128237   0.350   5.242   6.477 -1.3693 -0.5738  1.6823
 2274TIP3    H228238   0.431   5.116   6.501  0.5567 -0.1057 -1.7278
 2275TIP3   OH228239   3.486   5.372   4.860 -0.1098 -0.3553  0.4278
 2275TIP3    H128240   3.486   5.393   4.767  0.2761  1.4174  0.7911
 2275TIP3    H228241   3.531   5.287   4.865 -1.9995 -1.5421 -1.1573
 2276TIP3   OH228242   0.069   3.351  12.839 -0.6726 -0.2347 -0.6783
 2276TIP3    H128243   0.064   3.255  12.836 -0.3308 -0.3675  1.4655
 2276TIP3    H228244   0.144   3.369  12.895 -1.3024  1.2793 -0.2885
 2277TIP3   OH228245   2.793   0.838   1.582 -0.2342  0.2504  0.6826
 2277TIP3    H128246   2.773   0.900   1.511  0.5111 -0.4213 -0.1355
 2277TIP3    H228247   2.848   0.771   1.541 -0.4795 -0.6094  1.7060
 2278TIP3   OH228248   2.168   5.046   2.851  0.3846 -0.4740 -0.3367
 2278TIP3    H128249   2.190   5.090   2.933 -0.4870  1.1486 -0.9134
 2278TIP3    H228250   2.089   4.996   2.871  0.9352 -1.1650  0.1357
 2279TIP3   OH228251   5.661   0.405  13.685  0.4469 -0.3682  0.0422
 2279TIP3    H128252   5.652   0.491  13.726  0.4245 -0.0721 -0.5820
 2279TIP3    H228253   5.754   0.385  13.692  0.1803 -1.1313  1.8539
 2280TIP3   OH228254   1.485   3.339   0.226 -0.6293  0.1890  0.3357
 2280TIP3    H128255   1.556   3.314   0.167 -0.5529  1.1009  0.0204
 2280TIP3    H228256   1.526   3.344   0.313 -0.2046  1.0732  0.0979
 2281TIP3   OH228257   0.669   3.691   3.619 -0.1519 -0.3268  0.0419
 2281TIP3    H128258   0.642   3.718   3.707  1.2179 -0.2973  0.4633
 2281TIP3    H228259   0.683   3.597   3.626  0.5111 -0.2332  0.0043
 2282TIP3   OH228260   5.060   2.041   0.275 -0.0959  0.2552 -0.0828
 2282TIP3    H128261   5.096   1.979   0.211  0.1172 -0.1339  0.4137
 2282TIP3    H228262   4.965   2.034   0.265 -0.0614  0.3496 -0.5011
 2283TIP3   OH228263   6.489   5.779  11.421 -0.0354 -0.0360 -0.5184
 2283TIP3    H128264   6.514   5.846  11.357 -1.8832 -1.6350 -3.1494
 2283TIP3    H228265   6.505   5.696  11.375 -4.1364 -1.2219 -0.1556
 2284TIP3   OH228266   2.291   3.025   2.594 -0.0126 -0.4359  0.0598
 2284TIP3    H128267   2.267   2.950   2.649 -2.7359  0.0044 -0.3834
 2284TIP3    H228268   2.306   2.987   2.507  0.3769 -0.6622  0.2227
 2285TIP3   OH228269   4.935   2.865  13.457  0.4365  0.0377  0.0149
 2285TIP3    H128270   4.890   2.850  13.373  2.7437  0.3247 -1.3707
 2285TIP3    H228271   5.021   2.898  13.432  0.7173  1.5277  2.5826
 2286TIP3   OH228272   1.712   3.621   4.663  0.1508  0.5476 -0.2279
 2286TIP3    H128273   1.754   3.664   4.737 -1.3964 -0.4855  1.3463
 2286TIP3    H228274   1.633   3.673   4.647  0.5008  0.7979 -1.2308
 2287TIP3   OH228275   5.851   4.234   0.865 -0.2668 -0.0727  0.0059
 2287TIP3    H128276   5.761   4.245   0.835 -0.7549 -2.0933  0.5447
 2287TIP3    H228277   5.898   4.310   0.830 -2.6044  2.3002  1.6046
 2288TIP3   OH228278   3.726   2.616   5.210  0.2143 -0.3068  0.0254
 2288TIP3    H128279   3.754   2.623   5.301  2.2513  0.6157 -0.6110
 2288TIP3    H228280   3.661   2.685   5.200  0.1740 -0.2379  0.7103
 2289TIP3   OH228281   1.830   3.822   2.814 -0.0173  0.4388  0.7065
 2289TIP3    H128282   1.850   3.853   2.903  1.1655  1.5103  0.0981
 2289TIP3    H228283   1.842   3.727   2.818  2.2630  0.6827  1.1765
 2290TIP3   OH228284   2.152   2.203  16.453 -0.0749 -0.8855 -0.4242
 2290TIP3    H128285   2.185   2.216  16.364 -1.0138  1.1594 -0.5504
 2290TIP3    H228286   2.209   2.257  16.508  0.4637 -2.0873  0.2439
 2291TIP3   OH228287   1.185   1.276   0.715 -0.0773 -0.0722 -0.3885
 2291TIP3    H128288   1.269   1.321   0.703  0.7122 -1.2703  0.3009
 2291TIP3    H228289   1.131   1.337   0.765  0.4244  0.6854 -0.7654
 2292TIP3   OH228290   1.828   5.913   0.961 -0.2691 -0.0520 -0.0337
 2292TIP3    H128291   1.814   6.001   0.927  1.9422 -0.6486 -2.9399
 2292TIP3    H228292   1.920   5.912   0.988  0.1129 -1.7179 -1.1856
 2293TIP3   OH228293   4.101   5.425  14.895 -0.2110  0.2594 -0.3833
 2293TIP3    H128294   4.094   5.341  14.939 -1.0944  0.1607 -0.6796
 2293TIP3    H228295   4.091   5.490  14.965 -0.8477  0.1039 -0.3211
 2294TIP3   OH228296   5.110   2.302   5.520  0.0715  0.1579  0.0455
 2294TIP3    H128297   5.135   2.294   5.612  4.7710  1.1411 -0.8602
 2294TIP3    H228298   5.032   2.247   5.511 -0.4125 -0.2708  4.4500
 2295TIP3   OH228299   4.456   5.927  12.457  0.8411 -0.1735 -0.0279
 2295TIP3    H128300   4.393   5.999  12.459  0.2703 -0.6758  0.3748
 2295TIP3    H228301   4.538   5.965  12.490  0.1646 -0.0575  1.6383
 2296TIP3   OH228302   2.031   3.584   3.390 -0.4877  0.2314  0.6964
 2296TIP3    H128303   2.126   3.575   3.404 -0.1553  0.8740 -0.8896
 2296TIP3    H228304   1.996   3.604   3.476  0.9458  0.8154  1.1823
 2297TIP3   OH228305   0.155   3.915  16.896  0.1697 -0.3480  0.4763
 2297TIP3    H128306   0.148   3.820  16.880  1.4356 -0.1957 -1.2207
 2297TIP3    H228307   0.085   3.953  16.843  0.5104 -0.2631  0.0783
 2298TIP3   OH228308   0.559   1.318  17.131 -0.3730 -0.1930  0.1877
 2298TIP3    H128309   0.512   1.236  17.113 -0.1209 -0.6754  1.6092
 2298TIP3    H228310   0.570   1.358  17.045 -1.6027 -1.0458 -0.3994
 2299TIP3   OH228311   3.473   5.644  11.792  0.3249  0.7323  0.0180
 2299TIP3    H128312   3.381   5.632  11.772  0.8769 -1.7051 -1.5199
 2299TIP3    H228313   3.513   5.559  11.773  2.5663  1.0273  2.6803
 2300TIP3   OH228314   1.491   5.506  14.077  0.3589 -0.0466  0.0014
 2300TIP3    H128315   1.453   5.590  14.103  1.9330  0.6495  0.2185
 2300TIP3    H228316   1.463   5.444  14.144  0.7059  0.7291  0.8843
 2301TIP3   OH228317   1.623   5.904  13.207  0.5256  0.0759 -0.1658
 2301TIP3    H128318   1.695   5.949  13.251  0.4491  1.3648 -1.2820
 2301TIP3    H228319   1.562   5.881  13.277  1.7579 -0.5529  0.7268
 2302TIP3   OH228320   5.858   3.931   0.182 -0.5802 -1.2351  0.6956
 2302TIP3    H128321   5.949   3.929   0.209 -0.1709 -1.2169 -0.6130
 2302TIP3    H228322   5.809   3.902   0.259  0.3745  0.4238  1.9935
 2303TIP3   OH228323   3.070   2.677   4.449  0.0379  0.1825  0.0693
 2303TIP3    H128324   2.978   2.662   4.428 -0.2533  0.1717  1.2866
 2303TIP3    H228325   3.073   2.765   4.485  0.2171 -0.3774  1.5139
 2304TIP3   OH228326   6.669   1.412  13.751 -0.1187  0.1895  0.2633
 2304TIP3    H128327   6.725   1.364  13.689 -0.4651  1.5530 -1.1775
 2304TIP3    H228328   6.608   1.461  13.695  0.8137  3.0525  1.5525
 2305TIP3   OH228329   1.999   1.865   3.506  0.0961 -0.1039 -0.1515
 2305TIP3    H128330   1.964   1.778   3.524 -0.6621  0.3669  0.8168
 2305TIP3    H228331   1.922   1.920   3.493  0.4736  0.7931  1.1584
 2306TIP3   OH228332   2.268   4.851  11.708  0.0139 -0.3968  0.1146
 2306TIP3    H128333   2.355   4.889  11.692 -0.7736  1.3300 -0.2691
 2306TIP3    H228334   2.256   4.788  11.638  1.3317 -1.3753  0.7182
 2307TIP3   OH228335   6.044   3.408  14.991  0.1001 -0.1760 -0.1249
 2307TIP3    H128336   6.022   3.501  14.994  1.2407  0.1022  0.0296
 2307TIP3    H228337   6.027   3.377  15.080  2.8487  0.6790  0.8282
 2308TIP3   OH228338   3.436   3.992   4.046  0.5604  0.0004  0.1042
 2308TIP3    H128339   3.386   3.983   4.127 -1.1935 -0.5930 -0.9950
 2308TIP3    H228340   3.396   3.930   3.986  1.6993  0.5688 -1.2960
 2309TIP3   OH228341   5.274   6.745   4.486  0.1318  0.2695 -0.2324
 2309TIP3    H128342   5.361   6.705   4.475 -0.5276 -1.4404  0.3480
 2309TIP3    H228343   5.292   6.835   4.511  1.7504 -0.0026 -0.2975
 2310TIP3   OH228344   4.368   2.643  15.835 -0.4048 -0.4259 -0.1979
 2310TIP3    H128345   4.413   2.559  15.835  0.7985  0.1098  2.7681
 2310TIP3    H228346   4.348   2.660  15.927  0.2186  2.9330 -0.5576
 2311TIP3   OH228347   4.439   1.978   1.104  0.0894 -0.5750 -0.1859
 2311TIP3    H128348   4.513   2.039   1.112 -0.9461  1.0556 -2.0894
 2311TIP3    H228349   4.469   1.911   1.043  0.7408 -1.2064  0.8035
 2312TIP3   OH228350   0.955   0.949  14.727 -0.1282  0.1056  0.4048
 2312TIP3    H128351   1.015   1.002  14.674  0.0023 -0.8268 -0.4082
 2312TIP3    H228352   0.904   1.013  14.777 -2.3037  1.2229 -2.9547
 2313TIP3   OH228353   1.098   0.727  14.582 -0.5076 -0.2801  0.1992
 2313TIP3    H128354   1.016   0.695  14.620 -0.6157 -0.1883  0.0447
 2313TIP3    H228355   1.098   0.691  14.493 -1.0298  0.8182 -0.2699
 2314TIP3   OH228356   3.602   5.512   3.504  0.2911  0.2527  0.4590
 2314TIP3    H128357   3.566   5.593   3.467  0.9966 -0.4011 -1.8327
 2314TIP3    H228358   3.604   5.451   3.430  1.4319 -1.3060  1.7096
 2315TIP3   OH228359   0.188   3.511  13.317 -0.1071 -0.1103 -0.0794
 2315TIP3    H128360   0.191   3.428  13.364 -0.8708 -0.1310 -0.0398
 2315TIP3    H228361   0.217   3.576  13.381  0.6518 -0.3610 -0.1623
 2316TIP3   OH228362   4.837   5.261  16.222 -0.5160 -0.0171  0.3148
 2316TIP3    H128363   4.772   5.259  16.293 -0.7836  0.1411  0.0737
 2316TIP3    H228364   4.801   5.323  16.159 -0.2435 -0.1108  0.0702
 2317TIP3   OH228365   2.496   3.509  11.737  0.2400  0.3214 -0.4646
 2317TIP3    H128366   2.447   3.499  11.818 -1.0293  1.6926 -1.0145
 2317TIP3    H228367   2.514   3.420  11.708  0.6242 -0.1804  1.2513
 2318TIP3   OH228368   2.652   1.343  15.850  0.0177  0.3297  0.3618
 2318TIP3    H128369   2.647   1.326  15.945  0.1442 -0.0979  0.2960
 2318TIP3    H228370   2.617   1.263  15.810 -2.1565  1.3466  0.0688
 2319TIP3   OH228371   2.512   2.394   2.393 -0.6090  0.0444 -0.2215
 2319TIP3    H128372   2.555   2.335   2.332  3.1213 -0.5011  2.6012
 2319TIP3    H228373   2.526   2.481   2.355 -0.5405 -0.4179 -1.2958
 2320TIP3   OH228374   6.667   0.821  10.818 -0.0283 -0.1318  0.0533
 2320TIP3    H128375   6.690   0.812  10.726 -1.3692  1.5931 -0.5066
 2320TIP3    H228376   6.745   0.793  10.866  0.9224 -0.4296 -1.6096
 2321TIP3   OH228377   1.479   4.611   0.059 -0.0200  0.4677  0.0311
 2321TIP3    H128378   1.416   4.659   0.006  0.6259  2.2539  0.8042
 2321TIP3    H228379   1.474   4.652   0.145  1.4686 -0.0202  0.3827
 2322TIP3   OH228380   5.025   0.293   2.190 -0.7253  0.2204  0.1514
 2322TIP3    H128381   5.107   0.262   2.153 -0.7438  0.2823  0.0576
 2322TIP3    H228382   5.049   0.373   2.237 -0.6662  0.0303  0.4520
 2323TIP3   OH228383   2.621   4.764  13.646  0.4365 -0.4524  0.6769
 2323TIP3    H128384   2.529   4.741  13.653  0.4569 -0.4843  0.8507
 2323TIP3    H228385   2.662   4.687  13.606  0.2862 -0.1932  0.0196
 2324TIP3   OH228386   6.647   4.710  12.754 -0.4468  0.3786 -0.2124
 2324TIP3    H128387   6.647   4.635  12.813  0.4255  0.0676 -0.6042
 2324TIP3    H228388   6.567   4.700  12.703 -0.7150  0.1308  0.2503
 2325TIP3   OH228389   2.302   0.100  14.446  0.0403 -0.0084 -0.4540
 2325TIP3    H128390   2.294   0.177  14.390  0.6033  0.6887  0.3877
 2325TIP3    H228391   2.297   0.135  14.535 -0.6105 -1.0631 -0.0614
 2326TIP3   OH228392   2.931   4.382  16.224  0.2694 -0.3589 -0.1875
 2326TIP3    H128393   3.020   4.359  16.199  0.6905 -0.4499  1.3384
 2326TIP3    H228394   2.935   4.397  16.318 -1.0722  0.8655 -0.2843
 2327TIP3   OH228395   2.507   5.379   5.799 -0.8592  0.4585  0.4696
 2327TIP3    H128396   2.452   5.302   5.816 -1.2882  0.8927  1.0914
 2327TIP3    H228397   2.578   5.346   5.743 -1.2369 -0.3081  0.4278
 2328TIP3   OH228398   1.868   5.243   5.511 -0.8178  0.3310  0.1057
 2328TIP3    H128399   1.811   5.319   5.511 -0.0456  0.9290 -0.5175
 2328TIP3    H228400   1.849   5.199   5.594 -2.4300  0.3021 -0.2392
 2329TIP3   OH228401   5.165   4.809   3.997 -0.8267  0.6696 -0.8056
 2329TIP3    H128402   5.103   4.870   4.038 -0.4814  1.0750 -0.8830
 2329TIP3    H228403   5.211   4.862   3.931  0.9850  0.9121  0.5686
 2330TIP3   OH228404   0.007   6.065  16.340  0.3975 -0.1594 -0.2286
 2330TIP3    H128405   0.062   6.098  16.269 -0.6930 -0.8968 -1.4548
 2330TIP3    H228406   0.017   5.970  16.335 -1.6076 -0.3646 -1.0205
 2331TIP3   OH228407   5.987   2.320   4.614 -0.0121  0.2521  0.8383
 2331TIP3    H128408   5.973   2.226   4.600  1.3017  0.2025 -0.4641
 2331TIP3    H228409   5.900   2.359   4.611 -0.4866 -0.8147  0.3948
 2332TIP3   OH228410   1.804   4.433  14.026  0.1507  0.1702  0.1532
 2332TIP3    H128411   1.889   4.389  14.029 -0.8663 -1.8961  0.4433
 2332TIP3    H228412   1.745   4.368  13.988 -1.5340  1.1909  0.9183
 2333TIP3   OH228413   1.045   2.164  13.084  0.5559 -0.1535  0.1804
 2333TIP3    H128414   1.121   2.196  13.131  0.0278 -0.6185  1.3983
 2333TIP3    H228415   1.074   2.156  12.993  0.0991  6.0048 -0.9371
 2334TIP3   OH228416   3.161   3.040  15.277  0.9254  0.0634  0.2516
 2334TIP3    H128417   3.198   3.126  15.298  3.0009 -0.4163 -1.1433
 2334TIP3    H228418   3.112   3.054  15.196 -0.0237  0.2010  0.8291
 2335TIP3   OH228419   0.853   1.222  14.038  0.4708  0.5790  0.1285
 2335TIP3    H128420   0.891   1.200  14.123  1.6678  0.8873 -0.3065
 2335TIP3    H228421   0.928   1.247  13.984 -0.5336  3.1016 -0.2072
 2336TIP3   OH228422   5.459   2.736   1.623  0.0432 -0.5871 -0.2474
 2336TIP3    H128423   5.366   2.750   1.641  0.2119 -0.7584  0.7861
 2336TIP3    H228424   5.462   2.710   1.531 -0.8673  0.0503 -0.4636
 2337TIP3   OH228425   3.248   4.172  15.677  0.4792 -0.1443 -0.3638
 2337TIP3    H128426   3.201   4.096  15.642 -1.9774  1.2299 -0.2397
 2337TIP3    H228427   3.257   4.231  15.602  0.2598  0.4338  0.0615
 2338TIP3   OH228428   0.728   2.008  16.724  0.3553 -0.9594  0.3925
 2338TIP3    H128429   0.636   2.010  16.749  0.5053 -1.3739  1.0036
 2338TIP3    H228430   0.727   2.001  16.628 -0.2709 -2.2217  0.4676
 2339TIP3   OH228431   0.592   5.072  11.442 -0.4184  0.2811 -0.0200
 2339TIP3    H128432   0.628   5.158  11.421 -0.6869  0.0910 -1.3150
 2339TIP3    H228433   0.665   5.024  11.480 -0.3306  1.1552  0.9756
 2340TIP3   OH228434   0.867   3.946   2.487 -0.1800 -0.3290  0.6996
 2340TIP3    H128435   0.949   3.986   2.515  0.1788 -1.5027  1.3858
 2340TIP3    H228436   0.880   3.852   2.499 -0.5408 -0.8162 -2.0540
 2341TIP3   OH228437   1.427   4.283  13.167  0.8204 -0.2492 -0.0515
 2341TIP3    H128438   1.479   4.364  13.175  0.7238  0.0382 -1.8037
 2341TIP3    H228439   1.365   4.287  13.240  0.4342  1.5786 -0.4203
 2342TIP3   OH228440   3.679   1.981  16.069 -0.0871 -0.1292 -0.4114
 2342TIP3    H128441   3.754   2.031  16.102 -1.7232  1.7147  0.7489
 2342TIP3    H228442   3.704   1.958  15.979  1.4660  1.3031 -0.4024
 2343TIP3   OH228443   2.759   3.235   4.349 -0.4450  0.3014 -0.4105
 2343TIP3    H128444   2.771   3.156   4.296  1.5967 -0.4656  1.0189
 2343TIP3    H228445   2.737   3.304   4.286 -2.3613 -1.3615 -1.7020
 2344TIP3   OH228446   2.063   4.217   0.262 -0.1219  0.1016  0.4075
 2344TIP3    H128447   2.050   4.174   0.346 -0.5446 -0.2168  0.1804
 2344TIP3    H228448   2.013   4.164   0.200 -0.8720  1.0792  0.1696
 2345TIP3   OH228449   0.507   5.434  12.794 -0.7504  0.1333  0.7795
 2345TIP3    H128450   0.490   5.399  12.881 -0.3176  0.1555  0.8766
 2345TIP3    H228451   0.432   5.489  12.774 -1.5290 -0.9693  0.5614
 2346TIP3   OH228452   4.847   3.876   4.829  0.3111  0.0533 -0.0760
 2346TIP3    H128453   4.779   3.829   4.876 -1.0192  0.2343 -1.7036
 2346TIP3    H228454   4.803   3.911   4.752  2.3040  0.0081 -1.3182
 2347TIP3   OH228455   2.783   4.742   4.093  0.1543 -0.4061  0.7599
 2347TIP3    H128456   2.742   4.714   4.175  1.5320 -0.9704  1.2858
 2347TIP3    H228457   2.846   4.809   4.120  1.7998 -1.7445  0.4227
 2348TIP3   OH228458   6.700   5.607   5.525  0.2616  0.0408 -0.3314
 2348TIP3    H128459   6.657   5.585   5.608 -0.4198 -1.7666 -1.1203
 2348TIP3    H228460   6.648   5.678   5.489 -0.0961  0.0839  0.2526
 2349TIP3   OH228461   4.518   3.491   0.392  0.4063  0.6077  0.2375
 2349TIP3    H128462   4.451   3.425   0.377  0.3923  0.3660  1.2663
 2349TIP3    H228463   4.590   3.466   0.334  1.5259 -1.9707  2.4857
 2350TIP3   OH228464   1.969   4.814   2.781  0.5665 -0.1306  0.7857
 2350TIP3    H128465   1.955   4.728   2.821  3.1664 -0.3337  1.4315
 2350TIP3    H228466   1.974   4.796   2.687  0.5555 -0.6043  0.8716
 2351TIP3   OH228467   3.656   5.872  13.511  0.0880 -0.5642 -0.1380
 2351TIP3    H128468   3.635   5.785  13.544  2.0251 -0.8803  0.3728
 2351TIP3    H228469   3.622   5.873  13.422  3.4963 -3.3953 -1.6852
 2352TIP3   OH228470   6.741   1.832   2.616 -0.1588 -0.2480 -0.8744
 2352TIP3    H128471   6.772   1.922   2.625 -0.3524 -0.2913  0.3771
 2352TIP3    H228472   6.789   1.798   2.541  1.4117  0.2772 -0.1428
 2353TIP3   OH228473   3.059   1.987   1.337 -0.1641  0.1286  0.1324
 2353TIP3    H128474   3.076   1.901   1.375 -0.2515  0.2198  0.3765
 2353TIP3    H228475   3.106   1.985   1.253  1.1428  0.4131  0.8323
 2354TIP3   OH228476   5.414   5.104   2.988  0.0427  0.4645  0.1857
 2354TIP3    H128477   5.490   5.130   3.040 -0.2760  0.3850  0.6935
 2354TIP3    H228478   5.449   5.094   2.899  0.6578  0.2871  0.4390
 2355TIP3   OH228479   1.756   4.597  15.573  0.0804 -0.2309 -0.0659
 2355TIP3    H128480   1.763   4.566  15.663 -2.2684 -0.4254  0.1009
 2355TIP3    H228481   1.693   4.539  15.532 -0.7408  1.3453 -1.1415
 2356TIP3   OH228482   5.306   2.297  11.939 -0.4991 -0.2707  0.3150
 2356TIP3    H128483   5.273   2.216  11.976  1.5502 -0.5093  1.7594
 2356TIP3    H228484   5.372   2.327  12.001 -1.9619  3.1381  0.4369
 2357TIP3   OH228485   1.209   2.649  15.444 -0.5139  0.2123  0.0880
 2357TIP3    H128486   1.251   2.581  15.496  1.2027  0.5422 -0.8141
 2357TIP3    H228487   1.231   2.731  15.488 -2.3356  0.2607  1.0077
 2358TIP3   OH228488   3.762   0.714  15.828 -0.0362  1.0883  0.2551
 2358TIP3    H128489   3.816   0.639  15.852 -1.3174 -0.3272 -1.0356
 2358TIP3    H228490   3.723   0.744  15.910  0.5504  0.3863  0.7948
 2359TIP3   OH228491   3.041   0.677   5.171 -0.2145  0.3001  0.1474
 2359TIP3    H128492   2.971   0.700   5.232  0.1355  2.6120 -0.2343
 2359TIP3    H228493   3.112   0.647   5.227 -0.7005  0.1643  0.7018
 2360TIP3   OH228494   4.164   6.617  17.242 -0.0955  0.4103  0.1851
 2360TIP3    H128495   4.120   6.664  17.171  1.4506  2.9154  0.7615
 2360TIP3    H228496   4.116   6.642  17.320  0.6817  0.9841  0.4886
 2361TIP3   OH228497   5.509   4.605  12.341  0.0094 -0.5252  0.1462
 2361TIP3    H128498   5.518   4.526  12.288 -0.7954  0.8291 -2.1494
 2361TIP3    H228499   5.429   4.647  12.309 -0.5129  0.4130  2.4571
 2362TIP3   OH228500   4.182   6.668  13.105 -0.3472  0.3500 -0.9851
 2362TIP3    H128501   4.147   6.757  13.108 -0.0226  0.5196 -1.9523
 2362TIP3    H228502   4.268   6.677  13.064  0.1030 -0.2912 -0.2254
 2363TIP3   OH228503   6.618   4.583   4.011  0.2469  0.2712 -0.1002
 2363TIP3    H128504   6.705   4.557   4.042  0.0735 -1.3391 -0.8448
 2363TIP3    H228505   6.625   4.677   3.995  1.0742  0.6643  2.2735
 2364TIP3   OH228506   4.469   1.546   5.627 -0.4685 -0.0288 -0.1818
 2364TIP3    H128507   4.430   1.584   5.705  1.8713  0.3409  0.9127
 2364TIP3    H228508   4.561   1.532   5.650  0.0949 -0.8600 -2.5436
 2365TIP3   OH228509   3.202   5.179  13.246  0.2637  0.5027 -0.2348
 2365TIP3    H128510   3.263   5.177  13.173  0.6549  3.7573 -0.1562
 2365TIP3    H228511   3.153   5.261  13.234 -0.0720  0.8638  2.8011
 2366TIP3   OH228512   5.027   1.825   3.867 -0.4261 -0.1818  0.0103
 2366TIP3    H128513   5.113   1.783   3.865  0.3043  1.0808  2.0989
 2366TIP3    H228514   4.965   1.753   3.880  0.4203 -0.9704 -0.2163
 2367TIP3   OH228515   5.481   1.162   5.188 -0.4651 -0.2512  0.0102
 2367TIP3    H128516   5.520   1.249   5.175 -0.2993 -0.6286 -2.4792
 2367TIP3    H228517   5.439   1.168   5.274 -1.9324  2.8789 -0.7659
 2368TIP3   OH228518   5.128   3.306   1.151  0.2739 -0.7048 -0.0388
 2368TIP3    H128519   5.139   3.266   1.065 -0.4983  0.1707 -0.5642
 2368TIP3    H228520   5.119   3.399   1.133 -0.0323 -0.5263  0.9789
 2369TIP3   OH228521   2.305   5.876   0.247  0.0882 -0.2156 -0.1176
 2369TIP3    H128522   2.332   5.812   0.181 -0.1155  0.9348 -1.3591
 2369TIP3    H228523   2.374   5.942   0.245  0.0204 -0.1069  0.7589
 2370TIP3   OH228524   2.901   3.881   5.052 -0.4612 -0.1422  0.0403
 2370TIP3    H128525   2.938   3.928   4.977 -1.1637  1.2860  0.5453
 2370TIP3    H228526   2.843   3.816   5.013 -0.3822  0.2012 -0.6647
 2371TIP3   OH228527   0.599   3.227  15.161  0.0469 -0.0509  0.1245
 2371TIP3    H128528   0.694   3.217  15.167  0.0300 -0.2333  0.0895
 2371TIP3    H228529   0.580   3.306  15.212  0.2000 -0.1041  0.2650
 2372TIP3   OH228530   0.410   4.080  16.852 -0.0848 -0.8644  0.4470
 2372TIP3    H128531   0.321   4.062  16.820 -0.5992  0.6594  0.9569
 2372TIP3    H228532   0.398   4.108  16.942  0.6242  1.6702 -0.1526
 2373TIP3   OH228533   4.968   6.717  15.330  0.0422 -0.0063 -0.1015
 2373TIP3    H128534   5.000   6.687  15.245  0.0199  1.5335 -0.6762
 2373TIP3    H228535   5.043   6.707  15.389  0.8207  1.1255 -0.8520
 2374TIP3   OH228536   1.718   5.735   0.539 -0.1524 -0.1363  0.1010
 2374TIP3    H128537   1.806   5.770   0.528  0.4998 -1.3390  1.2512
 2374TIP3    H228538   1.727   5.666   0.605 -2.3330  1.1675  1.9145
 2375TIP3   OH228539   5.290   4.205  11.357 -0.4644  0.4996 -0.7082
 2375TIP3    H128540   5.291   4.295  11.325 -1.0312  0.5233 -0.6618
 2375TIP3    H228541   5.206   4.196  11.402 -0.6145 -0.1841 -1.0987
 2376TIP3   OH228542   5.989   5.626   5.890 -0.0080  0.4052  0.6414
 2376TIP3    H128543   5.973   5.577   5.970 -1.7540  0.5843  0.4527
 2376TIP3    H228544   5.905   5.667   5.870  0.3400  0.2688 -1.3437
 2377TIP3   OH228545   6.082   5.045  16.763  0.1723 -0.3641  0.1075
 2377TIP3    H128546   6.135   5.124  16.753  0.9156 -0.7154  1.1142
 2377TIP3    H228547   6.033   5.058  16.844  0.1208 -0.8283  0.1549
 2378TIP3   OH228548   3.735   5.273   0.079  0.4212 -0.4356 -0.3300
 2378TIP3    H128549   3.697   5.359   0.093  0.2267 -0.5700 -0.0293
 2378TIP3    H228550   3.742   5.264  -0.016 -1.2619 -0.8273 -0.4379
 2379TIP3   OH228551   0.172   0.321   3.056 -0.0066  0.1252  0.1798
 2379TIP3    H128552   0.111   0.273   3.000  0.1536  1.1864 -0.9378
 2379TIP3    H228553   0.117   0.377   3.110 -0.0802  0.1412  0.0865
 2380TIP3   OH228554   4.010   1.528   1.347 -0.0967  0.7939 -0.8223
 2380TIP3    H128555   4.019   1.474   1.268 -2.2172  1.4464 -1.5816
 2380TIP3    H228556   3.957   1.602   1.320 -1.6956  0.5833  1.4019
 2381TIP3   OH228557   2.571   0.510  13.115 -0.0111 -0.5909 -0.0109
 2381TIP3    H128558   2.653   0.559  13.111 -0.3811  0.1100  0.7103
 2381TIP3    H228559   2.572   0.455  13.037  0.9483 -0.2816 -0.2284
 2382TIP3   OH228560   3.529   5.898   1.030  0.4587  0.0364 -0.0272
 2382TIP3    H128561   3.487   5.824   1.076 -0.1164  0.7838  0.6760
 2382TIP3    H228562   3.497   5.891   0.940  0.1530 -0.3881  0.1073
 2383TIP3   OH228563   5.014   3.106   5.891 -0.4642  0.4377  0.1457
 2383TIP3    H128564   4.927   3.119   5.928 -0.8753 -1.3283 -0.1420
 2383TIP3    H228565   5.000   3.046   5.818  0.9805  0.2729 -0.0138
 2384TIP3   OH228566   0.341   5.437  12.495 -0.7703  0.0765  0.3296
 2384TIP3    H128567   0.262   5.417  12.546 -0.4956 -0.2107  0.6433
 2384TIP3    H228568   0.314   5.425  12.404 -1.7478  2.1904  0.2714
 2385TIP3   OH228569   5.098   6.078  14.674  0.0914 -0.3120  0.2490
 2385TIP3    H128570   5.049   6.085  14.756  1.6819 -1.3034  1.3647
 2385TIP3    H228571   5.052   6.011  14.624  0.4210 -1.4291  1.3874
 2386TIP3   OH228572   2.649   5.268  13.699 -0.0411 -0.5243  0.9814
 2386TIP3    H128573   2.709   5.193  13.701  0.1590 -0.4259 -0.6512
 2386TIP3    H228574   2.681   5.325  13.770  2.0755 -0.2781 -0.0791
 2387TIP3   OH228575   2.864   0.747   5.384  0.4720  0.1779  0.2504
 2387TIP3    H128576   2.810   0.695   5.443  0.5848  0.0629  0.2517
 2387TIP3    H228577   2.937   0.777   5.438 -0.2960  1.4740  0.6090
 2388TIP3   OH228578   0.570   2.874  11.349  0.0941 -0.2201 -0.0375
 2388TIP3    H128579   0.607   2.786  11.335 -1.8024 -1.1696  0.5840
 2388TIP3    H228580   0.563   2.911  11.262 -1.4937 -1.7489 -0.6195
 2389TIP3   OH228581   0.325   1.767  13.172  0.1459 -0.1680 -0.2509
 2389TIP3    H128582   0.370   1.741  13.091  2.1982 -0.5835  0.9438
 2389TIP3    H228583   0.365   1.851  13.195  0.1139 -0.4126  0.7185
 2390TIP3   OH228584   2.603   1.628  11.837 -0.4358  0.4062 -0.2869
 2390TIP3    H128585   2.663   1.642  11.910  1.1208 -2.4526 -0.8602
 2390TIP3    H228586   2.585   1.534  11.838 -0.1348  0.1711 -3.6972
 2391TIP3   OH228587   2.663   3.956  12.222 -0.2959  0.2829 -0.3519
 2391TIP3    H128588   2.655   4.051  12.222  0.5875  0.3911 -2.0100
 2391TIP3    H228589   2.725   3.937  12.292 -1.8486  0.7547  1.2053
 2392TIP3   OH228590   2.685   2.243  14.693  0.3736  0.7534  0.0053
 2392TIP3    H128591   2.644   2.329  14.705  0.0028  0.2611  3.1881
 2392TIP3    H228592   2.617   2.190  14.652  0.2755  1.6722 -1.0854
 2393TIP3   OH228593   0.221   3.865   0.986  0.3656  0.1794 -0.0704
 2393TIP3    H128594   0.268   3.947   0.972 -1.1501  1.0604 -0.2579
 2393TIP3    H228595   0.130   3.887   0.967 -0.3544 -1.0835  1.6919
 2394TIP3   OH228596   3.354   0.973  13.357 -0.1160  0.0038  0.1619
 2394TIP3    H128597   3.261   0.972  13.380 -0.2852 -1.7112 -0.4251
 2394TIP3    H228598   3.399   0.940  13.435 -0.0856  0.0412  0.1600
 2395TIP3   OH228599   4.669   0.473   1.856  0.6360  0.1103  0.5020
 2395TIP3    H128600   4.588   0.450   1.901  0.1748  0.8316  0.0610
 2395TIP3    H228601   4.733   0.410   1.888 -0.2892 -0.9866  0.2535
 2396TIP3   OH228602   1.375   4.075  11.146  0.0337  0.1032  0.5796
 2396TIP3    H128603   1.296   4.108  11.189 -1.2116 -1.6737 -0.2091
 2396TIP3    H228604   1.397   3.995  11.194 -1.3990 -1.9388 -1.9531
 2397TIP3   OH228605   1.760   3.151   5.195 -0.3634 -0.1069 -0.2819
 2397TIP3    H128606   1.842   3.199   5.195 -0.5849  0.2899  0.4145
 2397TIP3    H228607   1.753   3.114   5.106  0.8012 -0.5747 -0.1928
 2398TIP3   OH228608   1.075   5.449  15.737  0.3899  0.0682 -0.3419
 2398TIP3    H128609   1.074   5.543  15.752  0.7651 -0.1412  1.1169
 2398TIP3    H228610   1.125   5.438  15.656 -0.9223  1.2028 -1.3505
 2399TIP3   OH228611   0.841   1.936   3.089 -0.0019 -0.1086 -0.1241
 2399TIP3    H128612   0.773   2.002   3.105  0.0629  0.0917 -0.6588
 2399TIP3    H228613   0.919   1.987   3.068 -0.9338 -0.2319 -4.9576
 2400TIP3   OH228614   2.684   3.595  16.920  0.1913 -0.2117  0.3056
 2400TIP3    H128615   2.740   3.567  16.848  0.1407  0.3732  0.0303
 2400TIP3    H228616   2.744   3.632  16.984  0.0573  1.5353 -0.5117
 2401TIP3   OH228617   5.390   1.463  15.836  0.1730 -0.2127 -0.1601
 2401TIP3    H128618   5.457   1.511  15.886 -1.5321  0.5450  1.4944
 2401TIP3    H228619   5.317   1.453  15.897 -1.4182 -0.6270 -2.0527
 2402TIP3   OH228620   3.823   1.076   2.671 -0.2191  0.2713  0.0635
 2402TIP3    H128621   3.862   1.044   2.590  1.4215  0.9174  0.5634
 2402TIP3    H228622   3.791   1.164   2.650  1.7591  1.1472  0.5077
 2403TIP3   OH228623   2.247   0.655   1.362  0.1209  0.9199  0.4397
 2403TIP3    H128624   2.257   0.607   1.444  0.3967  2.0209  1.0581
 2403TIP3    H228625   2.169   0.709   1.374 -0.6357  0.1051 -0.5409
 2404TIP3   OH228626   5.172   1.185  13.251 -0.0909  0.3133  0.0161
 2404TIP3    H128627   5.229   1.138  13.312 -0.3270 -0.0242 -0.0242
 2404TIP3    H228628   5.196   1.277  13.263  0.1347  0.2149  0.3379
 2405TIP3   OH228629   6.722   3.247   2.391  0.4563 -0.5906 -0.2780
 2405TIP3    H128630   6.763   3.190   2.457 -0.0784 -0.8397 -0.1480
 2405TIP3    H228631   6.704   3.328   2.438  2.4302  0.2099 -0.8104
 2406TIP3   OH228632   1.183   0.999  10.345  0.1470  0.4625 -0.4359
 2406TIP3    H128633   1.255   1.049  10.306 -0.6311  0.5900 -1.7882
 2406TIP3    H228634   1.104   1.042  10.313 -0.5684  0.7903  1.6325
 2407TIP3   OH228635   3.678   4.079   3.365 -0.2108  0.4704 -0.0582
 2407TIP3    H128636   3.624   4.000   3.360 -0.3958  0.6414 -1.3303
 2407TIP3    H228637   3.668   4.119   3.278  1.0061  1.1394  0.0924
 2408TIP3   OH228638   4.572   5.244   5.843  0.1511  0.9376 -0.4987
 2408TIP3    H128639   4.617   5.214   5.764  0.7083  0.4253  0.0056
 2408TIP3    H228640   4.580   5.339   5.839 -1.6005  1.0863 -2.0929
 2409TIP3   OH228641   5.050   0.707   0.853  0.1600 -0.4391  0.8197
 2409TIP3    H128642   4.967   0.707   0.805  0.8719  0.4982 -0.4585
 2409TIP3    H228643   5.032   0.655   0.932 -0.2293 -4.7811 -1.7957
 2410TIP3   OH228644   0.256   1.091  17.254 -0.1826 -0.7488 -0.0618
 2410TIP3    H128645   0.179   1.038  17.231 -1.0152  1.1355 -2.0221
 2410TIP3    H228646   0.277   1.138  17.173  2.1878 -0.1299  0.8356
 2411TIP3   OH228647   3.022   4.798  13.558 -0.1718 -0.4440  0.0398
 2411TIP3    H128648   3.011   4.881  13.605 -0.6753 -0.1993 -0.4861
 2411TIP3    H228649   3.019   4.823  13.466  1.2383 -0.8620 -0.1282
 2412TIP3   OH228650   5.706   4.195  12.373  0.8196 -0.2742 -0.5776
 2412TIP3    H128651   5.773   4.238  12.320  0.8895 -0.1082 -0.3570
 2412TIP3    H228652   5.715   4.102  12.351 -0.0259 -0.0792 -1.8254
 2413TIP3   OH228653   1.198   0.005  16.825  0.0414 -0.2927  0.4611
 2413TIP3    H128654   1.243  -0.053  16.886  0.3746 -0.8553 -0.3118
 2413TIP3    H228655   1.224  -0.026  16.738 -0.3592  0.5480  0.0287
 2414TIP3   OH228656   4.900   5.039   3.793  0.3342 -0.2654 -0.4639
 2414TIP3    H128657   4.853   5.119   3.770  0.4491 -0.1882 -0.4299
 2414TIP3    H228658   4.870   5.018   3.882  0.4077 -0.1842 -0.4203
 2415TIP3   OH228659   1.007   5.790  12.573  0.8894 -0.2869  0.1458
 2415TIP3    H128660   0.967   5.742  12.501  1.0475 -0.0270 -0.1195
 2415TIP3    H228661   1.095   5.754  12.580  0.9914 -0.0736 -0.0211
 2416TIP3   OH228662   1.570   0.722  11.726 -0.6128  0.0358  0.1183
 2416TIP3    H128663   1.586   0.630  11.747  0.7303  0.1881 -0.1799
 2416TIP3    H228664   1.516   0.720  11.646  0.2649 -0.4971 -0.4720
 2417TIP3   OH228665   5.002   2.948  16.371  0.6582  0.5953  1.2870
 2417TIP3    H128666   4.959   2.957  16.286 -0.1041  0.2829  1.6293
 2417TIP3    H228667   4.964   3.018  16.424 -0.5596 -0.5884  2.0342
 2418TIP3   OH228668   3.138   5.357   1.496  0.4604 -0.0997  0.0591
 2418TIP3    H128669   3.209   5.416   1.522  0.9667 -0.9070  0.5767
 2418TIP3    H228670   3.179   5.270   1.495 -0.1218 -0.3767 -1.2331
 2419TIP3   OH228671   0.950   6.603  17.230  0.2558 -0.0022  0.0960
 2419TIP3    H128672   0.984   6.514  17.240  0.2506  0.1581  1.7683
 2419TIP3    H228673   0.976   6.649  17.310 -2.4920  0.5649  0.7884
 2420TIP3   OH228674   2.920   6.120  15.895  0.3293  0.3165 -0.1160
 2420TIP3    H128675   2.836   6.107  15.939  1.2177 -0.5369  1.4111
 2420TIP3    H228676   2.909   6.080  15.809 -0.7087 -0.1324  0.2084
 2421TIP3   OH228677   6.320   6.067  10.562  0.1396  0.0531 -0.6021
 2421TIP3    H128678   6.346   5.975  10.556  0.4495  0.0554  0.4632
 2421TIP3    H228679   6.244   6.066  10.621  0.1436  0.4797 -0.5917
 2422TIP3   OH228680   4.012   2.550   5.234 -0.0310  1.1762  0.2820
 2422TIP3    H128681   4.108   2.555   5.233 -0.0136  1.1230  1.0995
 2422TIP3    H228682   3.993   2.458   5.255 -0.2788  0.9083 -1.0031
 2423TIP3   OH228683   6.149   5.655   4.284 -0.7013 -0.3003 -0.5121
 2423TIP3    H128684   6.105   5.612   4.211 -0.7577 -1.5225  0.2205
 2423TIP3    H228685   6.126   5.603   4.360 -0.1776  0.6259  0.3011
 2424TIP3   OH228686   2.460   3.174  15.985 -1.0417 -0.3829 -0.0377
 2424TIP3    H128687   2.455   3.168  15.890  1.1838 -0.0465 -0.2213
 2424TIP3    H228688   2.542   3.132  16.008 -1.4074 -0.2171  1.7279
 2425TIP3   OH228689   4.350   3.735   5.208 -0.3172  0.3029 -0.8259
 2425TIP3    H128690   4.334   3.644   5.236  0.9980 -0.4392 -2.3065
 2425TIP3    H228691   4.383   3.726   5.119  1.8339  2.1096 -0.2684
 2426TIP3   OH228692   4.108   1.916  11.745  0.4006 -0.1648  0.1980
 2426TIP3    H128693   4.098   1.912  11.650 -2.6205  0.8479  0.3571
 2426TIP3    H228694   4.078   2.004  11.768  2.9039  0.3292  1.9788
 2427TIP3   OH228695   3.982   5.498  15.915 -0.0156 -0.1775  0.0291
 2427TIP3    H128696   3.898   5.522  15.874 -0.0478 -0.5659 -0.1361
 2427TIP3    H228697   4.034   5.577  15.911 -0.4013  0.0901  0.1943
 2428TIP3   OH228698   2.825   2.536  12.681 -0.1670  0.2035 -0.4240
 2428TIP3    H128699   2.743   2.517  12.726  0.6264  0.2928  1.1322
 2428TIP3    H228700   2.866   2.605  12.733  2.7270 -2.4974  1.2448
 2429TIP3   OH228701   3.597   6.634   3.456  0.3811 -0.1291 -0.8092
 2429TIP3    H128702   3.509   6.667   3.469  0.1488 -0.5844 -1.1981
 2429TIP3    H228703   3.597   6.549   3.499  0.6245 -0.1421 -0.8338
 2430TIP3   OH228704   3.193   2.491   2.569 -0.0239 -0.5134  0.7286
 2430TIP3    H128705   3.153   2.408   2.594  1.7619 -1.8814 -0.6610
 2430TIP3    H228706   3.268   2.500   2.629  0.5256 -0.5669  0.0606
 2431TIP3   OH228707   0.286   3.424  14.980  0.2678 -0.0989 -0.2870
 2431TIP3    H128708   0.367   3.374  14.970 -0.0788 -0.5995 -0.6247
 2431TIP3    H228709   0.297   3.471  15.063  0.2406 -1.4283  0.4971
 2432TIP3   OH228710   0.585   6.054  13.342  0.3203 -0.2855  0.1420
 2432TIP3    H128711   0.588   5.975  13.397 -0.0171  0.8296  1.8128
 2432TIP3    H228712   0.498   6.052  13.303  0.4798 -0.9669 -0.2057
 2433TIP3   OH228713   0.451   0.036   5.716  0.2808  0.4103  0.3404
 2433TIP3    H128714   0.407  -0.034   5.765  1.0901 -0.1576  0.2776
 2433TIP3    H228715   0.380   0.081   5.670 -0.0653 -1.9902 -1.6770
 2434TIP3   OH228716   0.786   5.524   3.585  0.2162 -0.3561 -0.0488
 2434TIP3    H128717   0.749   5.452   3.534  0.6781 -1.3987  1.0297
 2434TIP3    H228718   0.737   5.524   3.667  1.0117 -0.2184  0.4414
 2435TIP3   OH228719   3.795   5.272   4.679  0.1534  0.6577 -0.0931
 2435TIP3    H128720   3.878   5.279   4.630  0.2158  2.4071  0.1711
 2435TIP3    H228721   3.821   5.240   4.766  0.0300 -2.5647 -1.1240
 2436TIP3   OH228722   6.287   5.282   0.041  0.0684 -0.3866  0.2516
 2436TIP3    H128723   6.364   5.333   0.066 -0.3651 -0.2470  1.3663
 2436TIP3    H228724   6.217   5.347   0.032 -0.2921 -0.6876  0.8485
 2437TIP3   OH228725   4.574   1.567   5.151 -0.1772 -0.2478 -0.3340
 2437TIP3    H128726   4.600   1.501   5.215  1.5742  0.3886 -0.3254
 2437TIP3    H228727   4.656   1.593   5.110 -1.2109 -0.4536 -2.6877
 2438TIP3   OH228728   5.484   0.607   4.733  0.3542 -0.5495  0.1667
 2438TIP3    H128729   5.533   0.616   4.651  0.7042 -1.8419  0.2028
 2438TIP3    H228730   5.459   0.696   4.756  1.7549  0.0387 -0.4356
 2439TIP3   OH228731   4.418   4.903   2.218 -0.1646  0.1492 -0.0837
 2439TIP3    H128732   4.346   4.939   2.166  0.3328  1.6703  0.2560
 2439TIP3    H228733   4.375   4.840   2.277 -0.9954 -0.1313 -0.9538
 2440TIP3   OH228734   6.553   2.624   3.030 -0.1375  0.4039 -0.5295
 2440TIP3    H128735   6.501   2.575   2.967 -1.2468  1.9084 -0.8299
 2440TIP3    H228736   6.489   2.657   3.093  0.6797  0.8166  0.1029
 2441TIP3   OH228737   5.502   3.162   3.611  0.5025  0.7669 -0.5792
 2441TIP3    H128738   5.435   3.190   3.673  1.4456 -0.2240  0.9370
 2441TIP3    H228739   5.453   3.142   3.531 -1.2444 -1.1971  0.8562
 2442TIP3   OH228740   2.278   2.563   6.243  0.7207  0.3956  0.0486
 2442TIP3    H128741   2.267   2.644   6.293 -0.5786  0.5387 -0.4415
 2442TIP3    H228742   2.297   2.497   6.310  2.5131  1.2067  0.3925
 2443TIP3   OH228743   3.201   6.126  11.556 -0.1968  0.4500  0.2584
 2443TIP3    H128744   3.132   6.087  11.502  1.0352 -0.6722 -0.5437
 2443TIP3    H228745   3.169   6.215  11.573 -1.8366 -0.0310 -0.0797
 2444TIP3   OH228746   4.114   5.317  11.116 -0.1241  0.0983  0.0769
 2444TIP3    H128747   4.150   5.382  11.056  1.7927 -0.4567  0.5837
 2444TIP3    H228748   4.151   5.234  11.087 -0.2948 -0.3728  1.1602
 2445TIP3   OH228749   6.278   1.459  16.295  0.3352 -0.1203  0.5887
 2445TIP3    H128750   6.317   1.391  16.240  2.6796  0.9418  0.7979
 2445TIP3    H228751   6.265   1.533  16.236 -0.6683 -0.2031  0.6970
 2446TIP3   OH228752   0.478   0.235   5.387  0.0212  0.1034  0.2067
 2446TIP3    H128753   0.573   0.220   5.397 -0.3867 -1.7909  2.0012
 2446TIP3    H228754   0.451   0.170   5.322 -0.0028  0.8750 -0.5586
 2447TIP3   OH228755   0.673   5.247  15.005  0.3525 -0.7138 -0.1644
 2447TIP3    H128756   0.701   5.181  15.069 -0.6826 -1.4212 -0.4092
 2447TIP3    H228757   0.594   5.286  15.044 -1.1881 -2.2067 -1.6184
 2448TIP3   OH228758   5.146   1.495  12.618 -0.5433 -0.2666 -0.5750
 2448TIP3    H128759   5.066   1.463  12.660 -0.0534 -0.4578  0.2302
 2448TIP3    H228760   5.134   1.590  12.613 -0.0058 -0.0629  1.3459
 2449TIP3   OH228761   5.308   1.575   3.017  0.2469  0.1729  0.3206
 2449TIP3    H128762   5.391   1.580   2.970  0.2036 -2.0549 -0.1207
 2449TIP3    H228763   5.243   1.613   2.957  0.6809  0.3425 -0.0415
 2450TIP3   OH228764   0.851   3.500   3.785  0.2096  0.4130 -0.3591
 2450TIP3    H128765   0.823   3.533   3.870  1.7520 -0.2999  0.4560
 2450TIP3    H228766   0.917   3.434   3.805 -1.5041 -1.9461 -1.9932
 2451TIP3   OH228767   6.718   1.241   2.321 -0.3664  0.2098 -0.2762
 2451TIP3    H128768   6.678   1.269   2.403 -2.1561 -0.2656 -0.9322
 2451TIP3    H228769   6.644   1.220   2.264  0.7317  2.1556 -2.6176
 2452TIP3   OH228770   1.534   1.102   2.098  0.8274  0.1174  0.0895
 2452TIP3    H128771   1.605   1.165   2.082  0.3610  0.5209 -0.4423
 2452TIP3    H228772   1.501   1.124   2.185  1.1144  0.1584  0.1912
 2453TIP3   OH228773   2.079   2.043  13.948  0.3798 -0.3566  0.0218
 2453TIP3    H128774   2.041   1.965  13.907  0.1336  0.3223 -1.0941
 2453TIP3    H228775   2.008   2.079  14.001  0.4689 -0.8337  0.4744
 2454TIP3   OH228776   0.264   3.392  13.004  0.2902  0.7740  0.3365
 2454TIP3    H128777   0.347   3.426  12.971  0.8332 -0.3807  0.4714
 2454TIP3    H228778   0.288   3.337  13.078 -0.5236 -0.1108 -0.0337
 2455TIP3   OH228779   1.029   3.773  13.040 -0.1856 -0.1000 -0.5296
 2455TIP3    H128780   1.111   3.797  13.083 -1.0973 -0.7680  1.7375
 2455TIP3    H228781   1.056   3.721  12.965  1.4770 -0.2920  0.1540
 2456TIP3   OH228782   0.434   5.915  15.693 -0.1330 -0.1752 -0.5050
 2456TIP3    H128783   0.414   5.917  15.787  0.7134  0.6635 -0.3222
 2456TIP3    H228784   0.471   5.827  15.679  0.3105 -0.0939  0.0826
 2457TIP3   OH228785   5.275   2.807  15.453 -0.0336 -0.7084 -0.2134
 2457TIP3    H128786   5.293   2.714  15.441 -4.1450 -1.6261 -0.6593
 2457TIP3    H228787   5.273   2.843  15.364 -3.3934 -1.4597 -0.5800
 2458TIP3   OH228788   0.545   3.789  11.755  0.7772 -0.0563 -0.3567
 2458TIP3    H128789   0.569   3.806  11.846 -1.8524  1.3133  0.1692
 2458TIP3    H228790   0.608   3.839  11.704  0.7644  1.2199  0.8307
 2459TIP3   OH228791   2.185   5.171   3.111  0.1359  0.1979 -0.5998
 2459TIP3    H128792   2.253   5.237   3.106  2.1167 -1.6997 -0.0187
 2459TIP3    H228793   2.107   5.218   3.140  1.0313  2.5221 -1.7616
 2460TIP3   OH228794   5.623   5.705   5.725  0.0519  0.3291 -0.8260
 2460TIP3    H128795   5.676   5.740   5.797  0.5982 -0.5983 -0.7636
 2460TIP3    H228796   5.661   5.619   5.708 -1.6311 -0.4902 -0.5761
 2461TIP3   OH228797   4.298   1.723  16.837  0.3194 -0.1449  0.3865
 2461TIP3    H128798   4.314   1.814  16.863  1.1370  0.4880 -2.0351
 2461TIP3    H228799   4.266   1.729  16.747 -0.1106 -2.2420  0.3547
 2462TIP3   OH228800   2.546   5.170   4.017  0.0176 -0.0362  0.1278
 2462TIP3    H128801   2.529   5.244   3.958  0.3941 -0.1324 -0.1038
 2462TIP3    H228802   2.641   5.160   4.015 -0.1381 -1.8585 -1.4831
 2463TIP3   OH228803   6.026   3.930  12.684  0.4363  0.1291 -0.1036
 2463TIP3    H128804   5.942   3.897  12.717  0.3840 -0.5830 -0.8938
 2463TIP3    H228805   6.027   3.903  12.592  1.0805  1.0339 -0.3757
 2464TIP3   OH228806   5.085   4.071   0.649 -0.0143  0.2741 -0.5534
 2464TIP3    H128807   5.036   3.997   0.687 -1.1348  1.3477  0.1744
 2464TIP3    H228808   5.026   4.107   0.583  0.3609  0.7594 -0.6242
 2465TIP3   OH228809   3.357   0.247  15.429 -0.4186 -0.3434 -0.5482
 2465TIP3    H128810   3.294   0.308  15.392  0.0997  0.9237  0.5645
 2465TIP3    H228811   3.308   0.199  15.496 -0.5159 -0.2601 -0.5604
 2466TIP3   OH228812   4.284   2.201  14.938 -0.0150  0.1988 -1.0218
 2466TIP3    H128813   4.204   2.247  14.963 -0.2834 -1.2136  0.8944
 2466TIP3    H228814   4.350   2.231  15.001  0.7510  0.5778 -1.9593
 2467TIP3   OH228815   1.092   1.492  13.515  0.1475 -0.6006 -0.3970
 2467TIP3    H128816   1.176   1.496  13.561  0.1556 -1.2451 -0.3372
 2467TIP3    H228817   1.110   1.531  13.429  0.8231 -1.7732 -0.8141
 2468TIP3   OH228818   1.504   6.235   3.889 -0.1427 -0.0271 -0.0149
 2468TIP3    H128819   1.424   6.274   3.854 -1.0734 -1.8082  0.0184
 2468TIP3    H228820   1.560   6.220   3.812 -0.1670  0.4841 -0.1337
 2469TIP3   OH228821   0.765   6.269  16.674  0.0359  0.2185 -0.5957
 2469TIP3    H128822   0.776   6.363  16.689  1.9095 -0.0484 -0.0249
 2469TIP3    H228823   0.720   6.238  16.753  0.8524  0.3896 -0.0595
 2470TIP3   OH228824   3.105   2.930  16.211 -0.7570  0.8045  0.0975
 2470TIP3    H128825   3.074   2.972  16.291 -1.3650 -1.6578  1.2524
 2470TIP3    H228826   3.166   2.994  16.173 -0.0252  1.8614  2.8015
 2471TIP3   OH228827   1.817   2.620  16.619  0.4089 -0.1971  0.0311
 2471TIP3    H128828   1.860   2.535  16.616 -0.0932 -0.4339 -1.1942
 2471TIP3    H228829   1.741   2.606  16.675  0.2591 -0.5970 -0.2646
 2472TIP3   OH228830   4.639   3.563   4.596  0.0559  0.1912 -0.2816
 2472TIP3    H128831   4.615   3.635   4.655 -0.3963  0.4748 -0.8144
 2472TIP3    H228832   4.647   3.603   4.510  0.2407 -0.3156 -0.5054
 2473TIP3   OH228833   5.762   2.906   3.074  0.2934  0.3156  0.0889
 2473TIP3    H128834   5.832   2.941   3.019  0.7854 -0.4732  0.1919
 2473TIP3    H228835   5.689   2.893   3.013  0.3605  0.7726 -0.0963
 2474TIP3   OH228836   4.522   1.979   5.779  0.1497  0.6477  0.0850
 2474TIP3    H128837   4.458   1.978   5.850 -0.1974 -0.3589 -0.2376
 2474TIP3    H228838   4.602   1.944   5.818 -0.0073  0.2060  0.0043
 2475TIP3   OH228839   4.628   1.510  13.850  0.5236  0.0011  0.7411
 2475TIP3    H128840   4.684   1.539  13.921  1.2419 -0.2291  0.2751
 2475TIP3    H228841   4.665   1.427  13.821  1.5891  1.1250 -1.3441
 2476TIP3   OH228842   0.907   2.669   2.059  0.8165 -0.2367 -0.1907
 2476TIP3    H128843   0.924   2.604   1.992  2.6230 -0.3620  0.3338
 2476TIP3    H228844   0.865   2.620   2.130  1.2367 -0.6342 -0.2112
 2477TIP3   OH228845   6.118   6.613   3.233 -0.8499  0.1080 -0.2819
 2477TIP3    H128846   6.078   6.683   3.285 -1.1909  0.1567 -0.6054
 2477TIP3    H228847   6.056   6.598   3.162 -1.1577 -1.0677  0.2154
 2478TIP3   OH228848   5.866   5.613   4.000 -0.2126 -0.1416  0.0322
 2478TIP3    H128849   5.819   5.552   3.944  0.6021 -2.3617  1.6011
 2478TIP3    H228850   5.916   5.557   4.060  2.5144  2.0697  0.0394
 2479TIP3   OH228851   0.073   5.748   0.740  0.1447 -0.6891  0.7225
 2479TIP3    H128852   0.077   5.824   0.798  0.2839 -0.1325  0.0066
 2479TIP3    H228853   0.151   5.697   0.763  0.7703  0.0533  0.3426
 2480TIP3   OH228854   3.065   5.621  15.504  0.1405  0.1615 -0.5533
 2480TIP3    H128855   3.059   5.716  15.519 -1.2481  0.2474 -1.5312
 2480TIP3    H228856   3.111   5.613  15.421  2.2609 -0.1322  0.5823
 2481TIP3   OH228857   2.154   4.379   6.547 -0.4116  0.0208  0.2274
 2481TIP3    H128858   2.169   4.474   6.546  0.3475 -0.0899 -0.8103
 2481TIP3    H228859   2.179   4.352   6.635 -0.2342  0.7236  0.4021
 2482TIP3   OH228860   6.076   6.277   4.772  0.1339 -0.0639  0.0102
 2482TIP3    H128861   6.011   6.325   4.720 -0.5320  1.3155  1.9664
 2482TIP3    H228862   6.027   6.203   4.808  0.0208  0.1687  0.3389
 2483TIP3   OH228863   1.808   0.364   5.377  0.1566 -0.6826 -0.3604
 2483TIP3    H128864   1.865   0.400   5.309 -0.7339 -0.3905 -0.9740
 2483TIP3    H228865   1.721   0.395   5.354 -0.4566 -2.2235 -0.2185
 2484TIP3   OH228866   1.440   2.806  11.068 -0.0953  0.4690 -0.2724
 2484TIP3    H128867   1.430   2.902  11.064  0.2415  0.4834 -0.8353
 2484TIP3    H228868   1.374   2.778  11.131 -1.2938  0.9191 -1.2773
 2485TIP3   OH228869   3.812   3.100   1.886  0.0155 -0.2379 -0.1183
 2485TIP3    H128870   3.829   3.153   1.808 -1.0379 -0.1588 -0.3115
 2485TIP3    H228871   3.828   3.010   1.858 -0.0224 -0.1778 -0.3374
 2486TIP3   OH228872   1.549   3.315  11.851 -0.0007  0.4559 -0.3655
 2486TIP3    H128873   1.530   3.286  11.940 -0.6091  0.0926 -0.6082
 2486TIP3    H228874   1.463   3.336  11.814  0.1694 -0.1334 -1.1186
 2487TIP3   OH228875   5.805   3.010  16.267  0.1114 -0.1850 -0.2388
 2487TIP3    H128876   5.720   2.985  16.230 -0.1670 -5.1211  2.8411
 2487TIP3    H228877   5.785   3.084  16.325 -1.3658  0.7702 -1.8490
 2488TIP3   OH228878   3.605   3.674  12.342  0.5773  0.0181 -0.1070
 2488TIP3    H128879   3.603   3.717  12.256  1.0941  0.7625  0.2481
 2488TIP3    H228880   3.515   3.679  12.374  0.6675  0.9929  0.0061
 2489TIP3   OH228881   5.056   0.537   3.819  0.2140  0.6130 -0.4015
 2489TIP3    H128882   5.147   0.564   3.804  1.2194  0.1580  3.7577
 2489TIP3    H228883   5.062   0.446   3.847 -1.5998  0.4480 -0.4172
 2490TIP3   OH228884   1.132   0.380  16.568  0.5237 -0.4520  0.3744
 2490TIP3    H128885   1.102   0.453  16.513  0.7118 -0.2016  0.6089
 2490TIP3    H228886   1.204   0.416  16.620 -0.7916 -0.1684  2.0911
 2491TIP3   OH228887   1.637   6.191  15.339  0.0105 -0.1937 -0.2863
 2491TIP3    H128888   1.598   6.272  15.305 -0.7577 -0.6454 -0.5195
 2491TIP3    H228889   1.683   6.218  15.418 -0.8582  0.3688  0.0487
 2492TIP3   OH228890   1.283   1.680  17.127  0.3630 -0.5147 -0.1460
 2492TIP3    H128891   1.354   1.656  17.188 -0.0442 -0.9184  0.1838
 2492TIP3    H228892   1.307   1.766  17.095  0.3373 -0.0609  0.9858
 2493TIP3   OH228893   5.547   4.224   5.961 -0.2659 -0.8341  0.1915
 2493TIP3    H128894   5.628   4.175   5.966 -0.0041 -0.3354  1.1208
 2493TIP3    H228895   5.549   4.281   6.037  0.6284  2.4394 -2.0515
 2494TIP3   OH228896   3.789   4.138  11.394  0.3495 -0.1295 -0.0124
 2494TIP3    H128897   3.738   4.207  11.352  0.6316  2.0452  2.9405
 2494TIP3    H228898   3.837   4.097  11.322 -0.8780  1.8080 -2.0714
 2495TIP3   OH228899   6.166   1.013  15.084  0.6973 -0.5228  0.2644
 2495TIP3    H128900   6.243   0.997  15.138 -0.6946 -2.5249  1.7710
 2495TIP3    H228901   6.110   1.069  15.138  1.0556  0.9495 -0.8336
 2496TIP3   OH228902   4.955   2.478  16.747 -0.1808  0.5138 -0.5928
 2496TIP3    H128903   4.948   2.505  16.655 -1.8539  0.5630 -0.4761
 2496TIP3    H228904   5.041   2.436  16.753  1.3188  3.2169 -1.4449
 2497TIP3   OH228905   3.510   0.455   0.768 -0.1752  0.0682  0.0308
 2497TIP3    H128906   3.445   0.468   0.699 -0.4131  0.4356  0.3223
 2497TIP3    H228907   3.461   0.470   0.850  0.2098  0.0716  0.2610
 2498TIP3   OH228908   6.222   1.973  14.447 -0.8642 -0.1542  0.3868
 2498TIP3    H128909   6.133   1.972  14.484 -1.7086  0.4663 -1.5179
 2498TIP3    H228910   6.210   1.949  14.355  0.9094  0.3587 -0.0121
 2499TIP3   OH228911   2.573   0.148  15.837 -0.4179 -0.3657 -0.0498
 2499TIP3    H128912   2.544   0.228  15.881 -0.3806  0.9274 -2.1804
 2499TIP3    H228913   2.645   0.115  15.891  0.7352  2.0463  0.0600
 2500TIP3   OH228914   6.685   2.330   5.795  1.1363 -0.3624  0.3407
 2500TIP3    H128915   6.735   2.250   5.809  2.2518  0.2926  0.2431
 2500TIP3    H228916   6.601   2.301   5.760  1.3522 -1.5054  0.7391
 2501TIP3   OH228917   3.533   1.600   5.971 -0.1838  0.3313  0.7206
 2501TIP3    H128918   3.577   1.567   5.893  0.1720  2.5868 -0.1033
 2501TIP3    H228919   3.594   1.581   6.042  1.0788  1.2709 -0.0707
 2502TIP3   OH228920   6.243   1.327  11.545 -0.2030 -0.0780 -0.3342
 2502TIP3    H128921   6.245   1.387  11.620 -0.2977 -0.8920  0.3334
 2502TIP3    H228922   6.151   1.300  11.538  0.0362 -1.0689  0.1338
 2503TIP3   OH228923   1.017   0.908   2.028  0.8296 -0.2571 -0.6586
 2503TIP3    H128924   1.106   0.941   2.032 -0.0302  2.4742 -1.9595
 2503TIP3    H228925   0.978   0.930   2.113  1.2919 -1.3579 -0.1308
 2504TIP3   OH228926   1.740   2.778  14.285  0.2881  0.2271  0.4509
 2504TIP3    H128927   1.790   2.857  14.306 -0.5954  0.8544  0.2609
 2504TIP3    H228928   1.714   2.742  14.370  1.8068 -0.6208  0.5893
 2505TIP3   OH228929   6.316   6.755  14.795 -0.2053 -0.0951  0.0817
 2505TIP3    H128930   6.350   6.672  14.761 -0.3008 -1.0660  2.2178
 2505TIP3    H228931   6.234   6.731  14.837  1.3010  0.3848  3.6202
 2506TIP3   OH228932   4.118   3.386  14.075 -0.3329 -0.7135 -0.1574
 2506TIP3    H128933   4.164   3.305  14.054  1.2626 -0.2424  1.3503
 2506TIP3    H228934   4.071   3.368  14.156  0.2886 -0.0370  0.3587
 2507TIP3   OH228935   0.638   0.157   2.038 -0.2481  0.1335  0.2024
 2507TIP3    H128936   0.635   0.063   2.055  0.9774  0.2752  1.3891
 2507TIP3    H228937   0.731   0.179   2.040 -0.5045  1.3489 -0.2313
 2508TIP3   OH228938   0.104   1.681   1.305 -0.7285 -0.6620 -0.1161
 2508TIP3    H128939   0.091   1.589   1.280 -2.4387 -0.5159  0.1051
 2508TIP3    H228940   0.148   1.677   1.390 -0.0550 -1.2468 -0.4767
 2509TIP3   OH228941   5.359   5.002   0.037  0.0590 -0.5413 -0.6772
 2509TIP3    H128942   5.399   4.931  -0.013  2.3225 -0.7841  1.2862
 2509TIP3    H228943   5.396   5.082  -0.000  2.5725 -0.7628  1.0807
 2510TIP3   OH228944   0.178   3.464   4.669 -0.3186 -0.0350  0.2055
 2510TIP3    H128945   0.254   3.506   4.710 -0.8450  0.1907  0.9598
 2510TIP3    H228946   0.209   3.377   4.645 -0.2330 -0.4704  1.8153
 2511TIP3   OH228947   3.614   1.862  12.550  0.2737  0.0678  0.1324
 2511TIP3    H128948   3.605   1.768  12.568  1.4042 -0.3837 -1.4522
 2511TIP3    H228949   3.619   1.868  12.454  1.0960  1.6664  0.2388
 2512TIP3   OH228950   2.131   2.783   3.961 -0.5274 -0.3605  0.7116
 2512TIP3    H128951   2.203   2.829   3.919  0.1207 -2.5439 -0.7956
 2512TIP3    H228952   2.117   2.828   4.044  2.2772  0.4102  0.8476
 2513TIP3   OH228953   2.137   3.328  11.087 -0.3013  0.4425  0.4236
 2513TIP3    H128954   2.208   3.319  11.024  0.4182  0.6756  1.1830
 2513TIP3    H228955   2.122   3.239  11.118 -2.2553 -0.0883 -1.7196
 2514TIP3   OH228956   4.498   1.776   2.484  0.0486 -0.2200  0.0399
 2514TIP3    H128957   4.465   1.687   2.467  0.5228 -0.1032 -1.6840
 2514TIP3    H228958   4.426   1.819   2.530  0.4654 -1.9713  2.5724
 2515TIP3   OH228959   2.019   2.536  14.112 -0.2174 -0.3829  0.0929
 2515TIP3    H128960   1.955   2.478  14.154 -0.4488 -1.9156 -2.1952
 2515TIP3    H228961   1.967   2.591  14.053  0.3842 -0.3647 -0.4292
 2516TIP3   OH228962   4.397   4.493   4.869  0.5462 -0.0857  1.2982
 2516TIP3    H128963   4.414   4.407   4.830 -3.4161 -0.4343 -0.1694
 2516TIP3    H228964   4.443   4.554   4.811  0.7832 -1.0528  0.4201
 2517TIP3   OH228965   0.209   0.922   2.553 -0.3370  0.3631 -0.5842
 2517TIP3    H128966   0.192   0.949   2.463 -0.6194  1.0164 -0.3424
 2517TIP3    H228967   0.254   0.839   2.545  2.5299  1.8655 -1.4611
 2518TIP3   OH228968   1.474   3.404  12.377 -0.0035 -0.3069  0.1169
 2518TIP3    H128969   1.504   3.314  12.390  1.4628 -0.2124 -2.0903
 2518TIP3    H228970   1.422   3.401  12.297 -1.6230  0.4993  1.0917
 2519TIP3   OH228971   2.967   3.086  16.412  0.3751 -0.7649  0.3694
 2519TIP3    H128972   3.008   3.171  16.396 -0.1088 -0.5315  0.3593
 2519TIP3    H228973   2.977   3.071  16.506  1.1742 -1.0713  0.2419
 2520TIP3   OH228974   2.360   6.224  14.203  0.0318 -0.0018 -0.3283
 2520TIP3    H128975   2.368   6.318  14.185 -1.4321  0.1328 -0.4394
 2520TIP3    H228976   2.410   6.210  14.283  3.2364  0.1717 -2.1160
 2521TIP3   OH228977   5.837   3.366   1.207 -0.3245 -0.1351 -0.3823
 2521TIP3    H128978   5.798   3.339   1.290  2.9850  0.7587  1.6494
 2521TIP3    H228979   5.813   3.458   1.197 -0.6922 -0.2316 -0.3794
 2522TIP3   OH228980   2.336   1.588  14.254 -0.3553 -0.4795  0.2997
 2522TIP3    H128981   2.376   1.544  14.178  0.4858 -2.3210  1.7214
 2522TIP3    H228982   2.259   1.535  14.274 -1.7527  1.1926 -0.4580
 2523TIP3   OH228983   2.717   6.574   3.722  0.1730 -0.2249 -0.5246
 2523TIP3    H128984   2.782   6.630   3.678  0.6444 -0.9478 -0.7718
 2523TIP3    H228985   2.730   6.591   3.815  0.1054  0.2996 -0.6070
 2524TIP3   OH228986   3.955   0.086  11.484  0.2845  0.3770  0.1554
 2524TIP3    H128987   3.947   0.181  11.493 -1.6457  0.0768  2.5028
 2524TIP3    H228988   3.872   0.059  11.445  0.4451 -0.4505  0.3808
 2525TIP3   OH228989   3.447   4.547  13.351  0.2730  0.0466 -0.4723
 2525TIP3    H128990   3.473   4.629  13.309  2.9485  0.0147  0.9502
 2525TIP3    H228991   3.395   4.575  13.427 -2.3473  0.1721 -2.1493
 2526TIP3   OH228992   2.327   6.652   5.880 -0.2504 -0.7297  0.1115
 2526TIP3    H128993   2.415   6.651   5.844 -0.2235  3.0275 -0.2981
 2526TIP3    H228994   2.339   6.642   5.974  0.7034  0.2689  0.1142
 2527TIP3   OH228995   0.214   0.473   4.351  0.4787  0.2833  0.2635
 2527TIP3    H128996   0.220   0.561   4.312 -0.9416 -0.1582 -1.0442
 2527TIP3    H228997   0.166   0.422   4.287  0.3531 -1.1973  1.4907
 2528TIP3   OH228998   4.974   3.465   4.346 -0.0472  0.4030  0.7528
 2528TIP3    H128999   4.966   3.459   4.441 -1.1564  2.9614  0.8883
 2528TIP3    H229000   5.064   3.495   4.331  0.6826 -1.5661  0.8266
 2529TIP3   OH229001   2.311   1.478   1.445  0.7066 -0.4210 -0.0454
 2529TIP3    H129002   2.302   1.431   1.528  2.0435  0.7073  0.7792
 2529TIP3    H229003   2.307   1.570   1.470  0.1973 -0.0678 -1.3671
 2530TIP3   OH229004   0.435   5.146   5.555 -1.2110 -0.5824 -0.2100
 2530TIP3    H129005   0.496   5.113   5.489 -1.8069  0.1569 -1.1503
 2530TIP3    H229006   0.413   5.069   5.607  0.4614 -0.8914  0.1192
 2531TIP3   OH229007   4.163   0.214   1.324 -0.1243  0.6202 -0.3298
 2531TIP3    H129008   4.118   0.237   1.405  0.9377  1.8379 -0.0589
 2531TIP3    H229009   4.230   0.151   1.351  2.4264  3.4247  0.4049
 2532TIP3   OH229010   0.570   3.672  13.615  0.0387  0.1250  0.4007
 2532TIP3    H129011   0.516   3.629  13.681  0.3771  1.1393  1.3577
 2532TIP3    H229012   0.622   3.601  13.577  0.7004 -0.3255  2.0507
 2533TIP3   OH229013   1.643   0.529  13.877 -0.1988 -0.2962 -0.5003
 2533TIP3    H129014   1.650   0.579  13.958 -0.9537 -0.7624 -0.1403
 2533TIP3    H229015   1.651   0.438  13.904  1.0149 -0.4029 -1.1377
 2534TIP3   OH229016   2.743   5.306  13.172  0.4141 -0.7924  0.2966
 2534TIP3    H129017   2.687   5.364  13.121  1.0191 -0.4896 -0.0265
 2534TIP3    H229018   2.701   5.303  13.258  0.9387  0.9618  0.6421
 2535TIP3   OH229019   5.880   0.246   2.224 -0.5249  0.2158 -0.1612
 2535TIP3    H129020   5.972   0.269   2.212 -0.7175  1.2256  0.1713
 2535TIP3    H229021   5.878   0.192   2.302 -0.0532 -0.9973 -0.9607
 2536TIP3   OH229022   2.229   5.683  14.775 -0.3188  0.4929 -0.9709
 2536TIP3    H129023   2.210   5.773  14.801 -0.0759  0.5303 -0.9151
 2536TIP3    H229024   2.320   5.670  14.801 -0.6655 -0.1141  0.0063
 2537TIP3   OH229025   2.371   5.165   5.872  0.2617  0.1588  0.3963
 2537TIP3    H129026   2.353   5.143   5.781 -2.5778  2.4020  0.2513
 2537TIP3    H229027   2.380   5.081   5.917  1.1459 -0.9908 -1.8215
 2538TIP3   OH229028   5.196   0.951   3.663 -0.3324  0.2951  0.1924
 2538TIP3    H129029   5.132   0.882   3.647 -0.8940  0.9296 -0.3406
 2538TIP3    H229030   5.144   1.028   3.683  0.3033  0.3515  1.7996
 2539TIP3   OH229031   0.320   4.217  13.777 -0.4064 -0.7471  0.2462
 2539TIP3    H129032   0.261   4.279  13.734 -0.0274  0.4736  1.3805
 2539TIP3    H229033   0.330   4.145  13.715 -1.1145  0.1900 -0.9974
 2540TIP3   OH229034   5.881   4.235  12.978  0.1476 -0.7167 -0.2390
 2540TIP3    H129035   5.817   4.281  12.922 -1.1634  0.0620  1.7712
 2540TIP3    H229036   5.953   4.213  12.919 -1.3526 -0.3881 -2.3248
 2541TIP3   OH229037   3.385   1.099  15.266  0.2741  0.1603 -0.3859
 2541TIP3    H129038   3.326   1.140  15.328 -1.3060 -0.1259 -1.6388
 2541TIP3    H229039   3.389   1.160  15.192  1.0533 -0.1214 -0.5933
 2542TIP3   OH229040   3.261   0.962  15.616  0.3639  0.1764 -0.1666
 2542TIP3    H129041   3.236   0.976  15.708  2.0117  0.9786  0.1989
 2542TIP3    H229042   3.319   1.036  15.596 -0.1187  0.1173 -1.9326
 2543TIP3   OH229043   3.193   1.154   0.298  0.2516 -0.2889 -0.8396
 2543TIP3    H129044   3.140   1.211   0.353  0.6197  0.2614 -1.0471
 2543TIP3    H229045   3.131   1.116   0.235  0.0425  0.0564 -0.8406
 2544TIP3   OH229046   4.343   0.852  15.817  0.0296  0.6801  0.5846
 2544TIP3    H129047   4.270   0.836  15.758 -0.0040 -1.2477  1.0800
 2544TIP3    H229048   4.416   0.803  15.780  0.3387  0.4363  1.4729
 2545TIP3   OH229049   2.359   4.079  11.380  0.2715  0.6011  0.1412
 2545TIP3    H129050   2.377   4.172  11.395 -2.8641  1.4697 -0.8197
 2545TIP3    H229051   2.354   4.071  11.285  2.8009 -1.1480  0.0525
 2546TIP3   OH229052   1.010   3.311  14.793  0.6704 -0.0696  0.7254
 2546TIP3    H129053   1.090   3.314  14.740  0.4343  1.8301  0.3778
 2546TIP3    H229054   0.983   3.403  14.799 -0.3472 -0.4477  2.5861
 2547TIP3   OH229055   1.851   4.818  17.224  0.1706  0.6354  0.4686
 2547TIP3    H129056   1.916   4.748  17.234  1.3475  1.3254 -1.6982
 2547TIP3    H229057   1.863   4.849  17.135 -1.1720  2.7768  0.9612
 2548TIP3   OH229058   2.460   3.521  16.362 -0.0883  0.2819  0.9519
 2548TIP3    H129059   2.434   3.552  16.449  0.7495  0.5322  1.1261
 2548TIP3    H229060   2.546   3.561  16.348 -0.1524  0.1250  0.0651
 2549TIP3   OH229061   5.103   3.817  10.364  0.3832 -0.5274 -0.6093
 2549TIP3    H129062   5.015   3.794  10.394 -0.4302  0.3271 -2.2013
 2549TIP3    H229063   5.111   3.911  10.378  0.4012 -0.3049 -1.9395
 2550TIP3   OH229064   1.379   5.319  10.276  0.7280  0.1395  0.3046
 2550TIP3    H129065   1.375   5.224  10.265  1.1649  0.0006  1.2686
 2550TIP3    H229066   1.438   5.332  10.351  3.1676  1.2750 -1.6533
 2551TIP3   OH229067   4.809   4.168  16.184 -0.8785  0.1140  0.8893
 2551TIP3    H129068   4.808   4.189  16.090 -0.1751 -0.3426  0.7741
 2551TIP3    H229069   4.752   4.233  16.224 -0.1435  1.1305  0.3144
 2552TIP3   OH229070   5.848   6.438   5.343 -0.3168  0.3230  0.0457
 2552TIP3    H129071   5.923   6.450   5.285 -0.0692  0.8344  0.4577
 2552TIP3    H229072   5.802   6.522   5.340 -2.1368 -0.6532 -1.9204
 2553TIP3   OH229073   1.026   3.233  16.050  0.0251  0.1399 -0.7022
 2553TIP3    H129074   0.931   3.246  16.055  0.2653  1.9100 -0.1778
 2553TIP3    H229075   1.054   3.289  15.978  0.6758 -0.3872 -0.8615
 2554TIP3   OH229076   4.403   0.172   0.984 -0.0421 -0.5326 -0.0305
 2554TIP3    H129077   4.397   0.129   1.070  1.8513 -2.3317 -0.7108
 2554TIP3    H229078   4.476   0.234   0.994 -0.2899 -0.2177 -0.1545
 2555TIP3   OH229079   3.317   5.595   4.961 -0.8210 -0.0663 -0.9927
 2555TIP3    H129080   3.357   5.631   4.881  0.2095  0.7553 -0.1299
 2555TIP3    H229081   3.368   5.516   4.979 -1.9025 -1.0021 -1.8511
 2556TIP3   OH229082   6.473   5.282  13.687  0.3805  0.3794 -0.3408
 2556TIP3    H129083   6.488   5.337  13.611 -1.5365 -1.4746 -2.1918
 2556TIP3    H229084   6.392   5.235  13.668  0.6882 -1.3821  2.1283
 2557TIP3   OH229085   2.457   0.784  16.740 -0.2074  1.2069  0.3148
 2557TIP3    H129086   2.531   0.766  16.682  0.2399  0.7376  1.0013
 2557TIP3    H229087   2.402   0.844  16.691 -1.4584 -1.5184 -1.8868
 2558TIP3   OH229088   0.300   3.594  15.207 -0.6950 -0.2271  0.0937
 2558TIP3    H129089   0.242   3.556  15.273  0.8715 -1.7404  0.6637
 2558TIP3    H229090   0.345   3.665  15.252  0.2100 -1.1165  0.6308
 2559TIP3   OH229091   3.116   4.600   2.356 -0.3096  0.2899 -0.4614
 2559TIP3    H129092   3.145   4.512   2.332 -1.0052  0.4645 -2.1401
 2559TIP3    H229093   3.078   4.591   2.443  1.3183 -0.6785  0.1836
 2560TIP3   OH229094   6.643   1.845  16.323 -1.0803 -0.5862 -0.0934
 2560TIP3    H129095   6.689   1.773  16.280 -0.6583 -0.9706  0.9660
 2560TIP3    H229096   6.645   1.823  16.416 -0.0969  1.2296  0.3789
 2561TIP3   OH229097   5.526   5.987   3.290  0.1574 -0.4621 -0.4500
 2561TIP3    H129098   5.501   6.060   3.348 -1.4069  0.4807 -2.2164
 2561TIP3    H229099   5.541   6.028   3.205  0.5283 -2.0496 -1.1850
 2562TIP3   OH229100   3.682   0.246  12.050  0.5098 -0.0154  0.0884
 2562TIP3    H129101   3.671   0.207  12.137  0.1220 -0.2803 -0.0759
 2562TIP3    H229102   3.660   0.339  12.063 -1.7010 -0.4412 -0.1421
 2563TIP3   OH229103   4.029   2.093   4.422  0.0863 -0.3081 -0.6187
 2563TIP3    H129104   4.073   2.024   4.372 -0.3160  0.2140 -1.7349
 2563TIP3    H229105   4.097   2.159   4.437  1.4392 -2.2679  3.3557
 2564TIP3   OH229106   1.197   2.807   4.337  0.0449  0.3635  0.0342
 2564TIP3    H129107   1.213   2.749   4.411 -2.7423 -0.4276  0.1106
 2564TIP3    H229108   1.232   2.891   4.364  1.7932 -0.6237  0.9815
 2565TIP3   OH229109   1.510   4.846  15.392  0.0465 -0.2696 -0.4545
 2565TIP3    H129110   1.445   4.880  15.330 -0.0817  0.9200  0.2925
 2565TIP3    H229111   1.588   4.900  15.377  0.7147 -1.3273 -0.9647
 2566TIP3   OH229112   4.019   4.781   1.743 -0.3153 -0.4523 -0.0205
 2566TIP3    H129113   4.111   4.804   1.734 -0.1748 -1.6312 -2.0890
 2566TIP3    H229114   4.019   4.690   1.771 -0.7768 -1.3425 -2.6807
 2567TIP3   OH229115   4.245   4.358  12.494  0.4299  0.6326  0.0710
 2567TIP3    H129116   4.300   4.404  12.431  0.6741  0.1847 -0.0437
 2567TIP3    H229117   4.299   4.285  12.525 -0.2448 -0.0855 -0.3896
 2568TIP3   OH229118   1.708   2.086   1.169 -0.5504 -0.3939  0.8666
 2568TIP3    H129119   1.676   2.079   1.259  0.2581 -0.0014  1.1990
 2568TIP3    H229120   1.630   2.079   1.114 -1.2166  0.6218  1.6522
 2569TIP3   OH229121   3.521   6.066   2.300 -0.0615 -0.4108  0.0478
 2569TIP3    H129122   3.473   5.996   2.255 -1.3485 -0.1899  1.0029
 2569TIP3    H229123   3.561   6.022   2.375 -0.4636 -0.2339  0.3731
 2570TIP3   OH229124   5.971   5.134  12.050 -0.6327  0.5024 -0.2905
 2570TIP3    H129125   6.043   5.073  12.068 -0.3704  1.0004  0.3919
 2570TIP3    H229126   5.930   5.100  11.971 -0.3995 -0.4803 -0.0025
 2571TIP3   OH229127   4.095   3.964  11.257  0.0459 -0.0777  0.2757
 2571TIP3    H129128   4.183   3.932  11.277  0.5925  1.1686  0.0185
 2571TIP3    H229129   4.076   4.025  11.328  0.5288  1.6815 -1.0313
 2572TIP3   OH229130   0.780   5.085  12.347 -0.4238 -0.1822 -0.4141
 2572TIP3    H129131   0.869   5.054  12.363 -0.8008 -0.8099  0.5592
 2572TIP3    H229132   0.741   5.092  12.434 -1.0843  0.8696 -0.7660
 2573TIP3   OH229133   5.702   2.331   1.697 -0.4031 -0.1185  0.0086
 2573TIP3    H129134   5.757   2.274   1.644 -0.4514 -1.2489  1.1209
 2573TIP3    H229135   5.740   2.326   1.785 -1.5313  0.0672  0.5227
 2574TIP3   OH229136   2.369   2.823   0.502  0.2455  0.2455 -0.4028
 2574TIP3    H129137   2.338   2.805   0.413  1.7100 -1.8173 -0.5464
 2574TIP3    H229138   2.340   2.748   0.553  0.7585  0.6749  0.5362
 2575TIP3   OH229139   1.644   4.417   4.779 -0.3657 -0.6826  0.2989
 2575TIP3    H129140   1.699   4.427   4.701 -1.6473  2.5299 -0.3540
 2575TIP3    H229141   1.576   4.355   4.753  0.0099 -0.6858 -0.6940
 2576TIP3   OH229142   1.884   6.454  14.849  0.5103  0.3040 -0.1998
 2576TIP3    H129143   1.889   6.395  14.924  0.1840  0.9283  0.3279
 2576TIP3    H229144   1.973   6.456  14.814  1.0958  1.3908  1.2671
 2577TIP3   OH229145   2.154   1.640   5.855  0.2313 -0.0225 -0.2622
 2577TIP3    H129146   2.214   1.694   5.906  0.2510 -0.8367  0.6068
 2577TIP3    H229147   2.205   1.610   5.781  0.2317  1.1050 -0.7335
 2578TIP3   OH229148   3.698   4.748  16.186 -0.1352 -0.3522  0.1205
 2578TIP3    H129149   3.752   4.758  16.265  2.2293 -2.3747 -1.0719
 2578TIP3    H229150   3.623   4.696  16.215  0.0968 -0.0814  1.2665
 2579TIP3   OH229151   3.744   5.609  13.848 -0.0553 -0.1445  0.1609
 2579TIP3    H129152   3.664   5.557  13.858  0.7885 -1.6601 -0.6481
 2579TIP3    H229153   3.809   5.563  13.900  1.0271 -0.6809 -1.5618
 2580TIP3   OH229154   1.544   1.941   0.491  0.4194 -0.1602 -0.0285
 2580TIP3    H129155   1.473   1.929   0.428 -0.7142  0.2782  1.1323
 2580TIP3    H229156   1.579   2.028   0.472 -0.1116  0.0887  0.1298
 2581TIP3   OH229157   6.182   1.511  15.379  0.0967  0.0454  0.0210
 2581TIP3    H129158   6.193   1.580  15.444  2.0390 -1.6978  1.6751
 2581TIP3    H229159   6.255   1.524  15.318  0.9427 -0.9662  0.7898
 2582TIP3   OH229160   2.186   2.311   1.828  0.0063 -0.1974 -0.4516
 2582TIP3    H129161   2.257   2.367   1.796 -0.3815  1.0151  0.7406
 2582TIP3    H229162   2.216   2.222   1.809  0.9688  0.3623 -1.7250
 2583TIP3   OH229163   6.207   5.773  13.553  0.3663  0.2399 -0.0931
 2583TIP3    H129164   6.273   5.820  13.604 -0.0990 -0.0456  0.7844
 2583TIP3    H229165   6.222   5.681  13.574  1.4785 -0.0827 -2.0472
 2584TIP3   OH229166   4.815   6.701   2.928  0.5692 -1.0167  0.2403
 2584TIP3    H129167   4.865   6.671   3.004 -2.3879 -0.1310  2.6970
 2584TIP3    H229168   4.827   6.796   2.927  0.8797 -1.0504 -0.6988
 2585TIP3   OH229169   6.679   2.662  16.392  0.6267 -0.1223  0.2115
 2585TIP3    H129170   6.638   2.635  16.310  2.1366  0.0619 -0.6371
 2585TIP3    H229171   6.606   2.677  16.452 -0.4528 -4.0789  0.1514
 2586TIP3   OH229172   6.611   5.318   0.393  0.6437  0.0873 -0.3298
 2586TIP3    H129173   6.685   5.379   0.389  0.2491  0.5285 -0.9459
 2586TIP3    H229174   6.536   5.372   0.419  0.6329 -0.4608  0.8537
 2587TIP3   OH229175   1.020   1.639  13.755  0.0602  0.0015  0.4641
 2587TIP3    H129176   0.989   1.707  13.695 -0.3729  0.4955  1.2216
 2587TIP3    H229177   1.037   1.563  13.699 -0.5689  0.3677 -0.2487
 2588TIP3   OH229178   2.411   2.845   6.154  0.6853 -0.1895  0.5499
 2588TIP3    H129179   2.452   2.929   6.133 -1.6481  0.8452 -0.2345
 2588TIP3    H229180   2.418   2.837   6.249 -0.1978  1.5569  0.7862
 2589TIP3   OH229181   5.217   0.435  11.883  0.7679  0.2772 -0.2653
 2589TIP3    H129182   5.288   0.437  11.947  1.9818  1.0716 -1.5593
 2589TIP3    H229183   5.192   0.527  11.872  0.3485  0.1190 -0.6927
 2590TIP3   OH229184   0.269   2.489  17.338 -0.1903  0.6558 -0.1384
 2590TIP3    H129185   0.208   2.426  17.377 -0.4928 -0.0019 -1.5980
 2590TIP3    H229186   0.246   2.573  17.378 -2.3228  0.4893 -0.9120
 2591TIP3   OH229187   1.268   6.581   3.531 -0.0676 -0.5284  0.1870
 2591TIP3    H129188   1.307   6.590   3.444  0.8759 -0.6399  0.5959
 2591TIP3    H229189   1.285   6.664   3.574 -2.3804  0.3638 -0.4318
 2592TIP3   OH229190   0.201   5.272   3.247 -0.0317  0.6156  0.0831
 2592TIP3    H129191   0.252   5.352   3.234 -1.3883  1.2397 -1.9912
 2592TIP3    H229192   0.110   5.299   3.233 -0.5846 -1.1417  0.0836
 2593TIP3   OH229193   5.063   3.176  15.225  0.2408  0.0672 -0.2231
 2593TIP3    H129194   5.145   3.207  15.187 -1.1274  1.0657 -2.6105
 2593TIP3    H229195   5.024   3.121  15.156 -1.8774  1.0583  0.1119
 2594TIP3   OH229196   4.551   6.466   2.181 -0.6118 -0.5266 -0.0512
 2594TIP3    H129197   4.481   6.405   2.207 -0.7390 -0.3008  0.1323
 2594TIP3    H229198   4.519   6.504   2.099 -0.5890 -0.6087 -0.0991
 2595TIP3   OH229199   5.557   2.666  16.366  0.1472 -0.3459  1.0313
 2595TIP3    H129200   5.583   2.625  16.283  1.5970  0.3343  1.1154
 2595TIP3    H229201   5.512   2.747  16.339 -0.1316 -0.5412  0.9051
 2596TIP3   OH229202   0.676   4.340  10.658 -0.2787  0.0263 -0.2358
 2596TIP3    H129203   0.753   4.284  10.670  1.3222  2.1236 -0.2333
 2596TIP3    H229204   0.697   4.420  10.705 -2.5268  0.6314 -0.1790
 2597TIP3   OH229205   2.616   1.505  14.091 -0.0930  0.1055 -0.0660
 2597TIP3    H129206   2.701   1.543  14.069 -0.4557  1.8520  1.3468
 2597TIP3    H229207   2.561   1.521  14.015  0.9104 -1.4015 -1.1596
 2598TIP3   OH229208   4.551   5.280   4.508  0.0552 -0.0415  0.0751
 2598TIP3    H129209   4.581   5.355   4.456 -0.7726  0.7682  0.7372
 2598TIP3    H229210   4.468   5.255   4.468 -0.1671  0.0385  0.4843
 2599TIP3   OH229211   1.288   6.282   4.855 -0.3884  0.4495 -0.2715
 2599TIP3    H129212   1.283   6.277   4.950 -1.5129 -0.0159 -0.3401
 2599TIP3    H229213   1.287   6.191   4.826 -1.4198  0.6001 -0.7646
 2600TIP3   OH229214   4.441   5.595  16.951  0.0064  0.0199 -0.1961
 2600TIP3    H129215   4.414   5.595  16.859  2.5266 -0.2748 -1.0172
 2600TIP3    H229216   4.460   5.687  16.970  1.0884 -0.1235 -0.5225
 2601TIP3   OH229217   1.520   0.212   4.248 -0.0231  0.3190  0.0586
 2601TIP3    H129218   1.441   0.160   4.264  0.0374  0.4782  0.9006
 2601TIP3    H229219   1.580   0.151   4.204 -0.0354 -0.2649  0.8256
 2602TIP3   OH229220   4.975   3.796  17.214 -0.1654  0.5694  0.2392
 2602TIP3    H129221   5.017   3.871  17.256  0.8736  0.0132  0.2347
 2602TIP3    H229222   5.025   3.783  17.134 -0.8744  0.3846 -0.1816
 2603TIP3   OH229223   1.813   4.243   6.385 -0.4400 -0.6347 -0.6774
 2603TIP3    H129224   1.806   4.150   6.362  4.0861 -1.2982 -0.2721
 2603TIP3    H229225   1.806   4.245   6.480 -0.1134 -0.6132 -0.6541
 2604TIP3   OH229226   2.230   5.394   2.143 -0.6657  0.1080 -0.2970
 2604TIP3    H129227   2.164   5.453   2.179 -1.9450 -0.4542 -1.6191
 2604TIP3    H229228   2.281   5.449   2.083  0.1963  0.5792  0.8411
 2605TIP3   OH229229   6.460   0.258   0.642 -0.3084 -0.4700 -0.2765
 2605TIP3    H129230   6.484   0.255   0.550 -0.6435 -1.1273 -0.3445
 2605TIP3    H229231   6.493   0.176   0.679  1.7443  0.7120  0.6739
 2606TIP3   OH229232   4.784   3.265   5.354 -0.3736 -0.0891  0.0640
 2606TIP3    H129233   4.844   3.339   5.342  0.1516 -0.3158  1.1706
 2606TIP3    H229234   4.838   3.188   5.337 -1.0287 -0.2285 -1.5189
 2607TIP3   OH229235   2.061   1.026   0.062 -0.1813 -0.1376  0.4474
 2607TIP3    H129236   1.986   0.970   0.081 -0.2099 -0.2824 -0.0648
 2607TIP3    H229237   2.023   1.110   0.037 -0.2139 -0.4444 -0.5864
 2608TIP3   OH229238   2.244   5.529  12.301  0.4051 -0.4161  0.1119
 2608TIP3    H129239   2.284   5.512  12.386 -0.9284 -0.3235  0.7719
 2608TIP3    H229240   2.150   5.535  12.318  0.0476 -0.9312 -1.4464
 2609TIP3   OH229241   6.068   0.072  14.993 -0.3347 -0.0188 -0.1283
 2609TIP3    H129242   6.105   0.143  14.940 -0.5527 -0.0285 -0.2945
 2609TIP3    H229243   6.008   0.117  15.054 -1.1635 -0.1411 -0.8331
 2610TIP3   OH229244   5.406   1.555   4.952  0.3742  0.2104  0.0492
 2610TIP3    H129245   5.433   1.511   4.871 -0.0710 -0.0990  0.0651
 2610TIP3    H229246   5.379   1.642   4.924  0.7188  0.2824 -0.0634
 2611TIP3   OH229247   0.266   3.146   0.333  0.4705  0.5348  0.1701
 2611TIP3    H129248   0.242   3.229   0.374  2.6611  0.6318  1.4265
 2611TIP3    H229249   0.282   3.169   0.241 -0.1645  1.2387  0.2264
 2612TIP3   OH229250   2.442   6.088  13.371  0.3573 -0.3461 -0.2425
 2612TIP3    H129251   2.360   6.084  13.323  0.0040  3.0595 -0.1194
 2612TIP3    H229252   2.426   6.036  13.450 -0.1613 -3.2194 -2.1013
 2613TIP3   OH229253   1.350   1.043  12.838  0.2782 -0.1484  0.1934
 2613TIP3    H129254   1.406   1.118  12.817  0.2319 -0.1207  0.1659
 2613TIP3    H229255   1.310   1.067  12.922  0.4749 -0.2660  0.3180
 2614TIP3   OH229256   1.063   5.204  15.618 -0.0440  0.0839  0.3428
 2614TIP3    H129257   1.046   5.273  15.682  0.0725  0.2951  0.1481
 2614TIP3    H229258   1.152   5.174  15.637 -0.0470  0.0765  0.3455
 2615TIP3   OH229259   1.865   4.247   4.040 -0.5980 -0.3174  0.2279
 2615TIP3    H129260   1.772   4.248   4.014 -0.5786 -0.8853  0.1251
 2615TIP3    H229261   1.877   4.163   4.083 -0.2199 -0.0770  0.5931
 2616TIP3   OH229262   2.296   4.174  11.134  0.2468 -0.6036 -0.2545
 2616TIP3    H129263   2.261   4.099  11.086  0.4924 -0.0535 -1.3271
 2616TIP3    H229264   2.345   4.223  11.069 -0.4676  0.8562  0.2588
 2617TIP3   OH229265   5.769   2.602  13.377 -0.0768 -0.0666  0.3059
 2617TIP3    H129266   5.773   2.536  13.309 -0.4689 -0.7223  0.9058
 2617TIP3    H229267   5.761   2.685  13.330 -2.1675 -0.6330 -0.4482
 2618TIP3   OH229268   6.249   4.741   6.523 -0.1653  0.5032  0.4615
 2618TIP3    H129269   6.318   4.674   6.533 -2.0052 -1.2465  2.5273
 2618TIP3    H229270   6.182   4.698   6.470 -1.1182  0.9309  1.3002
 2619TIP3   OH229271   5.555   0.178   1.736  0.2332  0.3241  0.7906
 2619TIP3    H129272   5.486   0.179   1.669 -0.8538  2.0611  1.8364
 2619TIP3    H229273   5.615   0.109   1.708 -0.9597 -0.0110 -1.1573
 2620TIP3   OH229274   4.331   0.139  17.135  0.4068  0.0825 -0.6373
 2620TIP3    H129275   4.284   0.087  17.200  1.8570 -1.5084 -0.7908
 2620TIP3    H229276   4.267   0.204  17.105 -0.5536  0.2906  1.7056
 2621TIP3   OH229277   3.183   5.682   0.736  0.3485  0.0877  0.1480
 2621TIP3    H129278   3.173   5.662   0.829  1.1881  0.3005  0.2924
 2621TIP3    H229279   3.114   5.745   0.717  0.1293 -0.0125  0.6162
 2622TIP3   OH229280   4.917   0.050   2.489 -0.1548  0.2944 -0.0127
 2622TIP3    H129281   4.872  -0.034   2.488 -0.0851  0.2564 -0.6601
 2622TIP3    H229282   4.887   0.094   2.409 -0.6464  1.1275  0.6102
 2623TIP3   OH229283   5.524   3.472   0.751 -0.2999  0.6612 -0.1769
 2623TIP3    H129284   5.451   3.531   0.773 -0.6575 -0.0028  0.4435
 2623TIP3    H229285   5.602   3.524   0.767 -0.6216  1.5837 -1.4060
 2624TIP3   OH229286   0.245   4.105  17.078  0.7876  0.0181  0.0172
 2624TIP3    H129287   0.212   4.022  17.044 -0.9148  0.6437  0.0076
 2624TIP3    H229288   0.182   4.170  17.047  2.3252  1.3967 -0.3628
 2625TIP3   OH229289   0.239   4.331   7.233  0.3078 -0.9194  0.1312
 2625TIP3    H129290   0.263   4.359   7.322  0.0766 -0.3943  0.0267
 2625TIP3    H229291   0.169   4.390   7.207  0.6160 -0.8439 -0.5425
 2626TIP3   OH229292   0.518   5.679  16.470  0.5047 -0.1578  0.4659
 2626TIP3    H129293   0.572   5.747  16.428 -0.6912 -0.2218 -1.2817
 2626TIP3    H229294   0.528   5.695  16.564  2.3813  0.7366  0.1593
 2627TIP3   OH229295   4.809   2.190   2.155  0.4697 -0.2122  0.2114
 2627TIP3    H129296   4.802   2.209   2.249 -0.7434  1.2881 -0.1356
 2627TIP3    H229297   4.867   2.258   2.121 -1.3765  1.0935 -0.5358
 2628TIP3   OH229298   1.227   3.121   5.863  0.6750 -0.0698  0.6871
 2628TIP3    H129299   1.182   3.079   5.936  1.0771  0.0363  1.0006
 2628TIP3    H229300   1.253   3.207   5.898  0.2211  0.2801  0.1867
 2629TIP3   OH229301   5.593   1.211  15.406 -0.8692 -0.1319  0.0887
 2629TIP3    H129302   5.499   1.192  15.409 -0.6818 -1.2855 -0.6191
 2629TIP3    H229303   5.626   1.156  15.335  0.4295 -0.1522  0.6738
 2630TIP3   OH229304   1.382   0.803   4.555  0.0063 -0.5507 -0.1716
 2630TIP3    H129305   1.362   0.890   4.588  1.5478 -0.4829  0.6190
 2630TIP3    H229306   1.379   0.746   4.632  3.1030 -0.4771  0.1254
 2631TIP3   OH229307   2.182   1.574   4.029  0.5012 -0.1303 -0.4089
 2631TIP3    H129308   2.196   1.647   4.089 -0.5894  1.3399 -1.8616
 2631TIP3    H229309   2.265   1.527   4.029  1.6992  1.8677 -0.4182
 2632TIP3   OH229310   6.009   0.689   0.598 -0.5861 -0.1569  0.0812
 2632TIP3    H129311   6.062   0.740   0.660  0.4185 -0.8824 -0.1621
 2632TIP3    H229312   6.048   0.601   0.600 -1.8920 -0.7573  0.0212
 2633TIP3   OH229313   0.154   3.641  12.346  0.7794  0.1015  0.0837
 2633TIP3    H129314   0.187   3.697  12.276  0.1102 -1.1558 -1.2937
 2633TIP3    H229315   0.229   3.586  12.370  1.9173  2.5291  2.5495
 2634TIP3   OH229316   1.561   2.626  10.581  0.2813 -0.1374 -0.6133
 2634TIP3    H129317   1.542   2.578  10.662  1.9160  0.2274  0.0322
 2634TIP3    H229318   1.632   2.577  10.540  0.4826  0.5095 -1.0584
 2635TIP3   OH229319   3.001   4.167  16.804 -0.5167 -0.0824 -0.7067
 2635TIP3    H129320   2.927   4.167  16.744 -0.2982  0.5950 -0.9942
 2635TIP3    H229321   2.963   4.180  16.890 -0.8288 -1.0073 -0.6962
 2636TIP3   OH229322   4.570   3.238   4.560  0.5837 -0.5127 -0.0081
 2636TIP3    H129323   4.597   3.270   4.474  0.0468 -0.8721 -0.3141
 2636TIP3    H229324   4.592   3.145   4.559  2.1617 -0.1903  0.8851
 2637TIP3   OH229325   6.675   5.354  14.160  0.1438 -0.3288 -0.1253
 2637TIP3    H129326   6.665   5.410  14.236  0.2622 -0.1019 -0.2776
 2637TIP3    H229327   6.643   5.406  14.086  1.2698 -0.0510 -0.4309
 2638TIP3   OH229328   4.129   5.631   2.078 -0.3339 -0.1596 -0.4113
 2638TIP3    H129329   4.195   5.699   2.086 -0.6063  0.0989 -0.3251
 2638TIP3    H229330   4.157   5.579   2.002 -1.4836  1.6073 -2.1480
 2639TIP3   OH229331   4.010   0.031   6.339  0.4605 -0.5901  0.2227
 2639TIP3    H129332   4.056  -0.048   6.365  2.2588  1.3105  3.4033
 2639TIP3    H229333   4.053   0.102   6.388 -1.0083  2.4156 -2.4189
 2640TIP3   OH229334   1.877   1.129   6.631  0.5131  0.0140  0.6594
 2640TIP3    H129335   1.784   1.117   6.650  0.3491 -0.6381 -0.4940
 2640TIP3    H229336   1.892   1.082   6.549  1.4023  1.9048 -0.3387
 2641TIP3   OH229337   1.005   3.351   3.037 -0.2510  0.4785  0.7585
 2641TIP3    H129338   0.926   3.397   3.007  0.4373  0.0953 -1.9118
 2641TIP3    H229339   0.981   3.258   3.034  0.8453  0.1503 -2.4276
 2642TIP3   OH229340   6.568   2.056   2.880  0.4033  0.2159  0.1564
 2642TIP3    H129341   6.585   1.962   2.884  0.9649  0.3440  0.9778
 2642TIP3    H229342   6.524   2.069   2.796  1.8806 -0.5454 -0.7882
 2643TIP3   OH229343   2.303   1.634  13.670  0.2325  0.0520  0.0276
 2643TIP3    H129344   2.232   1.639  13.606  1.0061 -1.0743 -0.9712
 2643TIP3    H229345   2.296   1.715  13.721 -2.0075 -0.2271  0.2451
 2644TIP3   OH229346   2.990   2.265  14.406 -0.8030  0.1071 -0.3889
 2644TIP3    H129347   2.900   2.234  14.406 -1.1760  1.1567 -0.0389
 2644TIP3    H229348   2.991   2.336  14.342 -0.0238 -0.4131 -0.9895
 2645TIP3   OH229349   4.417   2.803  13.466  0.7956  0.0352 -0.1711
 2645TIP3    H129350   4.383   2.714  13.480 -0.3192  0.2588 -1.2947
 2645TIP3    H229351   4.449   2.830  13.552 -0.0028 -0.9833  0.4694
 2646TIP3   OH229352   2.290   1.064  13.356  0.2073 -0.2500  0.3527
 2646TIP3    H129353   2.256   1.014  13.430  0.6382  1.2451  1.6058
 2646TIP3    H229354   2.324   1.144  13.395  1.8516 -0.0906 -1.2974
 2647TIP3   OH229355   6.584   3.339   1.859 -0.0445 -0.2054  0.0692
 2647TIP3    H129356   6.631   3.404   1.911 -1.4864  1.3415 -0.4630
 2647TIP3    H229357   6.515   3.307   1.918  1.2750 -2.0773  0.6768
 2648TIP3   OH229358   0.894   2.808  14.458 -0.6286  0.1235 -0.0917
 2648TIP3    H129359   0.900   2.793  14.552  0.4426  1.4336  0.0764
 2648TIP3    H229360   0.878   2.721  14.421 -0.8264 -0.4458  1.2713
 2649TIP3   OH229361   3.926   4.625   4.500  0.4069  0.3590 -0.5121
 2649TIP3    H129362   4.017   4.630   4.469  0.2864  1.0719 -0.7768
 2649TIP3    H229363   3.880   4.576   4.432 -0.0616  2.7395 -2.0288
 2650TIP3   OH229364   5.227   2.562   5.814 -0.5560  0.9475 -0.6655
 2650TIP3    H129365   5.198   2.544   5.903 -1.6696 -1.4183 -1.4242
 2650TIP3    H229366   5.295   2.629   5.824  0.2146 -0.0983  2.0785
 2651TIP3   OH229367   6.744   4.768   1.705 -0.4133 -0.1327  0.0983
 2651TIP3    H129368   6.756   4.811   1.620 -0.6389  2.6130  1.3311
 2651TIP3    H229369   6.657   4.729   1.701 -0.1031 -0.7184 -1.1772
 2652TIP3   OH229370   3.229   5.227  11.486 -0.4502 -0.4160 -0.6250
 2652TIP3    H129371   3.311   5.275  11.475  0.2459 -1.6916 -1.2077
 2652TIP3    H229372   3.187   5.268  11.561  1.0094 -0.1429  0.0746
 2653TIP3   OH229373   0.527   5.079  16.643  0.3948 -0.5444 -0.0586
 2653TIP3    H129374   0.547   5.089  16.736  0.0360 -3.3550  0.3997
 2653TIP3    H229375   0.606   5.111  16.598  0.8303  0.2356  1.2072
 2654TIP3   OH229376   0.410   3.173   2.378 -0.5526 -0.0946  0.5966
 2654TIP3    H129377   0.321   3.167   2.411  0.2431  0.9498  3.2817
 2654TIP3    H229378   0.446   3.085   2.388 -1.5604 -0.8166 -1.6277
 2655TIP3   OH229379   4.186   5.467  12.190  0.7287 -0.0841  0.1249
 2655TIP3    H129380   4.259   5.517  12.226 -0.4178  0.4490  1.8600
 2655TIP3    H229381   4.197   5.474  12.095  1.1532  2.7364  0.2868
 2656TIP3   OH229382   0.416   3.948  10.944 -0.0539  0.5235  0.7024
 2656TIP3    H129383   0.387   3.880  10.883  0.9260  0.0718  0.7252
 2656TIP3    H229384   0.339   4.003  10.957 -1.2218 -1.2512  1.6312
 2657TIP3   OH229385   1.618   2.718   5.083 -0.1074 -0.0841 -0.2575
 2657TIP3    H129386   1.608   2.786   5.016 -0.2214  0.1181 -0.0378
 2657TIP3    H229387   1.529   2.704   5.115 -0.0235 -0.0276  0.0015
 2658TIP3   OH229388   2.325   5.412   1.787  0.3070 -0.0849 -0.0303
 2658TIP3    H129389   2.352   5.445   1.701  2.5601 -0.9967  0.2661
 2658TIP3    H229390   2.309   5.491   1.839 -0.6420  0.4769 -1.1203
 2659TIP3   OH229391   1.293   6.675  14.806 -0.0810 -0.6267 -0.5341
 2659TIP3    H129392   1.324   6.599  14.757 -1.3020 -0.9514 -0.8404
 2659TIP3    H229393   1.252   6.732  14.741  0.8298  0.3066 -0.3060
 2660TIP3   OH229394   5.331   2.225   4.775  0.5348 -0.1713  0.2775
 2660TIP3    H129395   5.425   2.217   4.789  0.5932  0.7278  0.4774
 2660TIP3    H229396   5.316   2.187   4.688  1.2716  0.7854 -0.2925
 2661TIP3   OH229397   3.097   6.174   3.700 -0.0228  0.4837  0.4216
 2661TIP3    H129398   3.175   6.142   3.747 -0.6051  0.1060  1.1448
 2661TIP3    H229399   3.121   6.263   3.674  1.7437 -0.5825 -1.9034
 2662TIP3   OH229400   6.056   4.201  12.755 -0.1944  0.6752 -0.1573
 2662TIP3    H129401   6.134   4.238  12.714  0.6785  0.3823  1.1956
 2662TIP3    H229402   6.064   4.107  12.741 -0.5402  0.6825 -0.4101
 2663TIP3   OH229403   4.718   3.036   2.287  0.5237  0.4573 -0.8345
 2663TIP3    H129404   4.642   3.087   2.312 -0.4468 -0.0924 -2.4643
 2663TIP3    H229405   4.789   3.100   2.276 -0.0091  1.1199 -0.4302
 2664TIP3   OH229406   2.574   4.142   5.146 -0.2406 -0.0735  0.0001
 2664TIP3    H129407   2.495   4.093   5.123  0.8095 -1.7028 -0.3204
 2664TIP3    H229408   2.578   4.212   5.081 -0.4248 -1.1276 -1.1943
 2665TIP3   OH229409   4.839   6.296  14.802  0.4762 -0.4811  0.3798
 2665TIP3    H129410   4.910   6.355  14.777  0.3092 -1.2470 -2.1862
 2665TIP3    H229411   4.875   6.246  14.875  1.1665  1.6695  1.6101
 2666TIP3   OH229412   5.125   3.554  13.066 -0.0647  0.1055 -0.3237
 2666TIP3    H129413   5.140   3.461  13.082 -0.1300 -0.0755 -1.2551
 2666TIP3    H229414   5.092   3.588  13.150 -0.7043 -0.8484 -0.1743
 2667TIP3   OH229415   2.147   3.241  13.623  0.3300  0.6652  0.2626
 2667TIP3    H129416   2.167   3.335  13.614  0.2556  0.5210 -2.0904
 2667TIP3    H229417   2.065   3.239  13.672  1.2759  1.7091  1.9930
 2668TIP3   OH229418   3.371   1.910   0.335 -0.4665  0.0673 -0.1874
 2668TIP3    H129419   3.279   1.896   0.311 -0.8175  0.3456  0.9523
 2668TIP3    H229420   3.384   1.856   0.413  0.2261  0.3480 -0.1041
 2669TIP3   OH229421   1.973   6.300  11.826  0.5260  0.2292 -0.2333
 2669TIP3    H129422   2.024   6.336  11.753  0.4480  0.1513 -0.3255
 2669TIP3    H229423   1.902   6.252  11.784  0.7492 -0.2076 -0.1131
 2670TIP3   OH229424   4.114   6.223  13.296 -0.5850  0.0357 -0.4767
 2670TIP3    H129425   4.153   6.310  13.292  0.8499 -0.5915 -0.7878
 2670TIP3    H229426   4.031   6.236  13.342  0.1793  1.3727  0.6116
 2671TIP3   OH229427   5.111   6.045  10.977  0.1541  0.5332  0.0633
 2671TIP3    H129428   5.189   6.049  10.921  0.2026 -1.0145 -0.0354
 2671TIP3    H229429   5.040   6.078  10.921  0.0685 -1.6436 -1.2482
 2672TIP3   OH229430   0.327   6.046   2.790 -0.6690 -0.4853  0.0327
 2672TIP3    H129431   0.284   5.962   2.806 -0.7721 -0.2142  1.2395
 2672TIP3    H229432   0.311   6.097   2.869  1.2397 -0.1044  0.2177
 2673TIP3   OH229433   4.395   6.645  11.570  0.1383  0.3472  0.3351
 2673TIP3    H129434   4.339   6.715  11.536 -0.1569  2.0787  3.9341
 2673TIP3    H229435   4.462   6.633  11.502 -2.1986  1.0830 -2.2693
 2674TIP3   OH229436   3.885   3.295   1.085 -0.5389 -0.0549  0.1287
 2674TIP3    H129437   3.916   3.277   1.174 -0.3794  0.9109  0.2759
 2674TIP3    H229438   3.828   3.220   1.065 -0.7619 -0.1738  1.1283
 2675TIP3   OH229439   3.101   0.668  11.510 -0.4593  0.0405 -0.3067
 2675TIP3    H129440   3.073   0.594  11.563  0.5475  1.5377  2.5686
 2675TIP3    H229441   3.043   0.740  11.536  0.3768  0.9606 -0.8765
 2676TIP3   OH229442   3.538   0.619   0.421 -0.5073 -0.3813  0.2945
 2676TIP3    H129443   3.553   0.642   0.330  1.5369 -2.8912 -0.1099
 2676TIP3    H229444   3.570   0.694   0.471  2.1109 -0.5247 -1.0095
 2677TIP3   OH229445   0.807   0.628   4.582  0.4659 -0.6024 -0.1045
 2677TIP3    H129446   0.775   0.693   4.645 -0.4077 -0.4749 -0.6641
 2677TIP3    H229447   0.742   0.558   4.585  1.6636 -1.7212  0.8717
 2678TIP3   OH229448   2.193   1.075  12.167 -0.0400  0.0292  0.0106
 2678TIP3    H129449   2.167   0.983  12.159  0.6010 -0.3807  2.1863
 2678TIP3    H229450   2.254   1.077  12.240  2.4566  1.7105 -1.9742
 2679TIP3   OH229451   3.731   3.354   4.734  0.2847 -0.2556  0.5751
 2679TIP3    H129452   3.731   3.408   4.812  1.2919 -0.2603  0.5892
 2679TIP3    H229453   3.739   3.264   4.767  1.1657 -0.2281  0.4666
 2680TIP3   OH229454   0.324   0.003  15.743  0.4909 -0.0825 -0.3700
 2680TIP3    H129455   0.308   0.028  15.834  1.0336 -1.1494  0.0283
 2680TIP3    H229456   0.372   0.078  15.706 -2.2785  1.6903 -0.6537
 2681TIP3   OH229457   4.280   1.226   1.162 -0.2101 -0.1229  0.7855
 2681TIP3    H129458   4.307   1.273   1.241 -2.8864 -0.8162  2.2206
 2681TIP3    H229459   4.279   1.134   1.187 -0.2363 -0.4405 -0.3330
 2682TIP3   OH229460   5.884   5.028   0.709 -0.1775 -0.3753 -0.8283
 2682TIP3    H129461   5.936   5.105   0.687  1.2796 -1.7218 -2.4145
 2682TIP3    H229462   5.823   5.059   0.776  0.6285  2.0255 -1.0866
 2683TIP3   OH229463   4.949   2.008   4.282 -0.1177  0.6651  0.2033
 2683TIP3    H129464   4.905   2.084   4.320 -2.7597 -1.0496  0.8911
 2683TIP3    H229465   4.948   2.024   4.187  0.3986  1.9578  0.4015
 2684TIP3   OH229466   4.866   3.505   0.775 -0.2812  0.0386  0.1353
 2684TIP3    H129467   4.872   3.575   0.840 -0.9367 -0.5038  0.8040
 2684TIP3    H229468   4.828   3.548   0.698  0.1006  0.5991  0.2551
 2685TIP3   OH229469   6.196   2.667  12.679  0.5975 -0.2017  0.0810
 2685TIP3    H129470   6.259   2.738  12.681 -1.1587  1.5170 -1.6885
 2685TIP3    H229471   6.246   2.592  12.645  2.2553  0.3429  1.1617
 2686TIP3   OH229472   0.177   1.238  12.475 -0.2970 -0.2977  0.0503
 2686TIP3    H129473   0.266   1.222  12.444 -0.4142  0.4912 -0.7437
 2686TIP3    H229474   0.182   1.323  12.519 -0.4677 -0.6839  0.8319
 2687TIP3   OH229475   2.299   0.687   4.731  0.1974 -0.9543  0.0006
 2687TIP3    H129476   2.219   0.738   4.747  0.3006 -0.9181  0.4074
 2687TIP3    H229477   2.365   0.753   4.710 -0.1834 -1.0626 -1.6646
 2688TIP3   OH229478   3.285   2.757  11.826 -0.0638 -0.0930 -0.3221
 2688TIP3    H129479   3.356   2.819  11.846  1.1375 -1.4205 -0.3232
 2688TIP3    H229480   3.220   2.810  11.779  0.4793  1.3708  0.5006
 2689TIP3   OH229481   3.351   2.588   1.681 -0.1447 -0.1206 -0.3535
 2689TIP3    H129482   3.388   2.528   1.746  1.6672  0.0526 -1.1805
 2689TIP3    H229483   3.381   2.674   1.709 -0.1961  0.0667 -0.8782
 2690TIP3   OH229484   4.140   6.326  13.629 -0.0607  0.4824  0.0953
 2690TIP3    H129485   4.065   6.377  13.661 -0.4066  0.0285  0.0254
 2690TIP3    H229486   4.166   6.370  13.548 -0.2254  0.6700  0.1430
 2691TIP3   OH229487   3.756   3.692  16.891  0.1030  0.2191  0.5614
 2691TIP3    H129488   3.745   3.687  16.796 -0.2427 -0.4153  0.6237
 2691TIP3    H229489   3.676   3.735  16.922 -0.7395 -1.3467  0.7185
 2692TIP3   OH229490   4.585   3.196   0.462 -0.2990 -0.6105  0.2193
 2692TIP3    H129491   4.644   3.242   0.521  0.0065 -0.3454 -0.2914
 2692TIP3    H229492   4.637   3.180   0.383 -0.8024 -0.6781 -0.1023
 2693TIP3   OH229493   3.209   3.779  17.291 -0.0783 -0.0705  0.2758
 2693TIP3    H129494   3.193   3.685  17.291 -0.2092 -0.1804 -3.5353
 2693TIP3    H229495   3.302   3.788  17.312  0.2231 -1.1364 -0.5425
 2694TIP3   OH229496   2.119   0.107  14.947  0.3979  0.1891  0.5347
 2694TIP3    H129497   2.100   0.021  14.984 -0.1562  0.5779  1.1771
 2694TIP3    H229498   2.062   0.113  14.870  0.4774 -0.0385  0.4574
 2695TIP3   OH229499   4.917   5.974  16.109  0.3395 -1.0498  0.7069
 2695TIP3    H129500   4.903   5.966  16.015  1.1900 -0.6441  0.5348
 2695TIP3    H229501   4.845   5.926  16.149  0.2537 -1.6620 -0.1625
 2696TIP3   OH229502   1.700   5.948   4.451  0.0542 -0.0275  0.1211
 2696TIP3    H129503   1.680   5.997   4.531 -0.5145  1.5803 -0.9648
 2696TIP3    H229504   1.664   5.861   4.468 -0.6479  0.4730  1.3612
 2697TIP3   OH229505   1.049   3.586  14.813  1.1366  0.0374  0.2901
 2697TIP3    H129506   0.972   3.638  14.838  2.3460  1.4525  1.3422
 2697TIP3    H229507   1.045   3.580  14.718 -0.7058 -0.6613  0.3821
 2698TIP3   OH229508   4.838   3.678   5.990 -0.6197  0.9935  0.1936
 2698TIP3    H129509   4.784   3.748   6.027 -1.4746  0.3015  0.2982
 2698TIP3    H229510   4.840   3.611   6.058 -0.0528  0.7857 -0.0220
 2699TIP3   OH229511   4.240   5.541   1.217  0.1545 -0.4601  0.1731
 2699TIP3    H129512   4.209   5.624   1.181  2.2943 -0.0353 -0.9094
 2699TIP3    H229513   4.275   5.564   1.303  2.5276  0.2486 -0.8974
 2700TIP3   OH229514   0.334   1.336   0.260  0.2071  0.0028  0.1267
 2700TIP3    H129515   0.272   1.319   0.332 -0.4171 -3.1217 -0.9899
 2700TIP3    H229516   0.290   1.301   0.183  2.0811  0.6463 -1.2819
 2701TIP3   OH229517   4.760   4.129   1.244 -0.2394 -0.0908 -0.5104
 2701TIP3    H129518   4.704   4.182   1.301  1.4689 -0.0647  1.2622
 2701TIP3    H229519   4.810   4.192   1.192  0.2931 -0.0038  0.0950
 2702TIP3   OH229520   1.886   3.018  17.094 -0.3882 -0.1865 -0.0181
 2702TIP3    H129521   1.951   2.948  17.087 -0.0665  0.1050  0.0447
 2702TIP3    H229522   1.873   3.030  17.188  0.4417  0.6432  0.0108
 2703TIP3   OH229523   0.003   1.170   0.996  0.0706 -0.0537  0.1400
 2703TIP3    H129524  -0.078   1.211   1.028  0.6688  1.5065 -0.2791
 2703TIP3    H229525   0.059   1.165   1.074 -0.4382 -1.2847  0.4681
 2704TIP3   OH229526   2.875   4.590  17.321  0.2122  0.8200  0.1405
 2704TIP3    H129527   2.946   4.526  17.329  0.0916  0.7571  0.6952
 2704TIP3    H229528   2.891   4.653  17.392  0.3188  1.3994 -0.3799
 2705TIP3   OH229529   1.696   5.897  15.004  0.5067 -0.1466 -0.6846
 2705TIP3    H129530   1.640   5.820  14.991  1.5030 -0.7838 -1.3283
 2705TIP3    H229531   1.674   5.928  15.092  0.8776 -1.8437  0.0422
 2706TIP3   OH229532   4.286   4.665   4.136 -0.6470  0.5538  0.4288
 2706TIP3    H129533   4.376   4.684   4.162 -0.5828 -0.5874  1.1103
 2706TIP3    H229534   4.293   4.629   4.047 -0.4932  0.9667  0.2710
 2707TIP3   OH229535   4.793   5.611  14.389 -0.0151  0.2108  0.0059
 2707TIP3    H129536   4.829   5.544  14.447 -0.2340 -0.4438 -0.5959
 2707TIP3    H229537   4.870   5.654  14.351  0.1263  0.6624  0.7911
 2708TIP3   OH229538   4.280   3.002   0.088 -0.2118 -0.1397 -0.1121
 2708TIP3    H129539   4.208   2.938   0.090 -0.8339  0.5424  1.3219
 2708TIP3    H229540   4.238   3.085   0.065  0.5283 -0.1398 -1.5837
 2709TIP3   OH229541   6.701   6.501  13.707 -0.0176  0.2117  0.5251
 2709TIP3    H129542   6.715   6.425  13.763  0.3913 -2.1939 -2.6133
 2709TIP3    H229543   6.609   6.497  13.682  0.1749  0.3269 -0.2192
 2710TIP3   OH229544   6.251   4.205   0.721 -0.0699  0.2089 -0.0639
 2710TIP3    H129545   6.221   4.169   0.805  0.1805 -0.8773 -0.4242
 2710TIP3    H229546   6.171   4.237   0.679 -0.1849  0.8350  0.6151
 2711TIP3   OH229547   5.973   3.685  14.887  0.4029  0.6602 -0.3183
 2711TIP3    H129548   5.932   3.771  14.882  0.1497  0.5070 -0.9357
 2711TIP3    H229549   6.067   3.703  14.897  0.2570  1.0067  0.4198
 2712TIP3   OH229550   4.741   5.426   5.488 -0.0808 -0.1891 -0.0026
 2712TIP3    H129551   4.726   5.481   5.412  2.0442  0.4306 -0.0428
 2712TIP3    H229552   4.705   5.341   5.464 -0.3045  0.2545 -1.3111
 2713TIP3   OH229553   1.257   6.349  11.864 -0.0788 -0.3330  0.0299
 2713TIP3    H129554   1.239   6.304  11.781 -0.3050 -1.0542  0.4524
 2713TIP3    H229555   1.240   6.282  11.931 -0.2576  0.3412  0.6744
 2714TIP3   OH229556   0.740   2.885  16.644  0.0849  0.7106 -0.5906
 2714TIP3    H129557   0.795   2.952  16.603 -0.0594  0.3653 -1.3648
 2714TIP3    H229558   0.691   2.932  16.712  1.6304  0.9488  0.4185
 2715TIP3   OH229559   4.537   1.345   3.962  0.1888  0.0070  0.0122
 2715TIP3    H129560   4.511   1.299   3.883  1.7506  2.1526 -1.8616
 2715TIP3    H229561   4.456   1.383   3.996 -0.6849 -1.8903  0.1958
 2716TIP3   OH229562   5.791   2.141   3.889  0.0772  0.3013 -0.5644
 2716TIP3    H129563   5.816   2.113   3.977 -2.0748 -0.6473 -0.2031
 2716TIP3    H229564   5.751   2.064   3.850 -3.8756  2.0624 -0.4230
 2717TIP3   OH229565   1.216   4.480   0.958 -0.0424  0.4141  0.3005
 2717TIP3    H129566   1.268   4.554   0.989 -1.7142  0.9133  2.1057
 2717TIP3    H229567   1.256   4.404   1.000 -0.4748  0.7436  1.3466
 2718TIP3   OH229568   3.923   2.769   5.749  0.5015 -0.3322  0.1184
 2718TIP3    H129569   3.989   2.701   5.761  0.3505 -0.5802 -0.4169
 2718TIP3    H229570   3.849   2.723   5.708  0.1044 -0.0028  0.4498
 2719TIP3   OH229571   0.779   6.130  11.368 -0.1734  0.2391  0.1094
 2719TIP3    H129572   0.710   6.165  11.424 -0.8757 -0.0164 -0.5669
 2719TIP3    H229573   0.820   6.207  11.328  1.3921  0.5291  2.1273
 2720TIP3   OH229574   1.069   6.134   0.940 -0.8438  0.1687 -0.6313
 2720TIP3    H129575   1.051   6.228   0.938 -1.3309  0.0695 -0.9829
 2720TIP3    H229576   1.052   6.108   1.031  0.3577  0.6192 -0.2581
 2721TIP3   OH229577   1.815   0.911  17.213  0.6525 -0.3417 -0.2174
 2721TIP3    H129578   1.897   0.862  17.212 -1.2696 -3.9267 -1.5326
 2721TIP3    H229579   1.803   0.939  17.123  0.2840 -0.1124 -0.0993
 2722TIP3   OH229580   5.256   3.274   1.755 -0.5503  0.1960  0.0412
 2722TIP3    H129581   5.315   3.269   1.679 -0.1301 -0.4400  0.4003
 2722TIP3    H229582   5.294   3.213   1.818 -0.9273  0.6761  0.7429
 2723TIP3   OH229583   0.003   4.660  11.522 -0.3241 -0.5372 -0.1237
 2723TIP3    H129584   0.065   4.653  11.594  1.9291  2.3520 -1.5448
 2723TIP3    H229585   0.012   4.577  11.475  3.3038  0.0298 -0.7511
 2724TIP3   OH229586   4.904   2.875  15.504  0.1875  0.6302  0.5275
 2724TIP3    H129587   4.998   2.856  15.494  0.3733  1.4183  0.7164
 2724TIP3    H229588   4.898   2.970  15.495 -0.4689  0.6894  1.4524
 2725TIP3   OH229589   3.558   2.454  14.224 -0.7053 -0.3093  0.3179
 2725TIP3    H129590   3.628   2.465  14.160 -1.7561 -0.1582 -0.8485
 2725TIP3    H229591   3.599   2.408  14.297  0.9082  0.9080  0.2336
 2726TIP3   OH229592   4.383   1.760  12.761 -0.3246  0.6660  0.9851
 2726TIP3    H129593   4.300   1.769  12.713  0.7359 -0.1599 -1.1523
 2726TIP3    H229594   4.394   1.845  12.804 -0.8289  1.9325 -1.1926
 2727TIP3   OH229595   3.501   5.743   1.406  0.5463  0.6925  0.0498
 2727TIP3    H129596   3.510   5.832   1.439  0.0563  0.1894  1.6481
 2727TIP3    H229597   3.415   5.714   1.439 -0.4569  0.4677 -2.5544
 2728TIP3   OH229598   4.264   6.327  13.017  0.1754 -0.0011 -0.3090
 2728TIP3    H129599   4.320   6.404  13.011 -2.2869  1.7958 -2.2277
 2728TIP3    H229600   4.264   6.304  13.110  1.0591  2.2438  0.3038
 2729TIP3   OH229601   5.738   3.679  16.491  0.4335  0.1425 -0.1825
 2729TIP3    H129602   5.810   3.683  16.554  2.1196 -0.7261 -1.9674
 2729TIP3    H229603   5.765   3.734  16.418 -0.3495 -0.7994 -1.2247
 2730TIP3   OH229604   3.467   6.534   2.640 -0.5306 -0.2267 -0.2424
 2730TIP3    H129605   3.409   6.503   2.571 -1.6856 -0.0782  0.6388
 2730TIP3    H229606   3.480   6.627   2.620 -0.4175 -0.3092 -0.5595
 2731TIP3   OH229607   6.473   6.490  12.288  0.0574  0.2217  0.2823
 2731TIP3    H129608   6.461   6.480  12.194  1.5666  1.6212 -0.1083
 2731TIP3    H229609   6.567   6.476  12.302 -0.0746  0.4562  1.5149
 2732TIP3   OH229610   2.268   3.767  12.130 -0.0218 -0.1921  0.1525
 2732TIP3    H129611   2.344   3.760  12.073 -1.1109 -1.1860 -1.2752
 2732TIP3    H229612   2.252   3.861  12.138  0.4203 -0.0166 -0.8461
 2733TIP3   OH229613   4.610   1.419   2.676 -0.2916 -0.0288 -0.3372
 2733TIP3    H129614   4.682   1.454   2.623 -0.4268 -0.4004 -0.7743
 2733TIP3    H229615   4.614   1.324   2.662 -0.7994 -0.0623 -0.2850
 2734TIP3   OH229616   0.404   5.041  17.222 -0.2512 -0.0670 -0.5253
 2734TIP3    H129617   0.468   5.045  17.151 -0.6016 -0.9064 -0.9035
 2734TIP3    H229618   0.433   5.108  17.284  0.9111 -0.3382 -0.7474
 2735TIP3   OH229619   0.614   1.086   0.289 -0.2152  0.1529 -0.7426
 2735TIP3    H129620   0.653   1.159   0.241  1.8282 -0.8425 -0.7019
 2735TIP3    H229621   0.641   1.099   0.379 -0.5861 -0.1806 -0.5804
 2736TIP3   OH229622   3.935   5.214   5.998  0.0212  0.0970 -0.1621
 2736TIP3    H129623   3.872   5.182   6.063  0.4497  1.2477  0.8483
 2736TIP3    H229624   3.888   5.209   5.915 -1.3263  0.6981  0.5351
 2737TIP3   OH229625   1.499   3.524   3.994  0.8560 -0.2325  0.2843
 2737TIP3    H129626   1.494   3.439   4.037  3.2751 -0.7015 -0.2014
 2737TIP3    H229627   1.412   3.538   3.958  0.5669 -2.8523 -0.2308
 2738TIP3   OH229628   5.803   1.910   0.942 -0.1280 -0.1778  0.0178
 2738TIP3    H129629   5.881   1.922   0.888 -0.9312 -0.7707 -1.3149
 2738TIP3    H229630   5.787   1.816   0.942 -0.1705 -0.1974  1.2905
 2739TIP3   OH229631   1.547   1.074   4.629 -0.1919 -0.3022  0.1142
 2739TIP3    H129632   1.462   1.090   4.670  0.6137  1.6329  1.1922
 2739TIP3    H229633   1.545   1.123   4.547 -0.1426 -0.3006  0.1133
 2740TIP3   OH229634   4.156   6.584   1.700  0.2034 -0.2121  0.1593
 2740TIP3    H129635   4.121   6.653   1.644  1.3743  0.3959  0.1427
 2740TIP3    H229636   4.111   6.505   1.672 -0.6881  0.4241 -0.2641
 2741TIP3   OH229637   4.143   4.924   2.837 -0.0783 -0.3535  0.4059
 2741TIP3    H129638   4.207   4.855   2.822  0.8363  0.2163  1.4789
 2741TIP3    H229639   4.178   5.000   2.791 -1.2911 -0.6854 -1.1217
 2742TIP3   OH229640   3.319   6.070   3.845 -0.4676 -0.6537  0.2839
 2742TIP3    H129641   3.412   6.049   3.844 -0.2334  0.2251 -1.7070
 2742TIP3    H229642   3.302   6.106   3.932  2.0327  3.0977 -0.5536
 2743TIP3   OH229643   4.531   2.760  14.347 -0.3864 -0.1553  0.2587
 2743TIP3    H129644   4.487   2.754  14.261 -0.4411 -2.1945  0.3872
 2743TIP3    H229645   4.461   2.787  14.407 -1.3716 -2.5836  0.3149
 2744TIP3   OH229646   4.407   3.494   4.162  0.0259 -0.0535 -0.0493
 2744TIP3    H129647   4.391   3.500   4.068  2.1013 -0.2510 -0.4709
 2744TIP3    H229648   4.502   3.480   4.169 -0.1669 -0.6221  2.0535
 2745TIP3   OH229649   4.252   4.250  11.441  0.3366 -0.4435  0.3286
 2745TIP3    H129650   4.333   4.204  11.463  1.6354  1.4273 -0.2836
 2745TIP3    H229651   4.262   4.337  11.479 -0.7904  0.2693 -0.9139
 2746TIP3   OH229652   6.263   3.114   0.451  0.2447 -0.1839  0.3394
 2746TIP3    H129653   6.319   3.179   0.493  0.8483 -0.6795  0.3155
 2746TIP3    H229654   6.174   3.148   0.462  0.4667  0.1345  1.2241
 2747TIP3   OH229655   1.211   3.503  15.212  0.5147  0.9441 -0.1230
 2747TIP3    H129656   1.301   3.525  15.190  1.5090 -0.1353  2.3962
 2747TIP3    H229657   1.192   3.425  15.160  0.7821  1.5305 -1.1269
 2748TIP3   OH229658   4.600   0.440   1.011  0.0047  0.3373  0.3347
 2748TIP3    H129659   4.635   0.399   1.090  0.0815  1.0997  0.7043
 2748TIP3    H229660   4.538   0.506   1.043  0.2750  0.8724 -0.2223
 2749TIP3   OH229661   2.413   1.535   1.897 -0.3447 -0.5190  0.2352
 2749TIP3    H129662   2.409   1.492   1.983  0.4015 -0.1327  0.4730
 2749TIP3    H229663   2.364   1.477   1.839 -0.8665 -0.7814  0.9232
 2750TIP3   OH229664   2.074   6.735  14.114 -0.0801  0.1150 -0.2498
 2750TIP3    H129665   2.156   6.695  14.083 -0.4859 -0.1505 -1.0008
 2750TIP3    H229666   2.078   6.825  14.081 -0.3879 -0.0898 -0.8665
 2751TIP3   OH229667   6.372   1.342   2.675  0.3319 -0.2117 -0.2644
 2751TIP3    H129668   6.339   1.307   2.592 -1.1499 -0.8317  0.5550
 2751TIP3    H229669   6.307   1.315   2.740  1.0404  0.9661  0.9787
 2752TIP3   OH229670   0.028   2.749  17.242  0.4063 -0.1509 -0.0788
 2752TIP3    H129671   0.109   2.792  17.272  0.4135 -0.3635  0.2144
 2752TIP3    H229672   0.038   2.744  17.147  0.6059  0.0925 -0.0747
 2753TIP3   OH229673   4.222   0.496  14.498 -0.4367 -0.0631  0.2906
 2753TIP3    H129674   4.274   0.521  14.575 -0.0501  0.6324 -0.1859
 2753TIP3    H229675   4.159   0.433  14.532  2.2426 -2.8763  0.4813
 2754TIP3   OH229676   5.067   0.683   5.183  0.2630 -0.1411  0.3785
 2754TIP3    H129677   5.110   0.749   5.238 -1.7757  1.5602  0.0482
 2754TIP3    H229678   4.981   0.671   5.223 -0.4044 -0.5723 -1.1312
 2755TIP3   OH229679   4.782   4.635   5.420 -0.3255 -0.5234 -0.6220
 2755TIP3    H129680   4.786   4.578   5.497 -0.1651  0.0054 -0.2334
 2755TIP3    H229681   4.842   4.594   5.357  0.5854 -0.2172  0.0405
 2756TIP3   OH229682   4.441   1.257   2.881 -0.5755  0.4170 -0.2437
 2756TIP3    H129683   4.515   1.315   2.896  0.0553 -0.3580 -0.3319
 2756TIP3    H229684   4.387   1.304   2.817 -0.1945  1.0038 -0.1479
 2757TIP3   OH229685   3.186   1.103   1.491  0.7093  0.0414  0.3067
 2757TIP3    H129686   3.143   1.179   1.452  0.4591 -0.8868 -1.3412
 2757TIP3    H229687   3.131   1.080   1.565  1.2999  1.9827  1.4203
 2758TIP3   OH229688   3.397   2.241   1.900  0.4819 -0.0308 -0.1890
 2758TIP3    H129689   3.444   2.160   1.883  1.2010  0.6966 -1.9015
 2758TIP3    H229690   3.465   2.307   1.912 -0.0881  0.3375  1.3403
 2759TIP3   OH229691   4.900   6.282   2.614  0.6417  0.0381 -0.3207
 2759TIP3    H129692   4.820   6.253   2.660  0.2028 -0.4174 -1.3409
 2759TIP3    H229693   4.944   6.339   2.677 -1.1632  1.3948 -0.2058
 2760TIP3   OH229694   1.090   4.756   2.975 -0.2690 -0.3212 -0.0973
 2760TIP3    H129695   0.999   4.743   2.948 -0.9769  0.2885  1.7809
 2760TIP3    H229696   1.093   4.847   3.003  0.6109 -0.6338  0.8913
 2761TIP3   OH229697   4.253   0.374   0.623  0.1633 -0.0794  0.0989
 2761TIP3    H129698   4.312   0.310   0.663  0.5019  0.2307  0.1064
 2761TIP3    H229699   4.308   0.419   0.558 -0.9409 -2.1406 -2.4432
 2762TIP3   OH229700   0.728   1.486   3.255  0.5089  0.2489 -0.5138
 2762TIP3    H129701   0.806   1.534   3.282  0.8249 -0.5516  0.0223
 2762TIP3    H229702   0.730   1.405   3.306 -0.8809  0.3811 -0.1787
 2763TIP3   OH229703   5.793   4.265   2.840  0.2305 -0.4936  0.1112
 2763TIP3    H129704   5.708   4.244   2.800 -0.5955  0.1850  1.4278
 2763TIP3    H229705   5.803   4.200   2.909  1.0579 -0.8895 -0.3652
 2764TIP3   OH229706   2.353   3.418  16.109  0.0267 -0.4464  0.2602
 2764TIP3    H129707   2.399   3.429  16.193  1.0522 -0.6366 -0.2621
 2764TIP3    H229708   2.370   3.327  16.084  0.6183 -0.1039 -0.6512
 2765TIP3   OH229709   1.228   3.880  12.495 -0.8363 -0.8144 -0.0188
 2765TIP3    H129710   1.221   3.872  12.591 -1.3030 -0.1787  0.0058
 2765TIP3    H229711   1.142   3.912  12.467  0.1037  1.7015 -0.3382
 2766TIP3   OH229712   3.046   0.102   2.081  0.1275 -0.2601 -0.0990
 2766TIP3    H129713   3.111   0.043   2.118  2.1725  1.3115 -0.9916
 2766TIP3    H229714   3.028   0.165   2.151 -2.7224 -2.2473  1.1774
 2767TIP3   OH229715   4.779   3.908  13.886  0.3940 -0.2248 -0.1241
 2767TIP3    H129716   4.838   3.856  13.831  0.2104  0.5046 -1.0308
 2767TIP3    H229717   4.720   3.951  13.824 -1.2859 -1.1334  0.7718
 2768TIP3   OH229718   1.639   2.984  12.663  1.0290  0.1791 -0.3693
 2768TIP3    H129719   1.578   3.048  12.700 -0.8654 -1.0367 -1.2086
 2768TIP3    H229720   1.622   2.904  12.713  1.5012 -0.3398 -1.0300
 2769TIP3   OH229721   1.560   5.607   1.076 -0.0060 -0.6419  0.7002
 2769TIP3    H129722   1.547   5.670   1.147  0.9008 -0.2552  0.5327
 2769TIP3    H229723   1.488   5.544   1.086 -0.1957 -0.2871  1.6314
 2770TIP3   OH229724   4.450   2.208   4.271 -0.5255  0.8419  0.2034
 2770TIP3    H129725   4.526   2.161   4.304 -0.9400  1.4130  2.0870
 2770TIP3    H229726   4.394   2.221   4.347 -1.6188  2.1157 -0.7574
 2771TIP3   OH229727   3.448   5.069   2.155 -0.0276 -0.2941  0.1880
 2771TIP3    H129728   3.398   5.055   2.236  0.0576  1.2322  0.5306
 2771TIP3    H229729   3.382   5.089   2.089  0.0565  1.6820  0.6316
 2772TIP3   OH229730   0.295   3.908   3.685 -0.2748 -0.0054  0.5709
 2772TIP3    H129731   0.204   3.879   3.695 -0.8400  1.8154  1.3319
 2772TIP3    H229732   0.287   4.000   3.657  1.3175  0.4240  1.4195
 2773TIP3   OH229733   3.293   4.544   5.945  0.0630 -0.8313  0.2503
 2773TIP3    H129734   3.287   4.458   5.905 -0.2742 -1.0441  0.7434
 2773TIP3    H229735   3.383   4.548   5.978  1.3074  0.4635 -2.9419
 2774TIP3   OH229736   2.308   1.736   1.585  0.0578  0.0892  0.6199
 2774TIP3    H129737   2.286   1.827   1.567  1.9242  0.8014  1.6633
 2774TIP3    H229738   2.237   1.706   1.642 -0.7352  0.7753  0.0311
 2775TIP3   OH229739   0.239   5.629  16.540 -0.2362  0.2315 -0.3564
 2775TIP3    H129740   0.327   5.661  16.523  0.3599 -0.3822  1.2947
 2775TIP3    H229741   0.223   5.563  16.473  1.2946 -0.9075  0.3390
 2776TIP3   OH229742   1.717   3.948   1.790  0.3950  0.1876 -0.2119
 2776TIP3    H129743   1.808   3.924   1.805  0.7970  0.7502 -1.6059
 2776TIP3    H229744   1.703   3.935   1.696 -1.2613 -0.8211  0.1232
 2777TIP3   OH229745   1.817   4.138   1.030  0.1238 -0.1837  0.2199
 2777TIP3    H129746   1.850   4.138   1.119 -0.2860 -1.3302  0.3948
 2777TIP3    H229747   1.738   4.085   1.034  0.9330 -1.5631 -1.0980
 2778TIP3   OH229748   0.934   5.219   1.837  0.2476  0.3157 -0.2607
 2778TIP3    H129749   0.945   5.140   1.890 -0.4492 -0.5317 -1.3309
 2778TIP3    H229750   0.849   5.208   1.794  0.6319  1.1248 -1.2944
 2779TIP3   OH229751   4.787   0.208  13.918  0.1200  0.0913 -0.1507
 2779TIP3    H129752   4.764   0.239  14.005  1.0021  1.5460 -0.3891
 2779TIP3    H229753   4.731   0.260  13.859  2.1333  1.8975 -0.5984
 2780TIP3   OH229754   4.914   3.349  13.203 -0.1329 -0.6345 -0.1019
 2780TIP3    H129755   4.990   3.398  13.171 -1.5722  1.5468 -0.3860
 2780TIP3    H229756   4.847   3.362  13.136 -0.7923 -2.4920  0.1582
 2781TIP3   OH229757   4.340   6.686   1.128 -0.4808 -0.1779 -0.2854
 2781TIP3    H129758   4.409   6.627   1.157 -1.7486 -1.0039  1.1702
 2781TIP3    H229759   4.317   6.655   1.041  0.8088 -0.0147 -0.7071
 2782TIP3   OH229760   4.025   1.339  12.364  1.1313  0.2820 -0.7824
 2782TIP3    H129761   4.091   1.271  12.372  1.1259  0.4479  1.2566
 2782TIP3    H229762   3.952   1.309  12.418  1.1054  1.8493  0.1212
 2783TIP3   OH229763   5.527   6.062  16.056 -0.2369  0.5117 -0.4515
 2783TIP3    H129764   5.486   5.985  16.017 -0.6358  0.9712 -0.9495
 2783TIP3    H229765   5.543   6.037  16.147  1.4589 -0.8866 -1.0698
 2784TIP3   OH229766   0.061   5.108   6.535 -0.0780 -0.4382 -0.2480
 2784TIP3    H129767   0.079   5.181   6.594  2.2065  0.3827 -1.8051
 2784TIP3    H229768   0.146   5.065   6.524 -1.1472 -2.7122 -0.2303
 2785TIP3   OH229769   3.056   0.723  14.057 -0.2586 -0.1580  0.0805
 2785TIP3    H129770   3.009   0.792  14.102  0.2776 -1.4089  2.7650
 2785TIP3    H229771   3.148   0.738  14.079 -0.1236 -1.6209  0.6601
 2786TIP3   OH229772   4.238   1.833  13.670 -0.6139 -0.2503 -0.0028
 2786TIP3    H129773   4.165   1.780  13.638 -1.8332  0.4906  1.4247
 2786TIP3    H229774   4.270   1.785  13.747 -0.1400 -0.1447 -0.1312
 2787TIP3   OH229775   1.643   3.227  12.924 -0.4022  0.7412  0.2342
 2787TIP3    H129776   1.557   3.219  12.884 -0.8484  0.9198  1.1485
 2787TIP3    H229777   1.699   3.261  12.853 -1.1548  0.9869 -0.2546
 2788TIP3   OH229778   3.628   0.684  15.332 -0.4404  0.1031 -0.2281
 2788TIP3    H129779   3.611   0.667  15.425  0.5404 -0.6397 -0.1700
 2788TIP3    H229780   3.650   0.777  15.328 -0.5361  0.1510  0.2674
 2789TIP3   OH229781   3.407   6.569   3.957 -0.3993 -0.0909 -0.1997
 2789TIP3    H129782   3.363   6.652   3.935 -0.7947 -0.5002 -0.9951
 2789TIP3    H229783   3.356   6.534   4.030  0.5114  0.9497  0.9781
 2790TIP3   OH229784   0.640   5.434  13.310  0.0111  0.1951 -0.1195
 2790TIP3    H129785   0.715   5.400  13.358  1.6859  1.7854 -1.5017
 2790TIP3    H229786   0.618   5.365  13.247  1.4244  0.4129 -0.8670
 2791TIP3   OH229787   5.250   5.888  15.308  0.3582  0.2636  0.3154
 2791TIP3    H129788   5.169   5.939  15.305 -0.0000  0.1082  3.5570
 2791TIP3    H229789   5.236   5.817  15.245 -0.1409  2.6226 -2.4328
 2792TIP3   OH229790   2.092   5.516   1.186 -0.6435  0.0076  0.3693
 2792TIP3    H129791   2.063   5.426   1.171  0.8962 -0.2601 -1.3891
 2792TIP3    H229792   2.108   5.551   1.098  0.9074  1.2687  1.0946
 2793TIP3   OH229793   4.431   5.156   2.535 -0.6948  0.2173  0.4198
 2793TIP3    H129794   4.406   5.248   2.526  0.6843  0.5447 -0.4870
 2793TIP3    H229795   4.357   5.108   2.499 -1.1468  1.0166  0.2459
 2794TIP3   OH229796   3.498   2.048   4.595 -0.1711  0.2517  1.0451
 2794TIP3    H129797   3.580   2.000   4.585  0.0306  0.3764  1.9592
 2794TIP3    H229798   3.522   2.139   4.580 -0.3085  0.1987  0.5044
 2795TIP3   OH229799   5.013   2.142  16.658 -0.3572  0.4399  0.0203
 2795TIP3    H129800   5.025   2.196  16.736 -1.4060  1.4797 -0.5062
 2795TIP3    H229801   5.067   2.185  16.591  2.5805 -1.8415  0.7036
 2796TIP3   OH229802   4.435   3.942   1.424 -0.1691 -0.6476 -0.1957
 2796TIP3    H129803   4.402   4.031   1.424 -0.2176 -0.6509 -1.1753
 2796TIP3    H229804   4.515   3.946   1.476  0.4289  0.2184 -1.1297
 2797TIP3   OH229805   3.546   4.338   5.568  0.6150 -0.1089 -0.1600
 2797TIP3    H129806   3.530   4.406   5.502  1.2138  0.3818  0.1865
 2797TIP3    H229807   3.487   4.267   5.544 -0.1714  0.6106 -0.4127
 2798TIP3   OH229808   5.595   1.589  12.726  0.0557  0.6443  0.1444
 2798TIP3    H129809   5.568   1.512  12.675 -0.6954  1.7182 -1.1099
 2798TIP3    H229810   5.688   1.573  12.744 -0.3590 -1.1314  0.9841
 2799TIP3   OH229811   4.136   0.507  14.987 -0.5100 -0.2135  0.0370
 2799TIP3    H129812   4.224   0.478  15.010  0.1019  0.3242 -1.5348
 2799TIP3    H229813   4.108   0.445  14.920 -1.4224 -0.4978  0.6612
 2800TIP3   OH229814   6.388   4.261   1.621  0.1301 -0.5235 -0.1348
 2800TIP3    H129815   6.321   4.313   1.578 -0.1538 -1.2405 -0.5901
 2800TIP3    H229816   6.359   4.253   1.712 -0.1665 -0.4477 -0.2242
 2801TIP3   OH229817   4.047   4.565  11.409 -0.1857 -0.0878 -0.4864
 2801TIP3    H129818   4.008   4.484  11.443  0.8302 -0.2618  0.3285
 2801TIP3    H229819   4.133   4.537  11.378 -0.1543  0.5400 -0.9665
 2802TIP3   OH229820   2.444   5.836   4.353 -0.0906  0.2396  0.4102
 2802TIP3    H129821   2.355   5.814   4.327 -0.1882  0.1961  0.7831
 2802TIP3    H229822   2.482   5.877   4.275 -0.3520  0.0246  0.1677
 2803TIP3   OH229823   3.529   3.745  13.725 -0.1505  0.3462  0.8424
 2803TIP3    H129824   3.592   3.680  13.755  0.5652  0.6527  0.0537
 2803TIP3    H229825   3.568   3.781  13.645 -0.9599  1.0984  0.7709
 2804TIP3   OH229826   1.257   0.674   4.341  0.8017 -0.8135 -0.1377
 2804TIP3    H129827   1.274   0.667   4.435 -0.0977  1.5302  0.2531
 2804TIP3    H229828   1.271   0.766   4.321 -2.2930 -0.5534 -1.6030
 2805TIP3   OH229829   2.485   5.225   1.883 -0.2035  0.3312 -0.4502
 2805TIP3    H129830   2.406   5.277   1.876 -0.5530 -0.2049 -0.5333
 2805TIP3    H229831   2.490   5.176   1.800 -1.9720 -2.6909  1.0618
 2806TIP3   OH229832   3.021   5.764   6.869 -0.3741 -0.3522  0.2990
 2806TIP3    H129833   3.102   5.729   6.833  0.6560  0.6705  1.4931
 2806TIP3    H229834   3.007   5.847   6.823 -0.2743 -0.1230  0.6746
 2807TIP3   OH229835   4.320   0.829   3.017  0.7132 -0.4434  0.2127
 2807TIP3    H129836   4.279   0.890   3.077  0.1719 -1.8558  1.3312
 2807TIP3    H229837   4.361   0.885   2.950  1.1698  1.1670  1.7629
 2808TIP3   OH229838   5.513   5.878   0.601  0.7221  0.4183 -0.2339
 2808TIP3    H129839   5.446   5.835   0.548  1.1865 -0.6363  0.0221
 2808TIP3    H229840   5.576   5.910   0.537 -0.3994  2.1613 -0.5481
 2809TIP3   OH229841   5.843   1.656  12.066  0.7393  0.3836 -0.2964
 2809TIP3    H129842   5.841   1.749  12.090 -1.4414  0.6277 -1.1864
 2809TIP3    H229843   5.818   1.655  11.973 -0.7440 -1.1865  0.0810
 2810TIP3   OH229844   1.462   2.500   1.447 -0.5796  0.5536 -0.3310
 2810TIP3    H129845   1.501   2.488   1.360  0.0285  0.9815 -0.1292
 2810TIP3    H229846   1.441   2.594   1.451 -0.9916  0.4571 -0.1703
 2811TIP3   OH229847   2.321   1.324  16.989 -0.2983  0.8208  0.2400
 2811TIP3    H129848   2.382   1.395  17.010 -0.2633  1.2551 -1.2535
 2811TIP3    H229849   2.255   1.365  16.933 -0.2165 -0.3611 -0.7406
 2812TIP3   OH229850   0.942   5.913   4.923  0.5494 -0.3232  0.2817
 2812TIP3    H129851   0.874   5.860   4.881  1.7375 -0.1236 -2.0821
 2812TIP3    H229852   0.908   6.003   4.919  1.4961  0.0211 -2.4022
 2813TIP3   OH229853   6.293   4.862  13.335  0.1053 -0.0998 -0.1995
 2813TIP3    H129854   6.226   4.922  13.301  0.0728  0.6624  1.1269
 2813TIP3    H229855   6.352   4.847  13.261 -0.7163  0.3826 -0.9723
 2814TIP3   OH229856   1.779   3.194  15.015  0.4363 -0.0194 -0.5191
 2814TIP3    H129857   1.700   3.245  14.994  0.8991  1.0439  0.2228
 2814TIP3    H229858   1.775   3.183  15.110  1.3371  0.3146 -0.4369
 2815TIP3   OH229859   4.542   1.929   4.097  0.6017 -0.1695 -0.0373
 2815TIP3    H129860   4.560   1.835   4.092  0.9533 -0.1224  0.3123
 2815TIP3    H229861   4.450   1.937   4.074 -0.0884 -0.8577  2.2714
 2816TIP3   OH229862   5.579   6.081   4.526 -0.1743  0.4829 -0.2038
 2816TIP3    H129863   5.626   6.102   4.446 -0.7157 -1.4138 -1.0647
 2816TIP3    H229864   5.486   6.087   4.502 -0.4222  2.3401  0.9823
 2817TIP3   OH229865   5.593   5.236  14.654  0.6281  0.2099 -0.7710
 2817TIP3    H129866   5.542   5.155  14.650 -1.3706  1.1519  2.4895
 2817TIP3    H229867   5.664   5.216  14.715 -0.7718  1.2171  1.3131
 2818TIP3   OH229868   0.951   1.100  14.266  0.0540  0.7087 -0.1427
 2818TIP3    H129869   0.997   1.054  14.196 -0.3846  0.3535 -0.1955
 2818TIP3    H229870   0.998   1.074  14.346 -1.0174 -0.9384 -0.0001
 2819TIP3   OH229871   4.846   1.461  11.520  0.4207 -0.2811 -0.4178
 2819TIP3    H129872   4.840   1.550  11.554  0.2014 -0.4181 -0.0958
 2819TIP3    H229873   4.759   1.444  11.484 -0.1953 -1.1001  1.3499
 2820TIP3   OH229874   4.981   1.971   4.713  0.4488  0.4825 -0.3301
 2820TIP3    H129875   4.933   1.940   4.790 -1.1630  2.0207 -0.6560
 2820TIP3    H229876   4.990   2.065   4.727  1.5728  0.5449 -1.2834
 2821TIP3   OH229877   4.445   0.280   5.951  0.0640  0.2347  0.0238
 2821TIP3    H129878   4.381   0.249   6.014  0.9615  0.3330  1.0075
 2821TIP3    H229879   4.453   0.373   5.968  0.6648  0.1735  0.0878
 2822TIP3   OH229880   5.681   3.337   4.618  0.1935  0.0620 -0.5512
 2822TIP3    H129881   5.748   3.395   4.655 -0.6531  0.8625 -0.2617
 2822TIP3    H229882   5.605   3.349   4.674 -0.4965 -0.1557 -1.4216
 2823TIP3   OH229883   4.910   6.154  12.859  0.1683  0.2231 -0.1230
 2823TIP3    H129884   4.910   6.058  12.856 -0.2128  0.2264 -0.4135
 2823TIP3    H229885   5.002   6.178  12.868  0.1863 -0.1916  0.8659
 2824TIP3   OH229886   0.631   4.102   1.728  0.4071 -0.2801 -0.0632
 2824TIP3    H129887   0.538   4.110   1.750  0.4601  0.0639  0.0255
 2824TIP3    H229888   0.634   4.112   1.633  0.4586  0.6525  0.0272
 2825TIP3   OH229889   6.109   0.583  11.618 -0.4168 -0.1337 -0.7379
 2825TIP3    H129890   6.146   0.497  11.636 -0.4723 -0.2373 -1.0956
 2825TIP3    H229891   6.178   0.630  11.571 -0.2490  0.1527 -0.2167
 2826TIP3   OH229892   5.600   6.666  11.154  0.3160 -0.2786 -0.2656
 2826TIP3    H129893   5.568   6.579  11.177 -0.0039 -0.3352 -0.8959
 2826TIP3    H229894   5.681   6.676  11.204  0.1465 -0.7760  0.1166
 2827TIP3   OH229895   2.074   5.230   1.867  0.6300  0.6929  0.1421
 2827TIP3    H129896   2.122   5.150   1.849  1.8188  1.0341  1.5988
 2827TIP3    H229897   2.091   5.248   1.960 -3.7196 -0.1374  1.3397
 2828TIP3   OH229898   4.987   6.640   5.037  0.3221 -0.1904  0.6306
 2828TIP3    H129899   4.910   6.598   5.076  2.4109 -2.8901  2.2116
 2828TIP3    H229900   5.009   6.710   5.097  0.6257 -1.1535  1.6706
 2829TIP3   OH229901   6.560   4.130  15.769  0.2778  0.3543 -0.0039
 2829TIP3    H129902   6.486   4.142  15.828 -1.2867 -0.3489 -1.7102
 2829TIP3    H229903   6.584   4.038  15.778 -1.6351 -0.4676 -2.1536
 2830TIP3   OH229904   5.043   6.302   5.894  0.3896  0.1475 -0.1231
 2830TIP3    H129905   4.967   6.307   5.836 -1.2830 -4.1967  1.3167
 2830TIP3    H229906   5.007   6.272   5.978  3.5942 -1.6114  0.7829
 2831TIP3   OH229907   4.050   0.099   4.082  0.5436  0.5944 -0.2714
 2831TIP3    H129908   4.032   0.045   4.158  1.8107  0.7370  0.1516
 2831TIP3    H229909   3.980   0.165   4.081  0.4501  0.5149  0.6971
 2832TIP3   OH229910   1.696   4.537   3.184  0.0647 -0.5678  0.3233
 2832TIP3    H129911   1.718   4.590   3.260 -0.9296  1.3277 -0.6422
 2832TIP3    H229912   1.600   4.535   3.183 -0.1313  2.3419 -2.6578
 2833TIP3   OH229913   5.812   6.611   6.517 -0.4872  0.1778 -0.3253
 2833TIP3    H129914   5.756   6.652   6.582  1.1231  0.5257  0.9071
 2833TIP3    H229915   5.864   6.548   6.567 -0.1391 -0.5086 -1.5153
 2834TIP3   OH229916   2.720   0.351  13.963  0.2345 -0.7023 -0.2675
 2834TIP3    H129917   2.677   0.366  13.878 -1.3373 -0.6074  0.5143
 2834TIP3    H229918   2.760   0.435  13.984  1.2868 -0.9332 -1.2505
 2835TIP3   OH229919   1.391   3.394   2.779 -0.2614  0.1773 -0.1871
 2835TIP3    H129920   1.457   3.330   2.802 -0.6360 -0.3637 -0.5884
 2835TIP3    H229921   1.308   3.354   2.805 -0.3658  1.3796  1.5075
 2836TIP3   OH229922   1.075   1.791  10.851  0.2241  0.2525 -0.4500
 2836TIP3    H129923   1.072   1.886  10.859 -0.1914  0.3112 -1.1584
 2836TIP3    H229924   0.987   1.766  10.823 -0.2146 -0.5394  1.4631
 2837TIP3   OH229925   6.240   5.001  15.963 -0.6292  0.0895 -0.2491
 2837TIP3    H129926   6.222   5.094  15.969 -1.0816  0.0387 -0.7889
 2837TIP3    H229927   6.329   4.996  15.927 -0.2626  0.3112  0.5846
 2838TIP3   OH229928   2.825   3.184  15.575  0.9867 -0.9123  0.4322
 2838TIP3    H129929   2.749   3.170  15.519  0.6826 -0.1057  0.6483
 2838TIP3    H229930   2.796   3.161  15.663  1.4096 -1.9843  0.3172
 2839TIP3   OH229931   1.774   6.673  13.843 -0.3169  0.4820  0.6833
 2839TIP3    H129932   1.863   6.640  13.837 -0.0054  1.4368  0.0035
 2839TIP3    H229933   1.777   6.738  13.913 -1.3188 -2.0398  3.3389
 2840TIP3   OH229934   6.532   0.344  15.190  0.0381  0.3417  0.3768
 2840TIP3    H129935   6.489   0.355  15.106  0.2231 -1.7059 -0.0371
 2840TIP3    H229936   6.626   0.347  15.170  0.0856  0.2324  0.5757
 2841TIP3   OH229937   5.885   0.353  11.566  0.0240  0.4895 -0.6932
 2841TIP3    H129938   5.969   0.396  11.579  0.6489 -0.6195 -0.9253
 2841TIP3    H229939   5.849   0.342  11.654 -0.5864  2.2878 -0.6862
 2842TIP3   OH229940   3.396   6.723  14.251  0.4980 -0.4079 -0.0403
 2842TIP3    H129941   3.318   6.689  14.295  1.0561  0.1346  1.4276
 2842TIP3    H229942   3.390   6.688  14.162 -2.4118  1.1467 -0.5991
 2843TIP3   OH229943   2.470   5.265  14.573 -0.1569 -0.1554  0.2286
 2843TIP3    H129944   2.451   5.213  14.495  1.1346 -1.0794  0.4927
 2843TIP3    H229945   2.385   5.275  14.616 -0.7146 -0.5291 -0.7499
 2844TIP3   OH229946   5.814   4.101   2.395 -0.0257  0.0679  0.5155
 2844TIP3    H129947   5.885   4.045   2.426  0.1533 -0.3521 -0.6139
 2844TIP3    H229948   5.734   4.052   2.416 -0.0629  0.7902  2.2995
 2845TIP3   OH229949   4.276   0.220  11.850  0.4561 -0.5751  0.3805
 2845TIP3    H129950   4.278   0.227  11.945  2.9059 -1.3542  0.4425
 2845TIP3    H229951   4.316   0.136  11.830  0.8491 -0.0247 -1.3838
 2846TIP3   OH229952   5.305   1.562  15.597 -1.1204  0.3027  0.6820
 2846TIP3    H129953   5.236   1.619  15.631 -1.8504 -0.6214  0.7710
 2846TIP3    H229954   5.349   1.528  15.676  0.5330  2.1338  0.6403
 2847TIP3   OH229955   2.268   5.171  16.766 -0.0663 -0.4949  0.3651
 2847TIP3    H129956   2.283   5.198  16.675  2.0124 -0.9540  0.5230
 2847TIP3    H229957   2.232   5.249  16.808 -0.9832 -0.2517 -0.8181
 2848TIP3   OH229958   4.912   6.338   4.482 -0.1095  0.5275 -0.1992
 2848TIP3    H129959   4.981   6.272   4.475 -0.8828 -0.2431 -0.8380
 2848TIP3    H229960   4.951   6.409   4.533  1.4284  0.4927 -1.2725
 2849TIP3   OH229961   4.483   2.613   2.952 -0.0533  0.0547 -0.2813
 2849TIP3    H129962   4.458   2.524   2.974  0.4555  0.0235  0.1938
 2849TIP3    H229963   4.402   2.655   2.922 -0.5552 -0.1750  0.7441
 2850TIP3   OH229964   5.397   0.127   1.499 -0.1573 -0.1330 -0.1472
 2850TIP3    H129965   5.473   0.098   1.448 -0.1659  0.8212 -0.7386
 2850TIP3    H229966   5.336   0.053   1.497  0.8944 -1.0495  0.6434
 2851TIP3   OH229967   2.819   2.913  14.417  0.4141 -0.0567  0.6700
 2851TIP3    H129968   2.789   2.958  14.496 -2.3743 -1.3177  0.4488
 2851TIP3    H229969   2.837   2.823  14.445  0.5526 -0.2180  0.0932
 2852TIP3   OH229970   3.460   0.461   1.389 -0.3590 -0.5928 -0.6154
 2852TIP3    H129971   3.383   0.492   1.341  0.0351 -0.4056 -1.1376
 2852TIP3    H229972   3.529   0.522   1.365  0.3192 -1.6025 -1.3259
 2853TIP3   OH229973   0.197   1.531   5.480  0.4212  0.0136  0.0286
 2853TIP3    H129974   0.255   1.595   5.520 -1.0828  2.0184 -0.8498
 2853TIP3    H229975   0.122   1.582   5.449  0.1618 -1.8283 -2.7072
 2854TIP3   OH229976   5.196   1.655   6.388  0.2412 -0.5366  0.3266
 2854TIP3    H129977   5.144   1.581   6.357 -2.5246  0.2824  2.5938
 2854TIP3    H229978   5.229   1.626   6.473 -2.8765  1.4764  2.3986
 2855TIP3   OH229979   0.283   2.064  11.259  0.0684  0.0448 -0.0061
 2855TIP3    H129980   0.230   2.001  11.210  0.3181 -0.1194 -0.0655
 2855TIP3    H229981   0.219   2.123  11.299 -0.3225 -1.5641  1.8935
 2856TIP3   OH229982   0.548   6.001   1.048 -0.3437 -0.0140  0.3513
 2856TIP3    H129983   0.637   5.966   1.042 -0.2560  0.4152 -1.4504
 2856TIP3    H229984   0.494   5.925   1.070  0.1759 -0.8097 -0.9757
 2857TIP3   OH229985   2.825   4.038   2.600  0.3299 -0.0428  0.0800
 2857TIP3    H129986   2.822   4.005   2.510  0.3608  0.6915 -0.1951
 2857TIP3    H229987   2.916   4.028   2.627  0.4362  0.2628 -0.1683
 2858TIP3   OH229988   1.007   3.017   3.958 -0.2226  0.0658 -0.4529
 2858TIP3    H129989   1.046   2.936   3.990 -0.9345 -0.0530  0.1363
 2858TIP3    H229990   0.914   3.009   3.980 -0.3707  0.8589 -0.7682
 2859TIP3   OH229991   5.493   1.178   4.399  0.0776  0.2380  0.0137
 2859TIP3    H129992   5.459   1.264   4.424 -0.5241  0.0201 -0.0168
 2859TIP3    H229993   5.550   1.153   4.472 -1.1023 -0.0758  0.8666
 2860TIP3   OH229994   4.229   3.162   2.945  0.3829  0.4496 -0.6593
 2860TIP3    H129995   4.300   3.222   2.923 -0.9314  1.7904 -1.4053
 2860TIP3    H229996   4.227   3.100   2.871  0.4456  0.7113 -0.8812
 2861TIP3   OH229997   3.816   5.244  13.154  0.1368 -0.1946  0.2750
 2861TIP3    H129998   3.752   5.222  13.222 -1.0975 -0.1315 -0.8197
 2861TIP3    H229999   3.899   5.252  13.201 -0.9605  1.6631  2.0965
 2862TIP3   OH230000   2.430   5.386   0.882  0.3769  0.2029  0.3373
 2862TIP3    H130001   2.409   5.452   0.948  2.2489  1.3291 -0.1277
 2862TIP3    H230002   2.456   5.436   0.805  0.3748 -1.0962 -0.5513
 2863TIP3   OH230003   1.675   3.488  13.073  0.3302 -0.3110 -0.8210
 2863TIP3    H130004   1.768   3.498  13.052  0.4721  1.0116  0.2899
 2863TIP3    H230005   1.653   3.399  13.045  1.2627  0.1898 -3.4806
 2864TIP3   OH230006   5.801   0.109  16.642  0.3004  0.0899  0.2272
 2864TIP3    H130007   5.872   0.065  16.596  1.0287  1.6872 -0.2228
 2864TIP3    H230008   5.792   0.060  16.724  2.0771 -0.0029  0.4055
 2865TIP3   OH230009   0.822   6.550  16.767 -0.3045 -0.2521  0.5497
 2865TIP3    H130010   0.737   6.582  16.737 -0.2623 -0.4546  0.2103
 2865TIP3    H230011   0.839   6.601  16.847 -0.3178  0.4485  0.1180
 2866TIP3   OH230012   1.824   2.547   1.300  0.0014 -0.0586 -0.4018
 2866TIP3    H130013   1.831   2.599   1.380 -0.4209  0.9880 -1.0143
 2866TIP3    H230014   1.731   2.527   1.291  0.2494 -1.5730  0.2045
 2867TIP3   OH230015   3.868   0.948   0.300  0.1619 -0.0234  0.1602
 2867TIP3    H130016   3.896   0.931   0.210  0.1415  1.4689 -0.1496
 2867TIP3    H230017   3.947   0.975   0.346 -0.1894  1.2357  0.0545
 2868TIP3   OH230018   4.130   1.046  16.835 -0.0736  0.0419  0.0243
 2868TIP3    H130019   4.097   1.094  16.911 -1.1376 -1.2407  0.4313
 2868TIP3    H230020   4.208   1.000  16.868 -0.4098 -0.3426  0.2995
 2869TIP3   OH230021   2.505   1.821  15.966 -0.0769 -0.3972  0.0950
 2869TIP3    H130022   2.525   1.737  15.926  1.7287  0.5229 -1.0588
 2869TIP3    H230023   2.571   1.881  15.932 -1.7337  1.6827  0.3027
 2870TIP3   OH230024   1.195   2.608   5.184 -0.0344  0.0167 -0.3740
 2870TIP3    H130025   1.250   2.539   5.146  0.4752 -0.0713  0.5126
 2870TIP3    H230026   1.183   2.583   5.275 -2.6886 -0.6852 -0.8200
 2871TIP3   OH230027   4.560   0.644  16.733  0.3880 -0.2846 -0.6117
 2871TIP3    H130028   4.467   0.665  16.738  0.7121  0.9999  0.7096
 2871TIP3    H230029   4.562   0.549  16.718 -1.1332 -0.5405  0.4911
 2872TIP3   OH230030   1.422   2.288  13.669  0.1981  0.0416 -0.1750
 2872TIP3    H130031   1.377   2.316  13.748 -0.9097 -1.8072 -0.1025
 2872TIP3    H230032   1.491   2.228  13.699  2.2867  2.1777 -0.3580
 2873TIP3   OH230033   2.635   6.043  15.918  0.1110 -0.7823  0.2820
 2873TIP3    H130034   2.584   5.963  15.904 -0.1055 -0.3305 -1.9270
 2873TIP3    H230035   2.616   6.097  15.841  2.3983  0.2368  0.3508
 2874TIP3   OH230036   0.741   3.184  11.726 -0.2572  0.3935  0.4205
 2874TIP3    H130037   0.722   3.095  11.695 -2.3121  0.6848  0.7272
 2874TIP3    H230038   0.791   3.224  11.655 -2.2668  0.0732 -1.2548
 2875TIP3   OH230039   1.863   4.325  11.667 -0.2116 -0.4872  0.6505
 2875TIP3    H130040   1.826   4.237  11.657 -3.8313  0.9805 -0.8373
 2875TIP3    H230041   1.817   4.362  11.742  0.6952  0.4130  0.7807
 2876TIP3   OH230042   0.399   2.705  15.174 -0.3488 -0.3303  0.2062
 2876TIP3    H130043   0.410   2.794  15.208  0.7859 -0.3827  0.0229
 2876TIP3    H230044   0.472   2.694  15.112 -0.7724 -1.2118 -0.1531
 2877TIP3   OH230045   5.823   0.041  16.142 -0.2422 -0.0890 -0.1661
 2877TIP3    H130046   5.818   0.007  16.232  0.5312 -0.4804 -0.2708
 2877TIP3    H230047   5.916   0.052  16.125 -0.3603 -0.4783 -1.1042
 2878TIP3   OH230048   1.599   3.240   0.474  0.0166  0.1998 -0.3084
 2878TIP3    H130049   1.589   3.327   0.514 -1.4722 -0.3325  0.5514
 2878TIP3    H230050   1.662   3.195   0.531  1.0071  0.7735 -0.9133
 2879TIP3   OH230051   5.094   6.458  14.387  0.4221 -0.4333 -0.1737
 2879TIP3    H130052   5.144   6.393  14.337  0.7777 -0.9201  0.7831
 2879TIP3    H230053   5.161   6.520  14.418  0.1576  0.0657 -0.5881
 2880TIP3   OH230054   2.774   0.490  15.635  0.8315 -0.4102 -0.2479
 2880TIP3    H130055   2.716   0.564  15.650  0.6432 -0.1698 -2.0053
 2880TIP3    H230056   2.861   0.529  15.627  0.9818 -0.5740  0.4936
 2881TIP3   OH230057   5.498   1.769   5.287 -0.1242 -0.3002  0.1718
 2881TIP3    H130058   5.402   1.762   5.278 -0.2369  0.4764  0.6628
 2881TIP3    H230059   5.513   1.766   5.381 -0.2601  5.5086  0.7219
 2882TIP3   OH230060   0.742   4.902  17.045  0.6277  0.4059 -0.4400
 2882TIP3    H130061   0.696   4.828  17.006 -1.0816  0.5943  1.0643
 2882TIP3    H230062   0.787   4.866  17.121 -2.8070  1.2523  2.2435
 2883TIP3   OH230063   3.825   6.601  16.251  0.3162 -0.1461 -0.1824
 2883TIP3    H130064   3.807   6.677  16.196 -0.0215  0.6916  1.0511
 2883TIP3    H230065   3.868   6.539  16.193 -0.9479  0.2985 -1.6382
 2884TIP3   OH230066   1.654   4.809   0.992  0.2226  0.5136  0.5016
 2884TIP3    H130067   1.722   4.863   1.034 -0.0805  0.4180  1.1273
 2884TIP3    H230068   1.701   4.730   0.964  0.2010 -0.0154  1.8532
 2885TIP3   OH230069   6.492   1.832   0.444  0.1125  0.8269  0.6131
 2885TIP3    H130070   6.460   1.918   0.471 -0.9122  0.0393  2.0273
 2885TIP3    H230071   6.417   1.790   0.403  0.8021  0.8374 -0.7267
 2886TIP3   OH230072   6.320   1.433   4.825 -0.1234 -0.0923 -0.2396
 2886TIP3    H130073   6.338   1.504   4.764 -1.4344 -1.2160 -2.0168
 2886TIP3    H230074   6.388   1.442   4.892  0.7286  1.8217 -1.2658
 2887TIP3   OH230075   3.689   1.446   0.065 -0.3578 -0.0127 -0.3615
 2887TIP3    H130076   3.769   1.393   0.060 -0.3891 -0.1095  0.1381
 2887TIP3    H230077   3.649   1.422   0.149  1.2074  3.0046  1.4308
 2888TIP3   OH230078   3.848   6.230  12.357  0.3417  0.6240 -0.2732
 2888TIP3    H130079   3.809   6.282  12.287 -1.3138 -1.3435 -0.8986
 2888TIP3    H230080   3.780   6.167  12.382  1.9506 -0.7265  0.9803
 2889TIP3   OH230081   0.383   6.309  16.058  0.1663 -0.2146  0.0806
 2889TIP3    H130082   0.463   6.314  16.110  0.4651 -0.2924 -0.3693
 2889TIP3    H230083   0.412   6.285  15.970 -0.0835  1.9566 -0.6753
 2890TIP3   OH230084   1.248   5.629   0.657 -0.2573  0.2902 -0.1483
 2890TIP3    H130085   1.190   5.562   0.694  1.4956 -0.8985  0.5702
 2890TIP3    H230086   1.274   5.683   0.732  0.9563 -0.2902 -0.1343
 2891TIP3   OH230087   4.942   1.130   5.195  0.7169  0.4649  0.6618
 2891TIP3    H130088   4.852   1.150   5.172  0.6619  0.6836  1.0612
 2891TIP3    H230089   4.971   1.070   5.126 -0.5247 -1.5866  1.8179
 2892TIP3   OH230090   5.121   4.204  13.959 -0.1516  0.0483  0.3405
 2892TIP3    H130091   5.093   4.141  14.026  0.6994  0.0738  0.7319
 2892TIP3    H230092   5.212   4.181  13.941 -0.0652  0.6883 -0.0816
 2893TIP3   OH230093   1.967   3.222   4.453  0.2465  0.2827 -0.5936
 2893TIP3    H130094   1.982   3.255   4.364  0.0304  0.7587 -0.4541
 2893TIP3    H230095   2.051   3.235   4.497  0.0505  0.9806 -0.4317
 2894TIP3   OH230096   1.075   0.369   3.576 -0.1334  0.6185  0.0819
 2894TIP3    H130097   1.165   0.368   3.544 -0.6115 -2.0489 -1.4666
 2894TIP3    H230098   1.070   0.295   3.637 -0.6191  2.4622  2.4202
 2895TIP3   OH230099   0.844   2.789  15.884 -0.7034  0.3025  0.1037
 2895TIP3    H130100   0.842   2.856  15.816  0.7533  1.5734  1.2687
 2895TIP3    H230101   0.772   2.812  15.943  0.1252  1.1954  0.7930
 2896TIP3   OH230102   5.314   5.062  10.690 -0.4128 -0.1550 -0.6062
 2896TIP3    H130103   5.338   4.988  10.746 -2.7749  0.8642  1.9519
 2896TIP3    H230104   5.366   5.135  10.723 -0.9068  0.1772 -0.5570
 2897TIP3   OH230105   3.338   1.194   4.472  0.2411  0.1448 -0.2719
 2897TIP3    H130106   3.277   1.267   4.483 -1.0150 -0.9725  0.5160
 2897TIP3    H230107   3.422   1.228   4.502 -0.5160  1.0067  0.9605
 2898TIP3   OH230108   5.018   1.168  11.209  0.9018  0.0815  0.7218
 2898TIP3    H130109   5.068   1.183  11.130 -0.1484  0.8640  0.1685
 2898TIP3    H230110   5.022   1.252  11.256  2.4866 -0.7075  2.1100
 2899TIP3   OH230111   4.180   4.542  12.938  0.2405 -0.0712 -0.4778
 2899TIP3    H130112   4.087   4.522  12.927 -0.0787  0.8962  0.2630
 2899TIP3    H230113   4.180   4.630  12.975  1.4943  0.7659 -2.3071
 2900TIP3   OH230114   2.726   0.818   4.474  0.4538 -0.6799  0.0351
 2900TIP3    H130115   2.674   0.782   4.402  1.3291 -1.6045 -0.1583
 2900TIP3    H230116   2.813   0.780   4.462  2.2003  3.2618 -1.5557
 2901TIP3   OH230117   4.925   4.916  14.779  0.5654 -0.2150 -0.3441
 2901TIP3    H130118   4.995   4.873  14.828  0.0140 -1.8664 -0.9342
 2901TIP3    H230119   4.847   4.902  14.832 -0.1438 -2.4993 -1.8423
 2902TIP3   OH230120   6.125   2.602   3.952  0.4034  0.2190 -0.1692
 2902TIP3    H130121   6.187   2.588   3.881 -0.0119 -1.0921 -0.2967
 2902TIP3    H230122   6.039   2.592   3.912  0.1225  0.9671  0.2238
 2903TIP3   OH230123   2.952   4.840   2.374 -0.2820 -0.4315  0.6358
 2903TIP3    H130124   2.997   4.907   2.426 -0.6623  0.3736 -0.0485
 2903TIP3    H230125   3.016   4.770   2.363  1.5265  1.4495 -1.8549
 2904TIP3   OH230126   0.003   2.230  14.815  0.5389 -0.1099  0.4969
 2904TIP3    H130127  -0.051   2.272  14.748  1.0650  0.6812  0.5643
 2904TIP3    H230128   0.088   2.218  14.773  0.6575 -0.2863  0.7864
 2905TIP3   OH230129   4.754   2.480   0.141 -0.0371  0.0479  0.4795
 2905TIP3    H130130   4.735   2.527   0.222  1.0089  0.2366  0.6386
 2905TIP3    H230131   4.821   2.533   0.098 -0.0842 -0.4095 -0.1769
 2906TIP3   OH230132   4.487   1.239   4.428 -0.1909  0.1016  0.6348
 2906TIP3    H130133   4.460   1.327   4.404 -1.3582 -0.3309  0.2804
 2906TIP3    H230134   4.583   1.242   4.427 -0.2152  1.3576  0.6447
 2907TIP3   OH230135   2.353   4.247   5.303 -0.2312  0.8944 -0.0340
 2907TIP3    H130136   2.341   4.297   5.384  0.1004 -0.3261  0.7965
 2907TIP3    H230137   2.431   4.286   5.262 -0.0269  1.1241  0.5565
 2908TIP3   OH230138   4.266   2.117   0.198  0.0138  0.3227  0.3002
 2908TIP3    H130139   4.347   2.099   0.245 -0.6672  1.4719  2.0486
 2908TIP3    H230140   4.227   2.032   0.182  1.3229 -0.2152 -0.1559
 2909TIP3   OH230141   2.630   6.662  15.686 -0.5017 -0.3193 -0.2967
 2909TIP3    H130142   2.713   6.617  15.705 -0.4974 -0.3511 -0.3929
 2909TIP3    H230143   2.646   6.753  15.712 -0.7881 -0.5447  0.7204
 2910TIP3   OH230144   2.376   4.192  12.717  0.5899 -0.0568 -0.2799
 2910TIP3    H130145   2.415   4.143  12.789 -0.6405 -0.8166 -0.1019
 2910TIP3    H230146   2.341   4.125  12.659 -2.3200  0.5417  0.6339
 2911TIP3   OH230147   1.851   2.272   6.182 -0.9394  0.1421  0.2297
 2911TIP3    H130148   1.781   2.338   6.181  0.1528  1.3685 -1.6402
 2911TIP3    H230149   1.926   2.317   6.144  0.4994 -1.5499  0.9774
 2912TIP3   OH230150   5.117   5.617  13.508  0.3609  0.8938  0.0847
 2912TIP3    H130151   5.088   5.550  13.570 -0.3202 -1.1958 -2.3655
 2912TIP3    H230152   5.213   5.615  13.513  0.3190  0.5895  0.8788
 2913TIP3   OH230153   3.557   4.304  13.259  0.9078 -0.2250 -0.2790
 2913TIP3    H130154   3.544   4.234  13.323 -1.3421  0.0325 -0.3948
 2913TIP3    H230155   3.507   4.378  13.292  1.4017  0.5963 -1.2923
 2914TIP3   OH230156   6.659   1.843  12.644  0.2531 -0.2691 -0.3537
 2914TIP3    H130157   6.671   1.799  12.728  0.5461 -1.0956 -0.8184
 2914TIP3    H230158   6.740   1.891  12.629  0.6231 -0.9841 -0.6606
 2915TIP3   OH230159   3.139   4.984  16.362  0.2184 -0.4432  0.0859
 2915TIP3    H130160   3.205   5.031  16.312 -1.3337 -0.3953 -2.0740
 2915TIP3    H230161   3.155   4.892  16.343  1.2819 -0.6621  1.7712
 2916TIP3   OH230162   4.000   1.303   5.190  0.4675  0.7151 -0.3228
 2916TIP3    H130163   3.965   1.263   5.110  1.0341 -0.4379 -0.0162
 2916TIP3    H230164   4.093   1.316   5.172  1.2711 -2.1397  1.0390
 2917TIP3   OH230165   5.805   4.044   3.010 -0.3154 -0.0231  0.9484
 2917TIP3    H130166   5.813   4.004   3.096 -0.4123  0.1827  1.0536
 2917TIP3    H230167   5.746   3.985   2.962 -2.8660  1.4781  2.0402
 2918TIP3   OH230168   3.848   2.722  14.361 -0.3179 -0.3808 -0.1378
 2918TIP3    H130169   3.872   2.658  14.428 -0.7530 -0.1260  0.2683
 2918TIP3    H230170   3.875   2.682  14.278  0.6270 -0.5083  0.2251
 2919TIP3   OH230171   3.033   3.128  14.591 -0.2259 -0.4420 -0.0933
 2919TIP3    H130172   3.001   3.189  14.658 -0.1256 -0.2948 -0.1781
 2919TIP3    H230173   3.041   3.045  14.637 -2.1937 -0.8709 -0.4292
 2920TIP3   OH230174   0.315   4.909   5.318 -0.0039  0.5676 -0.1554
 2920TIP3    H130175   0.313   4.924   5.223 -1.1365  0.7152 -0.1222
 2920TIP3    H230176   0.229   4.938   5.349 -0.8490 -2.2583  0.4581
 2921TIP3   OH230177   0.696   5.073   2.251 -0.7431  0.2442 -0.1147
 2921TIP3    H130178   0.673   5.143   2.190  0.5902 -0.6582 -1.7437
 2921TIP3    H230179   0.724   5.000   2.195 -2.5567 -1.8259  1.4870
 2922TIP3   OH230180   5.435   0.066  14.706 -0.1048 -0.1477 -0.0737
 2922TIP3    H130181   5.524   0.087  14.679 -0.2920 -0.3973 -0.9127
 2922TIP3    H230182   5.380   0.127  14.657 -0.4089 -0.1318  0.2827
 2923TIP3   OH230183   0.236   6.072   1.794 -0.1476  0.9786  0.3258
 2923TIP3    H130184   0.229   5.978   1.777  1.4093  1.1639 -1.6404
 2923TIP3    H230185   0.311   6.080   1.853  0.9770  1.0869 -1.0674
 2924TIP3   OH230186   2.717   4.747  13.273 -0.7680 -0.3266  0.3260
 2924TIP3    H130187   2.718   4.699  13.356 -0.1327 -0.2137  0.3858
 2924TIP3    H230188   2.636   4.799  13.277 -1.0537 -0.7809  0.6054
 2925TIP3   OH230189   2.926   1.562   2.688  0.2812  0.5811  0.1327
 2925TIP3    H130190   2.925   1.522   2.775 -0.2895  1.3905  0.5048
 2925TIP3    H230191   2.834   1.582   2.670 -0.1836 -2.6847 -2.1277
 2926TIP3   OH230192   3.126   2.368  16.617 -0.1645  0.0967 -0.1655
 2926TIP3    H130193   3.165   2.295  16.665 -0.7325  0.4916  0.9309
 2926TIP3    H230194   3.107   2.433  16.685 -0.4628  0.9051 -1.0140
 2927TIP3   OH230195   0.448   1.048  13.092 -0.7393  0.4016  0.2270
 2927TIP3    H130196   0.498   1.129  13.081 -1.1316  0.5045 -0.9168
 2927TIP3    H230197   0.356   1.075  13.079 -1.0193  0.0472  1.3836
 2928TIP3   OH230198   5.389   6.263  15.907 -0.1154 -0.6851 -0.1313
 2928TIP3    H130199   5.370   6.181  15.952  0.9215 -0.2467  1.1512
 2928TIP3    H230200   5.403   6.238  15.815  1.5396 -2.1568  0.4766
 2929TIP3   OH230201   3.137   0.060   0.957 -0.0709 -0.3222  0.0786
 2929TIP3    H130202   3.171  -0.029   0.946  0.1866 -0.5225  2.1342
 2929TIP3    H230203   3.113   0.065   1.049 -1.8805  1.1499 -0.4305
 2930TIP3   OH230204   4.203   5.785   5.432 -0.3623  0.3931 -0.1403
 2930TIP3    H130205   4.249   5.849   5.376  0.5866 -0.0731  0.0784
 2930TIP3    H230206   4.186   5.711   5.375  0.7421 -0.1451  0.2017
 2931TIP3   OH230207   6.545   1.184  17.328 -0.0579  0.3272  0.9794
 2931TIP3    H130208   6.591   1.265  17.307  0.7159 -0.6842 -1.5636
 2931TIP3    H230209   6.602   1.140  17.391  0.3559  0.9854  1.0731
 2932TIP3   OH230210   5.092   5.173  15.733  0.4885  0.1374  0.8760
 2932TIP3    H130211   5.165   5.111  15.730 -1.1097 -1.9137  1.3396
 2932TIP3    H230212   5.117   5.238  15.799  1.4772 -1.0918  1.7556
 2933TIP3   OH230213   1.362   0.234   6.055  0.4056 -0.5306  0.2132
 2933TIP3    H130214   1.288   0.241   6.115 -0.0315 -1.6141 -0.1709
 2933TIP3    H230215   1.437   0.219   6.113 -0.2486 -3.2700  0.5000
 2934TIP3   OH230216   1.080   0.638  11.524  0.5848 -0.1994  0.7340
 2934TIP3    H130217   1.004   0.581  11.512 -0.2436  0.6489  1.7366
 2934TIP3    H230218   1.154   0.588  11.489 -0.2433 -1.5218  0.8216
 2935TIP3   OH230219   5.139   4.194   1.998  0.6145 -0.2057 -0.1407
 2935TIP3    H130220   5.061   4.209   2.051 -0.5359  0.5566 -1.9591
 2935TIP3    H230221   5.189   4.129   2.047 -1.4260 -1.1391  0.8258
 2936TIP3   OH230222   4.405   5.767  13.875  1.1481 -0.0884 -0.6315
 2936TIP3    H130223   4.400   5.772  13.780  1.4770 -0.2909 -0.6583
 2936TIP3    H230224   4.488   5.810  13.898  2.1393 -1.9241 -0.5926
 2937TIP3   OH230225   1.043   6.412   3.464  0.2901  0.6052  0.0719
 2937TIP3    H130226   1.018   6.500   3.491  0.5878  0.2803  1.5198
 2937TIP3    H230227   1.138   6.417   3.450  0.2772  0.5646 -0.0289
 2938TIP3   OH230228   6.213   3.145  13.689  0.4763  0.2641  0.1122
 2938TIP3    H130229   6.182   3.055  13.679  0.9120 -0.1428  1.9510
 2938TIP3    H230230   6.225   3.155  13.784  3.2179  1.2942 -0.2642
 2939TIP3   OH230231   2.406   6.463  14.984 -0.1273 -0.2343 -0.5213
 2939TIP3    H130232   2.465   6.387  14.978 -1.2083 -1.0755 -0.7740
 2939TIP3    H230233   2.429   6.505  15.067  1.2892 -0.1336 -0.9314
 2940TIP3   OH230234   0.213   4.526  12.133  0.2551  0.2400  0.3202
 2940TIP3    H130235   0.302   4.493  12.126  0.6222  1.3636 -0.7482
 2940TIP3    H230236   0.187   4.507  12.223  0.7827 -1.9711  0.0720
 2941TIP3   OH230237   5.669   3.372  14.289  0.4139  0.5933 -0.0959
 2941TIP3    H130238   5.639   3.417  14.368  2.0126  1.6447 -0.0232
 2941TIP3    H230239   5.649   3.280  14.304  2.5141  0.4379  2.5046
 2942TIP3   OH230240   2.924   3.083   1.145  0.2138  0.1857  0.2002
 2942TIP3    H130241   2.962   3.039   1.069  1.9004  0.5456  0.7830
 2942TIP3    H230242   2.861   3.145   1.109 -2.6459 -2.9356 -0.6476
 2943TIP3   OH230243   4.674   2.758  16.206 -0.1913  0.5726  0.2315
 2943TIP3    H130244   4.748   2.774  16.266  0.0197  2.1266 -0.3930
 2943TIP3    H230245   4.601   2.735  16.264  0.2246  1.2345  1.0483
 2944TIP3   OH230246   2.994   1.123  17.305 -0.2959 -0.4500 -0.1162
 2944TIP3    H130247   2.900   1.121  17.326 -0.4655  0.0552 -0.7794
 2944TIP3    H230248   3.026   1.204  17.344 -0.1941 -0.4853 -0.1260
 2945TIP3   OH230249   1.510   2.997   1.603  0.1230 -0.2132 -0.5505
 2945TIP3    H130250   1.544   3.062   1.540  0.3064 -1.3554 -1.6784
 2945TIP3    H230251   1.417   2.990   1.581 -0.5971  1.7817  1.5217
 2946TIP3   OH230252   3.529   2.133  12.664  0.2589  0.5449 -0.2251
 2946TIP3    H130253   3.539   2.038  12.668 -1.0003  0.4476  2.1771
 2946TIP3    H230254   3.546   2.164  12.753 -0.6845  2.4107 -0.6172
 2947TIP3   OH230255   5.447   2.277   6.148  0.2562 -0.0705 -0.6745
 2947TIP3    H130256   5.532   2.243   6.177  0.1312  0.9343  0.9633
 2947TIP3    H230257   5.462   2.302   6.057  2.5582  2.5980  0.2954
 2948TIP3   OH230258   0.932   5.355  12.009  0.0301  0.4040 -0.4192
 2948TIP3    H130259   0.948   5.318  12.096  1.5541 -0.7650 -1.1532
 2948TIP3    H230260   0.988   5.433  12.006  1.3039 -0.4978 -0.9245
 2949TIP3   OH230261   3.100   3.461  15.247  0.5097  0.5033  0.2762
 2949TIP3    H130262   3.184   3.504  15.228  1.2811 -1.0735 -0.0375
 2949TIP3    H230263   3.125   3.379  15.291 -0.8313 -0.3309 -0.4658
 2950TIP3   OH230264   1.944   0.029  15.281 -0.0161  0.2482  1.3314
 2950TIP3    H130265   1.950  -0.018  15.197 -0.3368  1.2550  0.7314
 2950TIP3    H230266   1.972  -0.036  15.346 -0.3712 -0.7544  0.5221
 2951TIP3   OH230267   4.822   5.700   5.315 -0.0702 -0.0148 -0.6677
 2951TIP3    H130268   4.884   5.771   5.301  1.3941 -0.5143  2.5413
 2951TIP3    H230269   4.829   5.646   5.236  2.1550  0.9580 -1.1979
 2952TIP3   OH230270   4.138   2.963   5.440 -0.1368 -0.0831 -0.3504
 2952TIP3    H130271   4.221   2.916   5.448  0.2378  0.6568  0.1522
 2952TIP3    H230272   4.073   2.893   5.428  0.3667 -0.7754  0.7212
 2953TIP3   OH230273   5.482   5.080   4.327 -0.5869 -0.0990 -0.7141
 2953TIP3    H130274   5.577   5.083   4.341 -0.5092 -0.1563 -1.2158
 2953TIP3    H230275   5.470   5.105   4.236 -1.0724  0.0785 -0.6058
 2954TIP3   OH230276   5.284   1.778   0.707  0.5558  0.3208  0.1247
 2954TIP3    H130277   5.278   1.809   0.797 -0.7050 -0.3742  0.2990
 2954TIP3    H230278   5.273   1.857   0.654 -1.6624  0.3841  0.5787
 2955TIP3   OH230279   1.232   0.438  12.321  0.4780 -0.0586 -0.3473
 2955TIP3    H130280   1.255   0.530  12.335 -0.3469  0.0963  0.0459
 2955TIP3    H230281   1.316   0.391  12.327  0.9084  0.6633 -0.5737
 2956TIP3   OH230282   6.698   3.336  16.996  0.0809 -0.1851 -0.6038
 2956TIP3    H130283   6.665   3.425  16.980 -2.2003 -0.8343  0.1127
 2956TIP3    H230284   6.708   3.332  17.092 -2.9942 -1.6481 -0.2487
 2957TIP3   OH230285   0.772   1.005   0.016 -0.0342 -0.2110 -0.4541
 2957TIP3    H130286   0.769   1.050  -0.069 -0.9343  0.5337 -0.0492
 2957TIP3    H230287   0.842   1.050   0.063 -1.0052  0.8732 -0.0112
 2958TIP3   OH230288   4.647   0.679  14.606 -0.6299  0.2874 -0.0122
 2958TIP3    H130289   4.712   0.633  14.552 -0.0578  0.2190  0.7068
 2958TIP3    H230290   4.658   0.771  14.583  1.7235  0.6501  2.0443
 2959TIP3   OH230291   4.509   2.543  11.694  0.1288  0.2546 -0.2309
 2959TIP3    H130292   4.423   2.582  11.681  0.6663  1.3984 -0.6134
 2959TIP3    H230293   4.563   2.615  11.728  1.7931  0.6351 -3.2517
 2960TIP3   OH230294   1.003   0.904  17.179  0.0965 -0.1058  0.6431
 2960TIP3    H130295   0.932   0.845  17.204  0.1940 -0.0133  1.1473
 2960TIP3    H230296   1.052   0.920  17.260  0.3743  0.2598  0.4114
 2961TIP3   OH230297   3.621   4.101  12.025 -0.7419  0.4071 -0.6001
 2961TIP3    H130298   3.571   4.182  12.017 -1.2686  0.2644  0.9705
 2961TIP3    H230299   3.712   4.128  12.014 -1.0663  0.7067 -3.2379
 2962TIP3   OH230300   4.406   4.051  15.550  0.6522 -0.6265 -0.3375
 2962TIP3    H130301   4.333   4.082  15.604  1.3428 -0.7525  0.7055
 2962TIP3    H230302   4.371   4.050  15.461 -0.7696 -1.1335  0.1873
 2963TIP3   OH230303   0.532   4.846   4.516 -0.1575 -0.2285 -0.3713
 2963TIP3    H130304   0.496   4.848   4.427  1.0483 -0.1472 -0.8760
 2963TIP3    H230305   0.491   4.920   4.560 -1.8933 -1.1231 -0.3821
 2964TIP3   OH230306   4.524   0.333  17.282  0.1861  0.4278 -0.3345
 2964TIP3    H130307   4.477   0.261  17.239  1.2522 -1.5908  1.6760
 2964TIP3    H230308   4.460   0.369  17.344 -0.6504  1.9302 -1.9709
 2965TIP3   OH230309   6.334   2.741   4.583 -0.2419  0.2139 -0.3207
 2965TIP3    H130310   6.356   2.713   4.494  0.5961 -1.8615  0.4861
 2965TIP3    H230311   6.269   2.676   4.612  1.3327 -0.6597  1.4256
 2966TIP3   OH230312   3.861   5.679   2.186 -0.2824 -0.1432  0.3968
 2966TIP3    H130313   3.946   5.666   2.145 -0.7950 -0.2496 -0.6760
 2966TIP3    H230314   3.864   5.767   2.222  0.0335  0.1230 -0.2667
 2967TIP3   OH230315   4.097   6.577   1.258 -0.1569 -0.5422 -0.3011
 2967TIP3    H130316   4.179   6.614   1.227  0.2244 -0.2789  0.9483
 2967TIP3    H230317   4.088   6.495   1.210  1.0620 -0.7799 -0.1597
 2968TIP3   OH230318   1.318   2.148  15.607 -0.2520  0.7516  0.1881
 2968TIP3    H130319   1.312   2.208  15.534  0.9630 -1.4106 -1.8285
 2968TIP3    H230320   1.283   2.065  15.573  0.8238 -0.4605  1.8733
 2969TIP3   OH230321   3.718   3.507   0.445  0.2811 -0.3380 -0.2449
 2969TIP3    H130322   3.801   3.506   0.493  0.9274 -1.3668 -1.2975
 2969TIP3    H230323   3.708   3.597   0.415 -0.4237  0.4613  2.2134
 2970TIP3   OH230324   1.379   5.643  12.356  0.3084 -0.1379  0.2661
 2970TIP3    H130325   1.415   5.595  12.430 -0.6173 -0.2778  0.6327
 2970TIP3    H230326   1.299   5.682  12.389 -1.0329 -1.6004 -1.1066
 2971TIP3   OH230327   0.648   1.979  11.067 -0.3685 -0.8040  0.1018
 2971TIP3    H130328   0.604   2.016  10.990 -0.0691 -1.8674 -0.5983
 2971TIP3    H230329   0.577   1.940  11.118 -0.6272  0.2831  0.6208
 2972TIP3   OH230330   1.643   0.826  11.126 -0.2130 -0.4881 -0.1625
 2972TIP3    H130331   1.712   0.810  11.063  2.8638  0.1608  2.7216
 2972TIP3    H230332   1.571   0.768  11.100  1.9148 -2.2414 -2.5606
 2973TIP3   OH230333   1.866   4.153  16.179 -0.0189  0.0825 -0.2594
 2973TIP3    H130334   1.915   4.140  16.098 -0.5698 -0.9318 -0.4384
 2973TIP3    H230335   1.932   4.146  16.248  0.4416  0.8835 -0.6016
 2974TIP3   OH230336   4.756   3.079   1.272  0.2175 -0.6195 -0.8791
 2974TIP3    H130337   4.696   3.096   1.200  2.1526 -0.0794 -2.4616
 2974TIP3    H230338   4.789   3.165   1.296 -0.3488 -0.8043  0.6419
 2975TIP3   OH230339   1.714   2.958   3.837 -0.7132 -0.3055  0.1902
 2975TIP3    H130340   1.717   2.979   3.931  0.3277 -0.8085  0.2909
 2975TIP3    H230341   1.638   3.006   3.804 -1.7751 -0.9892  1.5032
 2976TIP3   OH230342   0.115   2.165  10.990  0.1036  0.7161  0.1634
 2976TIP3    H130343   0.115   2.252  11.029  2.9321  0.0497  2.0147
 2976TIP3    H230344   0.181   2.170  10.921  0.0879  0.1487  0.0987
 2977TIP3   OH230345   0.807   2.578   0.106  0.0928  0.1491  0.7881
 2977TIP3    H130346   0.787   2.659   0.059 -2.4139 -0.4670  0.6507
 2977TIP3    H230347   0.895   2.553   0.076 -0.3127  1.2368 -1.4541
 2978TIP3   OH230348   5.812   2.016   5.611 -0.0651  0.3347 -0.1706
 2978TIP3    H130349   5.850   1.978   5.690 -0.1645 -0.1440 -0.3477
 2978TIP3    H230350   5.884   2.017   5.547  0.1592  1.2051  0.0744
 2979TIP3   OH230351   2.228   3.348   2.810 -0.6162 -0.5633 -0.5251
 2979TIP3    H130352   2.236   3.437   2.845 -2.1185 -0.9011  0.7733
 2979TIP3    H230353   2.291   3.297   2.860 -1.8777 -0.7910  0.9080
 2980TIP3   OH230354   5.839   4.750   4.617  0.3435  0.6012 -0.2265
 2980TIP3    H130355   5.792   4.701   4.684 -2.0736  0.0754 -2.1829
 2980TIP3    H230356   5.919   4.700   4.602 -0.4647 -0.8721  0.2199
 2981TIP3   OH230357   2.803   4.748   4.595  0.2164 -0.1024  0.4559
 2981TIP3    H130358   2.883   4.695   4.601  0.9993  0.8841 -0.7134
 2981TIP3    H230359   2.744   4.710   4.660  0.9854 -1.9664  0.1228
 2982TIP3   OH230360   5.578   6.229   3.657 -0.4431 -0.1188 -0.1194
 2982TIP3    H130361   5.547   6.316   3.683  0.4452  0.2605 -0.3128
 2982TIP3    H230362   5.670   6.227   3.683  0.0896 -0.2567 -1.8687
 2983TIP3   OH230363   2.705   1.379   5.373  0.3682 -0.2947 -0.4999
 2983TIP3    H130364   2.672   1.299   5.333  0.1438 -0.7620  0.5803
 2983TIP3    H230365   2.748   1.350   5.454  1.1849  0.5713 -0.5977
 2984TIP3   OH230366   1.220   1.292  12.387 -0.3119  0.1532 -0.5982
 2984TIP3    H130367   1.298   1.324  12.433  0.1350  0.0693 -1.2934
 2984TIP3    H230368   1.160   1.268  12.458  0.3485  0.0706 -0.0489
 2985TIP3   OH230369   1.769   4.922   1.207 -0.3422 -0.3365 -0.7512
 2985TIP3    H130370   1.717   4.850   1.243 -0.6700  0.4866  0.5073
 2985TIP3    H230371   1.855   4.912   1.248 -0.0159 -0.6999 -1.5077
 2986TIP3   OH230372   1.124   5.419  11.730  0.4823 -0.1198 -0.2774
 2986TIP3    H130373   1.130   5.469  11.648  0.6980  1.5213  0.7050
 2986TIP3    H230374   1.196   5.452  11.783  1.1144 -2.0511  0.1448
 2987TIP3   OH230375   6.363   0.495   4.237  0.2648  0.2163 -0.0185
 2987TIP3    H130376   6.292   0.558   4.246 -0.7390 -0.3016 -3.0864
 2987TIP3    H230377   6.346   0.430   4.305 -1.4531  0.8045  0.1588
 2988TIP3   OH230378   3.955   0.935  14.392 -0.7027  0.0463 -0.4949
 2988TIP3    H130379   3.962   0.844  14.422  2.0467  0.3188 -0.0214
 2988TIP3    H230380   4.008   0.938  14.312  0.7008  1.5352  0.4200
 2989TIP3   OH230381   4.788   4.819  12.384  0.8188  0.2012 -0.6761
 2989TIP3    H130382   4.872   4.833  12.428  0.8475  2.0390 -1.2542
 2989TIP3    H230383   4.745   4.751  12.436  1.9902  0.3811  0.5813
 2990TIP3   OH230384   0.965   6.337  16.202  0.0875 -0.5230  0.1442
 2990TIP3    H130385   0.982   6.422  16.243 -0.5821 -0.6159  0.6511
 2990TIP3    H230386   0.991   6.273  16.268 -1.0834 -0.6747  0.4826
 2991TIP3   OH230387   3.469   0.275   1.590 -0.1842  0.4633 -0.0490
 2991TIP3    H130388   3.477   0.312   1.501  0.2176 -1.0647 -0.6825
 2991TIP3    H230389   3.535   0.323   1.641  0.4323  0.5364 -0.8814
 2992TIP3   OH230390   2.075   4.896  15.375 -0.2628 -0.3645  0.0771
 2992TIP3    H130391   2.026   4.941  15.443  0.4268 -1.4517  1.3261
 2992TIP3    H230392   2.018   4.826  15.346 -0.8877  0.5759 -1.0949
 2993TIP3   OH230393   4.199   3.946   6.379 -0.0689 -0.4979  0.2218
 2993TIP3    H130394   4.228   3.884   6.312 -1.9619 -0.6738 -0.5114
 2993TIP3    H230395   4.240   4.029   6.354  0.6544 -0.9414 -0.1167
 2994TIP3   OH230396   5.087   5.476   6.306  0.3128  0.3521  0.1497
 2994TIP3    H130397   5.113   5.396   6.351 -1.7244  0.4928  1.7271
 2994TIP3    H230398   5.152   5.486   6.236  1.4175 -1.9082  0.7397
 2995TIP3   OH230399   0.070   0.185   1.023 -0.1209  0.0383  0.4584
 2995TIP3    H130400   0.034   0.274   1.018 -0.6892 -0.0610  2.2001
 2995TIP3    H230401   0.162   0.198   1.048 -0.1381  0.1491  0.4642
 2996TIP3   OH230402   5.051   4.020  17.372 -0.2427  0.0765  0.0278
 2996TIP3    H130403   5.023   4.075  17.298 -1.5436 -1.2371 -0.5041
 2996TIP3    H230404   5.139   4.051  17.393 -0.6209  1.8227 -0.7596
 2997TIP3   OH230405   2.666   0.619   5.555 -0.0729 -0.0066 -0.4479
 2997TIP3    H130406   2.712   0.536   5.539  0.0822  0.5221 -3.2911
 2997TIP3    H230407   2.587   0.593   5.601 -0.0506 -1.7673 -1.3005
 2998TIP3   OH230408   4.139   4.908   0.634 -0.2738 -0.3105  0.1983
 2998TIP3    H130409   4.160   4.986   0.685  1.0334 -1.1002  0.9056
 2998TIP3    H230410   4.044   4.913   0.621 -0.1145  1.7731 -0.4345
 2999TIP3   OH230411   0.397   0.769   1.328  0.8714  0.2301  0.2506
 2999TIP3    H130412   0.417   0.835   1.395  2.7402 -0.8785  0.8512
 2999TIP3    H230413   0.366   0.820   1.253  0.7898  1.6651  1.2143
 3000TIP3   OH230414   3.665   3.179   0.121  0.1614 -0.1307 -0.2503
 3000TIP3    H130415   3.600   3.113   0.099 -0.3675  0.7810 -1.4798
 3000TIP3    H230416   3.749   3.138   0.100 -0.1022 -0.7570 -0.0889
 3001TIP3   OH230417   2.778   0.002  14.790 -0.2361 -0.3963  0.3574
 3001TIP3    H130418   2.767  -0.001  14.885  0.8849 -1.1397  0.4814
 3001TIP3    H230419   2.802   0.092  14.771 -3.5368  0.6030  0.3738
 3002TIP3   OH230420   2.870   0.873  11.293  0.2277 -0.4165 -0.2771
 3002TIP3    H130421   2.905   0.796  11.248 -0.8434 -0.5151 -0.9755
 3002TIP3    H230422   2.900   0.948  11.241  0.7470 -0.3900  0.0500
 3003TIP3   OH230423   1.308   2.430   6.065 -0.1214  0.0903  0.6039
 3003TIP3    H130424   1.357   2.512   6.063  0.0782 -0.0359 -1.2237
 3003TIP3    H230425   1.243   2.443   6.135 -0.6365  2.1361 -0.1840
 3004TIP3   OH230426   6.147   3.040  11.410 -0.3198 -0.4474 -0.0143
 3004TIP3    H130427   6.160   3.104  11.339  0.1050 -1.0046 -0.4450
 3004TIP3    H230428   6.179   2.958  11.374  0.1818 -0.6764  0.9479
 3005TIP3   OH230429   5.013   0.557  13.575  0.1425  0.5802 -0.3651
 3005TIP3    H130430   5.103   0.577  13.601 -0.4748  1.7619  0.9885
 3005TIP3    H230431   4.965   0.548  13.658 -0.8412 -0.8821 -1.0384
 3006TIP3   OH230432   2.228   0.454   2.211 -0.0731 -0.0854  0.0566
 3006TIP3    H130433   2.177   0.378   2.239 -0.4003  0.0389 -0.1993
 3006TIP3    H230434   2.244   0.440   2.118 -0.2381  0.2204 -0.0176
 3007TIP3   OH230435   2.239   2.903  16.518 -0.0037  0.3163 -0.5522
 3007TIP3    H130436   2.179   2.906  16.443 -1.4362  2.3092  0.5614
 3007TIP3    H230437   2.187   2.864  16.589 -0.3543  2.7410  0.6409
 3008TIP3   OH230438   1.394   1.747   3.982 -0.3734 -0.3087 -0.3518
 3008TIP3    H130439   1.318   1.778   4.032 -2.2949 -1.6272 -2.2578
 3008TIP3    H230440   1.388   1.793   3.898  1.0949 -0.2607 -0.4556
 3009TIP3   OH230441   1.818   1.722  16.530  0.7909  0.4782 -0.0125
 3009TIP3    H130442   1.776   1.802  16.561  0.8266  0.6509 -0.4094
 3009TIP3    H230443   1.828   1.735  16.436  1.1684  0.1761 -0.0147
 3010TIP3   OH230444   3.160   4.420   1.613  0.2822  0.1443  0.3304
 3010TIP3    H130445   3.172   4.513   1.599  0.2063 -0.0525 -1.1566
 3010TIP3    H230446   3.184   4.406   1.705 -0.7447  1.7838  0.8822
 3011TIP3   OH230447   0.246   2.857  14.862  0.1747  0.2905 -0.2656
 3011TIP3    H130448   0.193   2.931  14.890  0.1406  0.7711 -1.5481
 3011TIP3    H230449   0.189   2.781  14.875  0.5771  0.3349  2.0382
 3012TIP3   OH230450   5.116   1.576  11.435 -0.7525 -0.0893 -0.0782
 3012TIP3    H130451   5.065   1.622  11.367 -3.1351 -1.5192  0.6353
 3012TIP3    H230452   5.051   1.524  11.482  1.3622 -1.7032  1.1894
 3013TIP3   OH230453   3.694   5.778   0.163  0.8122 -0.1790 -0.1209
 3013TIP3    H130454   3.757   5.824   0.218  0.2347  0.1053  0.3067
 3013TIP3    H230455   3.746   5.748   0.089  1.3333  0.5584 -0.0688
 3014TIP3   OH230456   2.642   4.021   5.769  0.5833 -0.0402 -0.1422
 3014TIP3    H130457   2.698   3.994   5.842  0.7142  0.5463 -0.0143
 3014TIP3    H230458   2.582   4.085   5.808  1.6028  1.3918 -0.8325
 3015TIP3   OH230459   3.117   1.317   6.123 -0.1402  0.1839  0.1266
 3015TIP3    H130460   3.076   1.403   6.121  1.2172  0.8580  0.6988
 3015TIP3    H230461   3.211   1.334   6.114  0.3344 -1.0805  2.1788
 3016TIP3   OH230462   0.198   6.297   5.941  0.2963  0.7054  0.1217
 3016TIP3    H130463   0.178   6.205   5.958  0.1053  0.4550 -1.3174
 3016TIP3    H230464   0.281   6.294   5.892 -1.2835  0.9984 -2.8116
 3017TIP3   OH230465   1.730   0.401  16.443  0.4339  0.0887  0.3023
 3017TIP3    H130466   1.798   0.389  16.508  0.1862  0.9779  0.7317
 3017TIP3    H230467   1.726   0.495  16.428 -0.2560 -0.0068 -0.1935
 3018TIP3   OH230468   5.999   4.423  16.931 -0.0244 -0.1235 -0.3885
 3018TIP3    H130469   6.021   4.389  17.018  0.7411 -0.7505 -0.8209
 3018TIP3    H230470   6.060   4.495  16.917 -1.2311  1.0993  0.2585
 3019TIP3   OH230471   5.434   3.491  12.672  0.3153 -0.6081 -0.4390
 3019TIP3    H130472   5.481   3.471  12.753  1.4754 -0.1887 -0.9860
 3019TIP3    H230473   5.422   3.586  12.673 -1.3933 -0.7877  0.1260
 3020TIP3   OH230474   6.080   6.661  14.498 -0.8110 -0.1390  0.4669
 3020TIP3    H130475   6.151   6.699  14.446 -0.9788  0.2313  0.5093
 3020TIP3    H230476   6.034   6.736  14.535 -0.1018 -0.3935  1.9764
 3021TIP3   OH230477   0.706   4.839  12.904  0.3814  0.2888 -0.1753
 3021TIP3    H130478   0.713   4.818  12.997  0.1522  2.6797  0.4638
 3021TIP3    H230479   0.616   4.816  12.881 -0.1106  1.2831  0.6779
 3022TIP3   OH230480   2.627   6.475  16.903  0.2705  0.0302 -0.1061
 3022TIP3    H130481   2.618   6.403  16.841  0.1182  0.9245 -1.1519
 3022TIP3    H230482   2.623   6.433  16.989  1.6867 -1.3729 -0.6846
 3023TIP3   OH230483   2.499   6.386   2.216 -0.2111 -0.3007  0.4857
 3023TIP3    H130484   2.466   6.420   2.133  1.8557 -0.2914 -0.3920
 3023TIP3    H230485   2.432   6.409   2.280 -3.0205 -2.3831 -1.4994
 3024TIP3   OH230486   0.721   6.063   5.403 -0.3163  0.0899  0.4923
 3024TIP3    H130487   0.662   6.069   5.479 -0.3076 -0.3472  0.5362
 3024TIP3    H230488   0.797   6.015   5.436  0.0068  0.5361  0.3988
 3025TIP3   OH230489   6.433   5.521  13.481  0.2477 -0.1009  0.6435
 3025TIP3    H130490   6.350   5.510  13.435  0.2298 -2.2882  1.1192
 3025TIP3    H230491   6.500   5.511  13.413  0.1828  1.9877  0.1981
 3026TIP3   OH230492   3.936   6.573  14.939 -0.3142 -0.3323  0.0749
 3026TIP3    H130493   3.975   6.519  14.871  0.3010 -2.4781  2.0401
 3026TIP3    H230494   3.934   6.518  15.017 -3.8230  0.9355  1.0910
 3027TIP3   OH230495   1.828   4.446   5.315  0.4891  0.1601 -0.2226
 3027TIP3    H130496   1.778   4.450   5.234 -0.5971 -0.4200  0.4061
 3027TIP3    H230497   1.916   4.475   5.290  0.1648  0.0151 -1.5939
 3028TIP3   OH230498   1.210   5.879   2.309 -0.2483 -0.6319  0.2393
 3028TIP3    H130499   1.262   5.933   2.249 -2.6952  0.6117 -0.9087
 3028TIP3    H230500   1.275   5.836   2.364  1.9895  0.6346 -1.2287
 3029TIP3   OH230501   6.384   5.777  12.033  0.2603  0.3063  0.0558
 3029TIP3    H130502   6.319   5.804  12.098 -0.6868 -0.0114 -0.7477
 3029TIP3    H230503   6.460   5.832  12.052 -0.2450  0.7100  0.9854
 3030TIP3   OH230504   5.149   1.884   6.264 -0.3539  0.2917  0.2249
 3030TIP3    H130505   5.182   1.823   6.330 -1.1922  0.2737  0.6319
 3030TIP3    H230506   5.130   1.964   6.312  1.1864  1.0639 -0.3868
 3031TIP3   OH230507   5.711   4.781  14.488  0.3994  0.7309 -0.2508
 3031TIP3    H130508   5.725   4.787  14.394 -2.5600 -0.4887 -0.8671
 3031TIP3    H230509   5.717   4.688  14.508 -1.9796  0.6025  0.1487
 3032TIP3   OH230510   2.966   5.497  13.458 -0.5771 -0.1406 -0.1887
 3032TIP3    H130511   3.046   5.532  13.498 -0.0478 -1.0802 -0.3892
 3032TIP3    H230512   2.951   5.414  13.504 -1.3050 -0.0872 -0.3195
 3033TIP3   OH230513   5.669   2.130  12.250 -0.0694 -0.1171  0.9027
 3033TIP3    H130514   5.758   2.141  12.285  0.2753 -0.2158  0.0802
 3033TIP3    H230515   5.617   2.101  12.325  0.8473 -1.2028  1.1550
 3034TIP3   OH230516   2.294   2.500  14.725  0.1528 -0.0343 -0.0657
 3034TIP3    H130517   2.282   2.591  14.751  1.1414  0.5460 -1.5496
 3034TIP3    H230518   2.272   2.499  14.632 -1.2397 -1.6222  0.2315
 3035TIP3   OH230519   4.431   4.083  17.212 -0.9046  0.6666  0.4998
 3035TIP3    H130520   4.506   4.024  17.207  0.0416  1.8955 -0.2770
 3035TIP3    H230521   4.457   4.150  17.275 -1.3632  1.0762  0.2589
 3036TIP3   OH230522   1.528   4.712   1.754 -0.0449  0.3309  0.1847
 3036TIP3    H130523   1.437   4.733   1.779 -0.3262  0.6455 -1.0219
 3036TIP3    H230524   1.581   4.776   1.801 -0.3245 -0.5131  1.7444
 3037TIP3   OH230525   4.880   6.496   4.816  0.1774  0.3163 -0.2034
 3037TIP3    H130526   4.899   6.427   4.880  0.6624  1.2199  0.6558
 3037TIP3    H230527   4.785   6.510   4.824  0.0066 -0.4890 -0.6551
 3038TIP3   OH230528   2.704   2.244  11.775 -0.2612 -0.0386 -0.4232
 3038TIP3    H130529   2.768   2.184  11.815  0.4733  0.8717 -0.1961
 3038TIP3    H230530   2.619   2.204  11.793  0.1086 -0.1067  1.2831
 3039TIP3   OH230531   1.764   2.392   3.817 -0.2719  0.1777 -0.4673
 3039TIP3    H130532   1.742   2.367   3.907  1.4118 -0.6846 -0.2474
 3039TIP3    H230533   1.690   2.445   3.788  0.1475  2.5217  2.2687
 3040TIP3   OH230534   5.225   5.305  16.328  0.1418  0.1551 -0.1666
 3040TIP3    H130535   5.237   5.239  16.397  0.1063  0.2774 -0.0438
 3040TIP3    H230536   5.186   5.379  16.373  0.0213  0.1968 -0.3402
 3041TIP3   OH230537   6.199   0.602   6.941 -0.8707  0.0292  0.1603
 3041TIP3    H130538   6.282   0.620   6.984  0.1755 -1.7713 -0.9786
 3041TIP3    H230539   6.147   0.557   7.007  1.3639 -4.3333 -0.6716
 3042TIP3   OH230540   4.840   1.974   5.754 -0.0266  0.3309  0.1150
 3042TIP3    H130541   4.858   2.055   5.708 -0.6850  0.8801  0.7874
 3042TIP3    H230542   4.834   1.999   5.846  0.5160 -0.6099  0.4248
 3043TIP3   OH230543   1.801   1.294  14.262  0.0929 -0.0304 -0.1108
 3043TIP3    H130544   1.839   1.206  14.270 -2.0214 -0.9583  0.4337
 3043TIP3    H230545   1.736   1.298  14.333  0.0411  1.9349 -0.2246
 3044TIP3   OH230546   4.617   2.000  15.260 -0.0110  0.3518  0.4507
 3044TIP3    H130547   4.553   2.051  15.309  0.2005 -0.1422  1.2682
 3044TIP3    H230548   4.573   1.977  15.179  0.1961  2.5915 -0.3634
 3045TIP3   OH230549   4.679   0.286  15.407 -0.8192 -0.4662 -0.0081
 3045TIP3    H130550   4.741   0.309  15.338  0.2668 -1.5298  0.5711
 3045TIP3    H230551   4.623   0.219  15.368 -2.3923  1.2678 -0.8928
 3046TIP3   OH230552   3.945   2.573  15.226 -0.4422 -0.4144 -0.1429
 3046TIP3    H130553   3.881   2.508  15.198  0.1050 -1.1525  0.2883
 3046TIP3    H230554   3.893   2.640  15.271 -1.1016 -0.1450 -1.2541
 3047TIP3   OH230555   5.820   0.464   2.535 -0.0780 -0.2117  0.4252
 3047TIP3    H130556   5.879   0.505   2.599  0.0658  1.1509 -0.5330
 3047TIP3    H230557   5.852   0.375   2.526  1.3278  0.2587  0.5548
 3048TIP3   OH230558   0.068   4.966   4.276  0.4287 -0.2839  0.5108
 3048TIP3    H130559   0.104   5.025   4.210 -3.2981  0.0859 -1.4329
 3048TIP3    H230560   0.045   5.024   4.349  1.0430 -0.0939  0.5601
 3049TIP3   OH230561   5.703   5.097  14.367 -0.2124 -0.3004 -0.2291
 3049TIP3    H130562   5.610   5.075  14.366 -0.3093 -0.2459  2.0671
 3049TIP3    H230563   5.711   5.168  14.303 -1.6167 -0.7116 -0.9029
 3050TIP3   OH230564   4.871   6.517   5.555 -0.0791  0.1736 -0.0822
 3050TIP3    H130565   4.959   6.479   5.555 -0.3239 -0.4254 -1.1721
 3050TIP3    H230566   4.880   6.598   5.605  1.0691  0.0729 -0.1007
 3051TIP3   OH230567   1.058   0.405   4.265 -0.2288  0.3524 -0.0544
 3051TIP3    H130568   1.134   0.449   4.303 -0.6599  0.3524  0.8149
 3051TIP3    H230569   1.066   0.422   4.171  0.1020  1.5342  0.1709
 3052TIP3   OH230570   5.333   0.622  16.191 -0.3110  0.3089 -0.2511
 3052TIP3    H130571   5.311   0.566  16.117  0.0428 -1.8269  1.1826
 3052TIP3    H230572   5.256   0.618  16.248 -0.3206  1.3974 -0.1575
 3053TIP3   OH230573   6.355   5.373   4.158  0.2959 -0.0221  0.1523
 3053TIP3    H130574   6.314   5.450   4.197  1.1774  0.8062 -0.4900
 3053TIP3    H230575   6.411   5.409   4.089  1.2245 -1.1916  0.2669
 3054TIP3   OH230576   3.208   2.574   3.739 -0.1802 -0.4810 -0.4086
 3054TIP3    H130577   3.196   2.622   3.657 -0.2393 -0.5991 -0.4697
 3054TIP3    H230578   3.232   2.486   3.711  0.4296 -0.3582 -0.2957
 3055TIP3   OH230579   1.652   2.308   6.398 -0.2938 -0.0307 -0.2392
 3055TIP3    H130580   1.728   2.270   6.353 -0.3257  1.3828 -1.5642
 3055TIP3    H230581   1.687   2.385   6.442 -0.1673 -1.6056  2.6666
 3056TIP3   OH230582   5.691   3.930  12.306  0.2107  0.3650  0.1493
 3056TIP3    H130583   5.662   3.895  12.390 -0.3749  1.5069  0.4574
 3056TIP3    H230584   5.752   3.865  12.271 -1.0663 -1.0682  0.5211
 3057TIP3   OH230585   0.249   0.678  14.053 -0.0547  0.0615  1.1319
 3057TIP3    H130586   0.181   0.731  14.093 -0.1276  0.4085  0.5620
 3057TIP3    H230587   0.225   0.676  13.960  1.2786  1.0514  0.7476
 3058TIP3   OH230588   5.254   3.714  12.347  0.3538 -0.1955  1.2716
 3058TIP3    H130589   5.159   3.704  12.347  0.3230  0.0839  1.1352
 3058TIP3    H230590   5.279   3.716  12.255  0.6926 -2.0228  1.2876
 3059TIP3   OH230591   4.784   2.856   4.991 -0.2000 -0.0131  0.6210
 3059TIP3    H130592   4.710   2.828   4.937 -0.6092 -2.2465  2.1735
 3059TIP3    H230593   4.854   2.874   4.929 -1.3532 -0.1222 -0.7691
 3060TIP3   OH230594   5.470   2.933  12.369 -0.2879  0.1241 -0.0023
 3060TIP3    H130595   5.487   2.997  12.300  0.9107 -0.2741 -0.0895
 3060TIP3    H230596   5.541   2.945  12.432 -1.6189  0.8087  1.4464
 3061TIP3   OH230597   5.257   2.714   1.904  0.1119  0.0745  0.0994
 3061TIP3    H130598   5.228   2.664   1.980 -2.1577 -1.3572 -1.5708
 3061TIP3    H230599   5.348   2.689   1.891 -0.4459 -2.2917  0.3737
 3062TIP3   OH230600   2.317   5.542  13.432 -0.3192 -0.1567 -0.3537
 3062TIP3    H130601   2.295   5.537  13.339  0.6600  1.5758 -0.7167
 3062TIP3    H230602   2.252   5.603  13.468 -0.0007  0.0581 -0.1392
 3063TIP3   OH230603   3.432   6.657   4.259 -0.2061  0.0607 -0.1038
 3063TIP3    H130604   3.464   6.739   4.299  0.5576 -1.1070  1.8508
 3063TIP3    H230605   3.509   6.621   4.214 -0.4923  0.3097 -0.8031
 3064TIP3   OH230606   2.016   5.136  15.198 -0.0218 -0.0604  0.5791
 3064TIP3    H130607   2.083   5.170  15.257 -0.0568  1.3129 -0.1342
 3064TIP3    H230608   2.045   5.048  15.176 -0.5600 -1.0946  3.5015
 3065TIP3   OH230609   5.380   5.382  14.977 -0.3831 -0.5444  0.0330
 3065TIP3    H130610   5.319   5.430  14.921  0.5771 -0.2474 -0.7866
 3065TIP3    H230611   5.429   5.326  14.917  1.4720  0.6308  0.3759
 3066TIP3   OH230612   2.234   2.648  14.277  0.5009  0.2062 -0.6230
 3066TIP3    H130613   2.158   2.621  14.227  0.2976  1.9840 -1.3314
 3066TIP3    H230614   2.215   2.737  14.305  1.0597 -0.3332  1.7595
 3067TIP3   OH230615   1.416   2.956   6.057 -0.6494 -0.0690  0.3225
 3067TIP3    H130616   1.430   2.932   6.149  1.2475  0.1871  0.1443
 3067TIP3    H230617   1.465   3.038   6.046 -0.1112 -0.5550 -1.1283
 3068TIP3   OH230618   4.440   2.026  13.564  0.0694  0.3818 -0.0065
 3068TIP3    H130619   4.527   1.998  13.592 -0.3701  0.4232  1.5000
 3068TIP3    H230620   4.381   1.987  13.628 -1.0029  0.5845 -0.8440
 3069TIP3   OH230621   6.372   6.269   2.823 -0.5125 -0.3334 -0.0575
 3069TIP3    H130622   6.467   6.257   2.815 -0.4749  0.5322 -0.9914
 3069TIP3    H230623   6.362   6.354   2.865 -0.8705 -1.4769  2.3850
 3070TIP3   OH230624   1.047   0.223   1.454  0.3029  0.4767  0.1236
 3070TIP3    H130625   1.039   0.198   1.362  1.8808 -1.8190  0.5233
 3070TIP3    H230626   1.141   0.228   1.469  0.0801  0.5024  1.6949
 3071TIP3   OH230627   5.375   2.716   2.670 -0.3209  0.5297  0.0807
 3071TIP3    H130628   5.398   2.743   2.581 -0.4189 -1.9650 -0.7913
 3071TIP3    H230629   5.447   2.658   2.696 -1.8923 -1.4359  0.2654
 3072TIP3   OH230630   6.084   5.983   2.714  0.6291  0.2219 -0.6172
 3072TIP3    H130631   6.151   6.036   2.755 -0.5197  1.0434  0.2632
 3072TIP3    H230632   6.102   5.989   2.620  1.3428  1.0164 -0.4317
 3073TIP3   OH230633   1.887   0.452  15.805  0.0248 -0.1445  0.4033
 3073TIP3    H130634   1.888   0.527  15.865  0.9301 -0.3164  0.6235
 3073TIP3    H230635   1.856   0.488  15.722 -0.6821  0.2218  0.8174
 3074TIP3   OH230636   5.451   5.578   1.723  0.7823 -0.3384  0.2351
 3074TIP3    H130637   5.479   5.518   1.792 -1.4043  0.4065  1.8652
 3074TIP3    H230638   5.482   5.664   1.752  0.4973 -0.1209 -0.0965
 3075TIP3   OH230639   4.778   5.726   3.815 -0.2739  0.3222  0.3832
 3075TIP3    H130640   4.754   5.811   3.779 -0.7977 -0.6695 -1.8016
 3075TIP3    H230641   4.868   5.736   3.845  0.5438  1.0390 -2.0943
 3076TIP3   OH230642   6.169   1.537   5.371 -0.2608 -0.2241  0.2694
 3076TIP3    H130643   6.211   1.474   5.313 -0.8236 -0.2551 -0.1139
 3076TIP3    H230644   6.079   1.505   5.381 -0.8581  1.0392 -0.7476
 3077TIP3   OH230645   0.333   4.420  16.621  0.5366 -0.4466 -0.5110
 3077TIP3    H130646   0.426   4.406  16.605  0.6614 -0.7424  0.4348
 3077TIP3    H230647   0.305   4.478  16.549  1.2386 -1.0820 -1.3150
 3078TIP3   OH230648   4.819   5.706  13.399 -0.3800  0.8512  0.5294
 3078TIP3    H130649   4.747   5.675  13.454 -0.4061 -1.7818 -0.8223
 3078TIP3    H230650   4.887   5.640  13.409  0.0848  0.9235 -1.5997
 3079TIP3   OH230651   5.649   0.445   6.173 -0.5189  0.3412  0.0509
 3079TIP3    H130652   5.684   0.393   6.101 -0.6473  2.6431 -1.7977
 3079TIP3    H230653   5.703   0.421   6.248  1.4174 -0.2244 -1.4346
 3080TIP3   OH230654   1.862   4.495   0.595 -0.0778 -0.2958 -0.4585
 3080TIP3    H130655   1.854   4.423   0.657 -0.3098 -1.2318 -1.5419
 3080TIP3    H230656   1.781   4.544   0.604 -0.1094 -0.4232 -0.0269
 3081TIP3   OH230657   4.200   1.809  13.984 -0.2289  0.1253  0.1018
 3081TIP3    H130658   4.290   1.805  14.015 -0.8189  2.6336  2.4717
 3081TIP3    H230659   4.156   1.737  14.028  0.2879 -0.2412  0.0325
 3082TIP3   OH230660   3.031   1.896  15.213 -0.2215  0.0062  0.1753
 3082TIP3    H130661   2.963   1.841  15.251  0.1129 -0.6330 -0.1290
 3082TIP3    H230662   2.984   1.955  15.154 -0.7408  0.9831  1.5168
 3083TIP3   OH230663   5.240   2.393   2.548  0.1550  0.1019 -0.5747
 3083TIP3    H130664   5.240   2.450   2.625 -1.6005  0.0393 -0.4854
 3083TIP3    H230665   5.305   2.326   2.568  0.0365  0.3318  0.6660
 3084TIP3   OH230666   0.154   4.183  15.941  0.0328  0.1756  0.3415
 3084TIP3    H130667   0.188   4.222  16.021 -1.3892  1.8475  0.1919
 3084TIP3    H230668   0.224   4.125  15.911  1.4315  1.0856  1.6854
 3085TIP3   OH230669   5.359   1.402  11.639  0.1958 -0.1933 -0.1093
 3085TIP3    H130670   5.430   1.457  11.604 -0.9274  0.4876 -1.4048
 3085TIP3    H230671   5.327   1.450  11.716 -0.1257  0.4895 -0.6587
 3086TIP3   OH230672   0.858   4.215  11.114  0.2154 -0.2491 -0.2134
 3086TIP3    H130673   0.888   4.142  11.168  1.3558  0.4030  0.0895
 3086TIP3    H230674   0.939   4.257  11.084 -0.3274  2.1508  1.3528
 3087TIP3   OH230675   6.228   2.244  14.148  0.0263  0.1603  0.0444
 3087TIP3    H130676   6.150   2.281  14.106 -0.1327  0.5083  0.6214
 3087TIP3    H230677   6.282   2.212  14.076 -0.6889 -0.1542 -0.3554
 3088TIP3   OH230678   4.034   4.362  15.614  0.4754  0.0415 -0.1739
 3088TIP3    H130679   3.989   4.392  15.535  0.6738  1.1902  0.1292
 3088TIP3    H230680   4.110   4.419  15.622 -1.0744  2.0102  2.4112
 3089TIP3   OH230681   5.262   6.499   6.103 -0.6983  0.2239  0.5392
 3089TIP3    H130682   5.253   6.404   6.112 -0.9609  0.3372  1.6196
 3089TIP3    H230683   5.253   6.515   6.009 -1.8650 -0.7096  0.4578
 3090TIP3   OH230684   0.266   6.356   1.767  0.0517  0.6106  0.2139
 3090TIP3    H130685   0.325   6.390   1.699  0.3217  0.3565  0.3215
 3090TIP3    H230686   0.264   6.262   1.753  0.3855  0.5178  0.7841
 3091TIP3   OH230687   3.236   6.480   6.081 -0.0054 -0.0785  0.3339
 3091TIP3    H130688   3.321   6.437   6.093  0.2417 -0.2326 -1.6768
 3091TIP3    H230689   3.250   6.570   6.111  1.6207  0.5828 -2.0699
 3092TIP3   OH230690   6.587   2.132  16.527 -0.2119  0.6110  0.4744
 3092TIP3    H130691   6.659   2.189  16.501 -0.9624  0.7686 -1.4500
 3092TIP3    H230692   6.548   2.103  16.444 -0.3379 -2.1151  1.4009
 3093TIP3   OH230693   1.721   6.603   3.885  0.1058 -0.7970  0.4915
 3093TIP3    H130694   1.777   6.667   3.841 -0.4736  0.7403  1.8525
 3093TIP3    H230695   1.706   6.535   3.820 -0.7655  1.3627 -1.7472
 3094TIP3   OH230696   5.805   3.038   5.546  0.0047 -0.4683 -0.4310
 3094TIP3    H130697   5.829   3.047   5.454 -3.3615 -1.4286 -1.5773
 3094TIP3    H230698   5.824   2.947   5.568 -0.5037 -0.6273 -0.6407
 3095TIP3   OH230699   2.504   5.392   3.844  0.4564  0.9128 -0.4318
 3095TIP3    H130700   2.411   5.372   3.835  0.3550  1.7881 -1.6925
 3095TIP3    H230701   2.530   5.421   3.756  1.2465  3.3372  0.5192
 3096TIP3   OH230702   2.924   0.497  11.628  0.0807  0.0718  0.5735
 3096TIP3    H130703   2.897   0.528  11.714 -1.0780  1.4563 -0.2548
 3096TIP3    H230704   2.846   0.506  11.573  0.7011 -1.0752 -0.5708
 3097TIP3   OH230705   6.684   5.754   2.476 -0.8987  0.0773  0.6728
 3097TIP3    H130706   6.654   5.777   2.564  0.1282 -0.4694  1.1915
 3097TIP3    H230707   6.745   5.681   2.490 -0.7013 -0.0016 -0.4889
 3098TIP3   OH230708   2.557   4.876  17.148 -0.3496 -0.4169  0.4390
 3098TIP3    H130709   2.470   4.859  17.111 -1.3101  0.9113  1.8994
 3098TIP3    H230710   2.571   4.805  17.211 -1.4651  0.5866  1.8836
 3099TIP3   OH230711   2.151   2.053  13.592  0.1452  0.1223  0.3600
 3099TIP3    H130712   2.138   1.958  13.583  1.1002 -0.2617  2.4951
 3099TIP3    H230713   2.064   2.087  13.612  0.0260 -0.5143  0.9811
 3100TIP3   OH230714   3.809   2.818   2.801 -0.2972  0.1833  0.2737
 3100TIP3    H130715   3.804   2.913   2.811  0.3448  0.3680 -0.9367
 3100TIP3    H230716   3.798   2.783   2.889  1.1475  1.4528  1.0026
 3101TIP3   OH230717   4.679   4.978  14.886  0.4492 -0.2822  0.1474
 3101TIP3    H130718   4.626   5.030  14.827  1.9832 -0.3668 -1.3742
 3101TIP3    H230719   4.628   4.898  14.901 -1.5903  1.2541  1.9423
 3102TIP3   OH230720   4.017   1.968  13.871  0.0477 -0.4037 -0.5200
 3102TIP3    H130721   4.089   2.023  13.840  0.7250 -0.1917  1.3400
 3102TIP3    H230722   4.060   1.893  13.912 -0.8444 -1.4082 -1.3618
 3103TIP3   OH230723   6.583   4.887   0.938  0.3135  0.4169 -0.2834
 3103TIP3    H130724   6.644   4.851   0.874 -1.5676 -1.1850 -1.2914
 3103TIP3    H230725   6.515   4.929   0.884  0.0450  1.3946  0.7719
 3104TIP3   OH230726   1.361   0.674  12.098  0.1801 -0.6114  0.0366
 3104TIP3    H130727   1.444   0.680  12.050 -0.7283 -0.2708 -1.5695
 3104TIP3    H230728   1.333   0.583  12.087  1.5191 -1.4526  2.7472
 3105TIP3   OH230729   2.783   2.403   2.020  0.1858  0.4241  0.0343
 3105TIP3    H130730   2.831   2.380   1.940 -1.7043 -1.5337 -0.6374
 3105TIP3    H230731   2.830   2.359   2.090 -1.0326 -2.3098 -0.7362
 3106TIP3   OH230732   0.089   4.799  13.399 -0.3313 -0.8982 -0.0941
 3106TIP3    H130733   0.144   4.774  13.325  0.7868  1.9895 -0.3595
 3106TIP3    H230734   0.149   4.808  13.473 -0.3520  1.9859 -0.3088
 3107TIP3   OH230735   4.897   0.991  13.173 -0.1728  0.0232  0.5637
 3107TIP3    H130736   4.968   0.957  13.228 -1.1137  0.3090  2.0212
 3107TIP3    H230737   4.941   1.038  13.102  1.1073 -1.7090  0.1594
 3108TIP3   OH230738   3.359   0.647   5.636 -0.4633 -0.2065  0.1530
 3108TIP3    H130739   3.294   0.712   5.609  1.3842  1.4582 -0.4907
 3108TIP3    H230740   3.386   0.675   5.724 -0.0868 -0.4468  0.1160
 3109TIP3   OH230741   4.180   0.595   3.040  0.3541 -0.3308 -0.2083
 3109TIP3    H130742   4.236   0.523   3.012  0.7396  0.3789 -1.2949
 3109TIP3    H230743   4.221   0.673   3.004 -0.0894  0.4411  0.9087
 3110TIP3   OH230744   4.963   5.007   4.088 -0.6815  0.5248 -0.2893
 3110TIP3    H130745   4.881   5.003   4.138 -0.5967 -1.3859 -0.2188
 3110TIP3    H230746   5.025   5.050   4.146 -0.7481 -1.1186  1.0902
 3111TIP3   OH230747   4.573   1.451  12.340 -0.4061  0.2878 -0.1178
 3111TIP3    H130748   4.574   1.533  12.290  0.8034  0.3761  0.0231
 3111TIP3    H230749   4.655   1.452  12.390 -1.3356 -0.0234  1.5063
 3112TIP3   OH230750   6.414   5.891   2.838  0.3606 -0.3583 -0.2445
 3112TIP3    H130751   6.358   5.910   2.763 -1.3823 -0.8643  0.8676
 3112TIP3    H230752   6.464   5.972   2.851 -1.2889  0.7161 -0.3020
 3113TIP3   OH230753   0.700   5.096  12.835  0.1854  0.2862  0.1621
 3113TIP3    H130754   0.638   5.120  12.766  1.9396 -0.4275 -1.7618
 3113TIP3    H230755   0.682   5.003  12.852 -0.4209  0.5275  0.8926
 3114TIP3   OH230756   3.648   4.769   3.589 -0.7403 -0.5645  0.2846
 3114TIP3    H130757   3.553   4.762   3.594 -0.7162 -0.4392  1.1512
 3114TIP3    H230758   3.676   4.783   3.680  0.0620 -0.0833 -0.0176
 3115TIP3   OH230759   6.460   3.954  11.928  0.1125 -0.4311  0.3486
 3115TIP3    H130760   6.477   3.861  11.946 -1.0476 -0.9403 -0.9771
 3115TIP3    H230761   6.370   3.955  11.894 -0.0828  1.2580  0.8346
 3116TIP3   OH230762   1.132   6.346   2.784  0.5132 -0.7518  0.5494
 3116TIP3    H130763   1.213   6.356   2.835 -0.7319  2.6291  2.1238
 3116TIP3    H230764   1.143   6.407   2.711 -1.0684  0.8050  1.5390
 3117TIP3   OH230765   5.502   1.607   0.676 -0.2522 -0.1293 -0.4253
 3117TIP3    H130766   5.547   1.659   0.608 -1.7814  1.9106  0.0268
 3117TIP3    H230767   5.427   1.660   0.701 -0.7044 -1.6313  1.6693
 3118TIP3   OH230768   0.670   6.079   1.547 -0.4508  0.2966  0.4689
 3118TIP3    H130769   0.666   6.028   1.627 -0.9826  0.1956  0.3864
 3118TIP3    H230770   0.658   6.170   1.575  1.8394  0.5683  0.7670
 3119TIP3   OH230771   4.592   4.186   0.727  0.1887  0.6588 -0.0107
 3119TIP3    H130772   4.558   4.105   0.765 -3.6771  1.2818 -1.7026
 3119TIP3    H230773   4.658   4.158   0.664 -0.6993 -1.1419 -0.1847
 3120TIP3   OH230774   4.884   4.026   2.540  0.3593 -0.1357  0.1237
 3120TIP3    H130775   4.942   4.064   2.474 -0.6855  0.9303 -0.2148
 3120TIP3    H230776   4.901   3.932   2.536 -0.6775 -0.3181 -2.7238
 3121TIP3   OH230777   5.610   3.930   1.723 -0.1409 -0.8878 -0.4415
 3121TIP3    H130778   5.562   4.007   1.754 -1.4336 -1.5777 -0.6865
 3121TIP3    H230779   5.673   3.912   1.793 -1.0857 -0.7141  0.4820
 3122TIP3   OH230780   1.773   0.292  10.747 -0.4539  0.1999  0.0225
 3122TIP3    H130781   1.868   0.293  10.764 -0.7851  0.8894  2.1658
 3122TIP3    H230782   1.758   0.370  10.694  0.1046  0.4235  0.1762
 3123TIP3   OH230783   5.316   3.459   0.077 -0.0251  0.1829  0.2246
 3123TIP3    H130784   5.317   3.376   0.030  0.2799 -1.1592  2.4555
 3123TIP3    H230785   5.408   3.484   0.083 -0.1876  1.2525 -1.3216
 3124TIP3   OH230786   4.519   2.216  17.109  0.0384  0.1967 -0.5359
 3124TIP3    H130787   4.548   2.202  17.019  1.0691  3.9889 -0.9671
 3124TIP3    H230788   4.599   2.208  17.161 -0.3072 -0.6178 -0.1173
 3125TIP3   OH230789   1.651   1.372   2.640 -0.3210  0.1697 -0.4195
 3125TIP3    H130790   1.735   1.376   2.687  0.0601  1.6999 -1.1539
 3125TIP3    H230791   1.674   1.339   2.553 -0.9944 -2.4634  0.3098
 3126TIP3   OH230792   4.907   6.001   1.677  0.3944 -0.7865  0.4154
 3126TIP3    H130793   4.892   6.093   1.698  1.1405 -0.7214  0.6766
 3126TIP3    H230794   4.842   5.954   1.730 -1.8540 -0.2884 -1.7404
 3127TIP3   OH230795   4.874   3.055  13.658  0.1659 -0.3031  0.9683
 3127TIP3    H130796   4.960   3.091  13.638  0.2254 -0.4554  0.9479
 3127TIP3    H230797   4.874   2.968  13.617 -0.1619 -0.1190  0.5709
 3128TIP3   OH230798   3.975   1.930  12.275 -0.5560 -0.2422 -0.1053
 3128TIP3    H130799   4.017   1.943  12.360 -1.2136 -1.4681  0.4274
 3128TIP3    H230800   4.046   1.898  12.219  0.0092  1.0906 -0.2002
 3129TIP3   OH230801   3.100   6.018  11.035 -0.1035 -0.2146  0.7435
 3129TIP3    H130802   3.139   5.973  11.110  2.4642 -0.5947 -0.7015
 3129TIP3    H230803   3.103   6.111  11.059  0.6410 -0.3309  1.1329
 3130TIP3   OH230804   5.603   3.762   5.399 -0.2319 -0.0253 -0.1860
 3130TIP3    H130805   5.635   3.802   5.480 -0.3787  1.5968 -0.9045
 3130TIP3    H230806   5.680   3.754   5.344 -0.3276 -0.0590 -0.3155
 3131TIP3   OH230807   0.592   4.581  13.725  0.4171  0.4541  0.3765
 3131TIP3    H130808   0.685   4.603  13.733  0.8222 -0.9037 -0.3173
 3131TIP3    H230809   0.583   4.546  13.636 -0.9651  1.4729  0.0809
 3132TIP3   OH230810   1.276   0.528  13.941 -0.2765 -0.2972 -0.2292
 3132TIP3    H130811   1.323   0.524  14.024 -1.4768  1.3633  0.6020
 3132TIP3    H230812   1.345   0.535  13.875  0.6898 -0.0109  0.7753
 3133TIP3   OH230813   0.617   5.916  12.095  0.0378  0.1100  0.3092
 3133TIP3    H130814   0.524   5.895  12.101  0.1139  0.1037  1.7561
 3133TIP3    H230815   0.662   5.838  12.126  0.5458  0.0319 -0.5923
 3134TIP3   OH230816   0.490   6.659  14.611  0.6752 -0.6076  0.1685
 3134TIP3    H130817   0.551   6.653  14.537  1.0334 -0.6808  0.4714
 3134TIP3    H230818   0.481   6.569  14.642  0.5854 -0.5660  0.2628
 3135TIP3   OH230819   3.014   6.687  17.026  0.1265 -0.5016 -0.4008
 3135TIP3    H130820   2.986   6.599  16.998 -0.8782 -0.4389  0.3798
 3135TIP3    H230821   2.933   6.737  17.033  0.3789 -0.3282  1.9881
 3136TIP3   OH230822   3.991   6.044   4.186  0.0866  0.6348  0.2715
 3136TIP3    H130823   3.964   6.020   4.274  0.3771  0.8734  0.4267
 3136TIP3    H230824   4.026   5.963   4.149  0.8152  0.7475  0.6992
 3137TIP3   OH230825   3.803   3.158  11.081 -0.0094 -0.0169 -0.2760
 3137TIP3    H130826   3.843   3.101  11.015  0.4284  0.3023 -0.2814
 3137TIP3    H230827   3.721   3.186  11.040 -1.6867 -2.8879  0.7768
 3138TIP3   OH230828   4.475   3.655  14.365 -0.5521 -0.2839 -0.5630
 3138TIP3    H130829   4.451   3.663  14.273 -0.2881 -1.2259 -0.7213
 3138TIP3    H230830   4.491   3.745  14.394 -0.7732  0.0283 -1.3937
 3139TIP3   OH230831   4.180   4.632   6.367 -0.6852  0.5806  0.4786
 3139TIP3    H130832   4.102   4.608   6.416  0.0210  1.3362  2.0723
 3139TIP3    H230833   4.247   4.570   6.397 -0.3282  0.8395  0.2243
 3140TIP3   OH230834   3.292   0.523   6.017  0.1125  0.5255 -0.1070
 3140TIP3    H130835   3.368   0.540   6.073  2.7498 -2.4098 -2.3583
 3140TIP3    H230836   3.273   0.607   5.975  2.5795  1.2855  0.1429
 3141TIP3   OH230837   5.910   2.450   2.465 -0.1482 -0.5811  0.3851
 3141TIP3    H130838   5.967   2.527   2.468 -1.6765  0.6978 -1.1735
 3141TIP3    H230839   5.950   2.393   2.399  1.1573 -1.3045  1.7658
 3142TIP3   OH230840   6.018   3.400  13.157  0.6701 -0.1653  0.7321
 3142TIP3    H130841   6.079   3.422  13.227  2.2290 -1.2182 -0.2201
 3142TIP3    H230842   6.028   3.306  13.145 -0.6791 -0.2468  0.0978
 3143TIP3   OH230843   5.093   0.656  13.987  0.4251 -0.0522  0.6952
 3143TIP3    H130844   5.096   0.661  14.082 -2.5566  0.2930  0.8552
 3143TIP3    H230845   5.001   0.672  13.964  0.9218 -0.6826 -2.2122
 3144TIP3   OH230846   3.480   3.534   2.317  0.2359 -0.2876  0.9768
 3144TIP3    H130847   3.428   3.455   2.304  0.1917 -0.0309 -0.6756
 3144TIP3    H230848   3.499   3.565   2.228  1.1861  0.9467  1.5773
 3145TIP3   OH230849   2.276   6.536   4.597 -0.5495 -0.0377 -0.4369
 3145TIP3    H130850   2.284   6.628   4.574 -0.6000 -0.5115 -2.5929
 3145TIP3    H230851   2.367   6.504   4.599 -0.5797 -0.1253 -0.4896
 3146TIP3   OH230852   3.108   3.856  17.039 -0.3602  0.1915 -0.5430
 3146TIP3    H130853   3.160   3.848  17.118  0.9223  0.0656 -1.3805
 3146TIP3    H230854   3.167   3.894  16.974 -0.8787 -1.2351 -1.9187
 3147TIP3   OH230855   1.481   5.993   0.960 -0.0733 -0.2793  0.1189
 3147TIP3    H130856   1.564   5.953   0.985 -0.0671 -0.6922 -0.5474
 3147TIP3    H230857   1.466   6.061   1.026  0.1693 -1.0389  0.9648
 3148TIP3   OH230858   2.951   2.381   5.476  0.5655  0.5273 -0.2481
 3148TIP3    H130859   3.001   2.324   5.418 -0.0474  2.1210 -2.5045
 3148TIP3    H230860   2.923   2.453   5.420 -0.1249  2.1887  2.0569
 3149TIP3   OH230861   0.796   6.471   5.279 -0.5694  0.7522  0.0806
 3149TIP3    H130862   0.717   6.423   5.304 -0.4446  0.5587  0.1013
 3149TIP3    H230863   0.799   6.545   5.340 -0.6653  0.6892  0.1619
 3150TIP3   OH230864   3.912   6.237  12.637  0.5044  0.6224 -0.0071
 3150TIP3    H130865   3.980   6.292  12.674  1.0244 -0.2574  0.3806
 3150TIP3    H230866   3.926   6.241  12.542  0.1527  1.6295 -0.0226
 3151TIP3   OH230867   0.355   4.260   5.839  0.3164 -0.0136  0.2161
 3151TIP3    H130868   0.449   4.246   5.827  0.0103 -1.2521 -1.1374
 3151TIP3    H230869   0.314   4.195   5.782 -1.3615  1.7828 -0.7659
 3152TIP3   OH230870   4.165   1.468   4.872  0.5092  0.3296 -0.1463
 3152TIP3    H130871   4.253   1.452   4.908  0.6195 -0.2224 -0.6507
 3152TIP3    H230872   4.153   1.398   4.807 -1.1635 -0.9174  1.4226
 3153TIP3   OH230873   4.493   5.463  12.065 -0.2767 -0.6398 -0.3076
 3153TIP3    H130874   4.540   5.526  12.011  1.1043 -1.5154 -0.1746
 3153TIP3    H230875   4.458   5.399  12.003  1.0686 -1.4882 -0.2438
 3154TIP3   OH230876   0.293   1.500   5.052  0.1232 -0.3020 -0.2732
 3154TIP3    H130877   0.274   1.452   5.132  0.3021  1.7551  1.0643
 3154TIP3    H230878   0.389   1.505   5.049  0.1106 -0.1719 -0.4876
 3155TIP3   OH230879   5.785   3.653   0.285 -0.7131 -0.1119 -0.3882
 3155TIP3    H130880   5.718   3.587   0.302 -0.9077  0.0474 -0.5420
 3155TIP3    H230881   5.797   3.651   0.190 -1.4594  0.7985 -0.5119
 3156TIP3   OH230882   1.821   1.482  13.388 -0.0761  0.2126  1.1471
 3156TIP3    H130883   1.771   1.548  13.341  1.6837  0.5839 -0.3274
 3156TIP3    H230884   1.838   1.521  13.473 -1.4032  0.4757  1.3201
 3157TIP3   OH230885   3.926   3.049   2.430  0.2670 -0.4465 -0.2832
 3157TIP3    H130886   3.869   3.025   2.357  1.7381 -1.9962 -1.0062
 3157TIP3    H230887   3.950   3.140   2.412 -0.9800 -0.1633 -0.6221
 3158TIP3   OH230888   0.591   1.198  11.231 -0.3386  0.1246 -0.5052
 3158TIP3    H130889   0.642   1.156  11.162  1.3426 -1.3936  1.5462
 3158TIP3    H230890   0.656   1.231  11.293 -1.7895  0.9802  0.6517
 3159TIP3   OH230891   5.041   2.852  14.404 -0.5229 -0.0746  0.1169
 3159TIP3    H130892   4.991   2.868  14.325  3.0171 -0.8045 -2.5169
 3159TIP3    H230893   5.060   2.758  14.403 -0.4046 -0.1180  1.8815
 3160TIP3   OH230894   4.821   6.645  11.603 -0.2595  0.2126 -0.7516
 3160TIP3    H130895   4.756   6.577  11.622  1.1951 -1.1786 -0.5566
 3160TIP3    H230896   4.798   6.677  11.516 -1.2102 -0.2396 -0.6768
 3161TIP3   OH230897   5.769   0.259   5.987  0.3509 -0.4125 -0.3024
 3161TIP3    H130898   5.835   0.201   6.024  0.1116 -1.1492 -1.0057
 3161TIP3    H230899   5.817   0.337   5.960  0.7344 -0.4343  0.3073
 3162TIP3   OH230900   0.311   5.461  11.535 -0.2910  0.2239  0.0792
 3162TIP3    H130901   0.289   5.396  11.601 -1.0151 -0.0710 -0.4391
 3162TIP3    H230902   0.339   5.409  11.459  3.7273  0.5381  1.1077
 3163TIP3   OH230903   1.256   3.937   0.149 -0.1886 -0.4237 -0.2059
 3163TIP3    H130904   1.306   3.857   0.134  0.4613 -0.0807  0.0695
 3163TIP3    H230905   1.323   4.004   0.163 -0.6961 -0.2500  1.7012
 3164TIP3   OH230906   1.044   4.654   0.034  0.7262 -0.0556 -0.7940
 3164TIP3    H130907   1.044   4.572  -0.016  3.0723 -1.0782  0.6929
 3164TIP3    H230908   0.999   4.631   0.116  0.7151  0.3770 -0.6782
 3165TIP3   OH230909   1.483   2.066  12.532  0.0877 -0.2594  0.0244
 3165TIP3    H130910   1.482   2.027  12.444 -0.2418 -0.6897  0.2204
 3165TIP3    H230911   1.539   2.008  12.584  0.1343 -0.1047  0.1472
 3166TIP3   OH230912   2.606   3.442   3.187  0.4333 -0.4888 -0.0421
 3166TIP3    H130913   2.666   3.393   3.243 -0.8004 -0.4519  1.3685
 3166TIP3    H230914   2.637   3.424   3.098  2.3997 -0.6117  0.6026
 3167TIP3   OH230915   2.312   3.246  17.349  0.6182 -0.1054 -0.2888
 3167TIP3    H130916   2.265   3.215  17.427  3.3419 -1.1076  1.0881
 3167TIP3    H230917   2.280   3.191  17.278  0.9048 -1.9580  0.9399
 3168TIP3   OH230918   2.565   5.447  15.161  0.3143 -0.0142 -0.6931
 3168TIP3    H130919   2.542   5.367  15.208 -1.4927  0.0154 -1.4381
 3168TIP3    H230920   2.525   5.518  15.212 -1.3485  0.0481 -2.0046
 3169TIP3   OH230921   0.080   6.518   6.050 -0.0910  0.2809 -0.2579
 3169TIP3    H130922   0.096   6.423   6.049  0.9821  0.4553 -0.6604
 3169TIP3    H230923   0.030   6.532   6.131  1.7441 -0.3389  1.0456
 3170TIP3   OH230924   1.039   1.515   2.445  0.2447 -0.2258 -0.1862
 3170TIP3    H130925   1.016   1.606   2.429 -0.5827  0.1251  2.5091
 3170TIP3    H230926   1.059   1.511   2.539 -0.4768 -2.9553 -0.0489
 3171TIP3   OH230927   4.682   2.009  12.802  0.3511 -0.7638 -0.2481
 3171TIP3    H130928   4.660   1.922  12.769 -0.7738 -0.2604 -0.8727
 3171TIP3    H230929   4.775   2.019  12.781  0.1165 -1.1956 -1.6361
 3172TIP3   OH230930   0.567   4.594  14.476  0.2055  0.3516 -0.2344
 3172TIP3    H130931   0.498   4.657  14.499  0.9251  1.9108 -2.1080
 3172TIP3    H230932   0.528   4.508  14.495 -0.5216  1.2931  3.1456
 3173TIP3   OH230933   2.740   6.275   2.196 -0.5278  0.1953 -0.7248
 3173TIP3    H130934   2.654   6.316   2.206  0.3386  2.0999 -0.6542
 3173TIP3    H230935   2.722   6.181   2.201 -2.4044  0.5747  0.7989
 3174TIP3   OH230936   1.271   1.912   2.058 -0.4544 -0.6287  0.6613
 3174TIP3    H130937   1.283   1.990   2.004  1.0338 -0.2216  1.4914
 3174TIP3    H230938   1.180   1.917   2.088 -0.5780  0.4385  0.1687
 3175TIP3   OH230939   5.661   0.667   4.477 -0.1474  0.5212  0.3972
 3175TIP3    H130940   5.643   0.668   4.383  0.7841 -0.7930  0.1723
 3175TIP3    H230941   5.719   0.592   4.489 -1.0268  0.0693  2.1731
 3176TIP3   OH230942   3.903   6.302   1.097  0.4332 -0.0750 -0.4076
 3176TIP3    H130943   3.824   6.341   1.133  0.5899  0.1703 -0.3272
 3176TIP3    H230944   3.945   6.260   1.172  0.4188 -0.1352 -0.4337
 3177TIP3   OH230945   5.225   2.986  12.762 -0.0540  0.6673 -0.2677
 3177TIP3    H130946   5.219   3.081  12.751  1.8303  0.6659 -1.8033
 3177TIP3    H230947   5.233   2.953  12.673  3.0286 -0.6007  0.3816
 3178TIP3   OH230948   1.837   5.157   4.130 -0.0667  0.1672  0.4101
 3178TIP3    H130949   1.895   5.081   4.130  0.9164  0.8037 -2.1310
 3178TIP3    H230950   1.819   5.173   4.222 -0.6856 -3.3583  1.0637
 3179TIP3   OH230951   6.119   1.129  12.391 -0.6347 -0.6716 -0.5624
 3179TIP3    H130952   6.173   1.189  12.442 -1.0436 -1.1133  0.4072
 3179TIP3    H230953   6.029   1.150  12.414 -0.7680 -2.9430  1.3795
 3180TIP3   OH230954   5.915   4.721  16.746 -0.1732  0.5324 -0.2538
 3180TIP3    H130955   5.988   4.750  16.801 -0.7395 -0.9668  1.3741
 3180TIP3    H230956   5.852   4.793  16.750 -0.6572  0.0375  1.9751
 3181TIP3   OH230957   2.063   2.109  17.258 -0.2934  0.5665  0.2501
 3181TIP3    H130958   2.017   2.189  17.237 -0.9609  0.6869  1.9918
 3181TIP3    H230959   2.040   2.091  17.349  2.0238 -0.1140  0.7701
 3182TIP3   OH230960   5.326   0.030   5.807 -0.4968 -0.3269  0.1318
 3182TIP3    H130961   5.328   0.111   5.756  0.0910 -1.4319 -1.7112
 3182TIP3    H230962   5.396   0.040   5.871 -0.9958  0.9603  0.4977
 3183TIP3   OH230963   4.744   0.062  17.186  0.2119  0.1870 -0.3649
 3183TIP3    H130964   4.678   0.121  17.151  0.2674  0.3051 -0.2734
 3183TIP3    H230965   4.821   0.076  17.130  0.5035  0.8384  0.1808
 3184TIP3   OH230966   4.162   2.935   4.042  0.5298  0.4924  0.4454
 3184TIP3    H130967   4.190   2.894   3.960  0.7545  2.1139 -0.3336
 3184TIP3    H230968   4.083   2.887   4.067  0.2378  0.2060 -0.9372
 3185TIP3   OH230969   2.024   1.898  15.803  0.3014 -0.4144  0.7081
 3185TIP3    H130970   2.107   1.876  15.762 -0.5817 -1.2863 -0.7020
 3185TIP3    H230971   2.013   1.992  15.787  0.9156 -0.3403  0.7254
 3186TIP3   OH230972   3.733   1.970   1.482 -0.2975 -0.0645 -0.0117
 3186TIP3    H130973   3.638   1.967   1.496 -0.7446  1.8576 -2.0758
 3186TIP3    H230974   3.753   2.063   1.471  1.3707 -0.6024 -2.2519
 3187TIP3   OH230975   2.062   0.403  16.863 -0.4160 -0.4435 -0.0948
 3187TIP3    H130976   2.112   0.352  16.799 -0.5649 -0.8202  0.0893
 3187TIP3    H230977   2.047   0.343  16.936 -0.3802 -0.0630  0.2311
 3188TIP3   OH230978   0.478   3.374   3.763  0.2740  0.0611 -0.0950
 3188TIP3    H130979   0.456   3.467   3.756 -1.4759 -0.1472  1.7537
 3188TIP3    H230980   0.488   3.358   3.857 -0.3198 -1.8042 -0.3049
 3189TIP3   OH230981   2.757   1.013   0.009  0.0053  0.1290  0.2874
 3189TIP3    H130982   2.692   1.070  -0.032  0.2760  0.2870  0.0697
 3189TIP3    H230983   2.722   0.925  -0.002 -2.0989  0.3937  3.6074
 3190TIP3   OH230984   1.923   3.172   1.808  0.2936  0.7704  0.0087
 3190TIP3    H130985   1.956   3.228   1.738  0.1525  0.0180 -0.6763
 3190TIP3    H230986   1.901   3.090   1.765 -4.2273  1.7244  0.0275
 3191TIP3   OH230987   1.001   0.672  15.125 -0.0033 -0.3975 -0.9150
 3191TIP3    H130988   1.013   0.704  15.036  1.4255 -3.6358 -2.0390
 3191TIP3    H230989   1.025   0.579  15.121 -0.6576 -0.8814  2.6893
 3192TIP3   OH230990   1.309   2.114   3.654  0.1553 -0.5032  0.3383
 3192TIP3    H130991   1.264   2.196   3.673  0.6280 -0.2448  0.3544
 3192TIP3    H230992   1.286   2.094   3.564  1.0545  0.3159 -0.0894
 3193TIP3   OH230993   6.348   4.036  12.965 -0.0364  0.1029 -0.4966
 3193TIP3    H130994   6.341   4.129  12.947 -0.2056 -0.1573 -1.8858
 3193TIP3    H230995   6.353   3.995  12.878  3.2151 -0.9506  0.0287
 3194TIP3   OH230996   2.627   0.128   3.841  0.1386  0.0811 -0.8384
 3194TIP3    H130997   2.612   0.219   3.816 -1.7055  1.3493  3.7704
 3194TIP3    H230998   2.539   0.091   3.850  0.5937 -0.5668  1.8678
 3195TIP3   OH230999   6.049   5.143  16.230 -0.0949  0.8489 -0.0710
 3195TIP3    H131000   6.033   5.227  16.273  0.5592  1.1561 -0.4211
 3195TIP3    H231001   6.081   5.166  16.143 -1.4903  0.2238 -0.7618
 3196TIP3   OH231002   5.886   6.543  15.948  0.4488  0.0035 -0.7214
 3196TIP3    H131003   5.969   6.509  15.912 -0.6498 -2.4509 -1.1508
 3196TIP3    H231004   5.848   6.594  15.877  2.1939  2.4125 -0.0376
 3197TIP3   OH231005   4.374   6.621  17.005  0.2766 -0.3406  0.0705
 3197TIP3    H131006   4.355   6.621  17.099 -2.8429  1.1248 -0.4191
 3197TIP3    H231007   4.413   6.707  16.989  2.6093 -1.3054  0.2300
 3198TIP3   OH231008   6.497   4.596   0.518 -0.6240  0.0242  0.3245
 3198TIP3    H131009   6.454   4.670   0.560  1.2562  1.2821  0.1908
 3198TIP3    H231010   6.500   4.529   0.586 -0.5985  0.8084  1.1184
 3199TIP3   OH231011   1.426   2.453   5.330  0.3496 -0.2584  0.0465
 3199TIP3    H131012   1.509   2.413   5.356 -0.0173 -1.2584 -0.2646
 3199TIP3    H231013   1.365   2.429   5.400  0.5391  1.3569  0.8164
 3200TIP3   OH231014   2.124   2.131  11.892 -0.1703  0.1228  0.5604
 3200TIP3    H131015   2.034   2.141  11.923 -0.8388 -0.7117 -0.9699
 3200TIP3    H231016   2.123   2.168  11.804  0.4066 -1.7912 -0.3057
 3201TIP3   OH231017   2.627   3.315   5.915 -0.0488  0.0049  0.6656
 3201TIP3    H131018   2.610   3.334   5.823  1.9157 -0.7865  0.0795
 3201TIP3    H231019   2.543   3.287   5.951 -1.4263  2.7014 -0.2145
 3202TIP3   OH231020   5.644   4.859  13.884 -0.7371 -0.2432  0.3052
 3202TIP3    H131021   5.714   4.846  13.949  0.4391  0.9205 -0.6680
 3202TIP3    H231022   5.685   4.911  13.815 -2.4653  0.0877 -0.5240
 3203TIP3   OH231023   0.821   6.449  11.931  0.3643  0.0123  0.2683
 3203TIP3    H131024   0.767   6.484  11.860 -0.1092 -0.5312  0.3576
 3203TIP3    H231025   0.875   6.382  11.889  0.6307  0.2255  0.2718
 3204TIP3   OH231026   0.087   5.342   5.128 -0.1286  0.2924 -0.4437
 3204TIP3    H131027   0.038   5.283   5.071 -0.7205 -0.5369  0.8854
 3204TIP3    H231028   0.179   5.321   5.110 -0.3314 -0.8696 -0.1598
 3205TIP3   OH231029   1.395   1.002   5.925  0.5494  0.6780  1.2179
 3205TIP3    H131030   1.433   1.023   6.010  0.4765  3.2209  0.7019
 3205TIP3    H231031   1.312   1.050   5.923  0.1137 -0.0639  0.0388
 3206TIP3   OH231032   6.397   4.376  13.972 -0.2649  0.2847  0.1077
 3206TIP3    H131033   6.397   4.394  13.878 -1.6796 -1.3557 -0.2557
 3206TIP3    H231034   6.353   4.292  13.980  1.5721 -0.5710  2.0876
 3207TIP3   OH231035   0.688   2.402   2.204 -0.0061 -0.4582  0.0868
 3207TIP3    H131036   0.761   2.341   2.198  1.3945  1.1118  0.5042
 3207TIP3    H231037   0.651   2.387   2.292 -0.9842 -2.0622 -0.5530
 3208TIP3   OH231038   4.549   2.913  16.657  0.2714  0.1898 -0.0729
 3208TIP3    H131039   4.493   2.933  16.732  2.7895  0.7238  1.7931
 3208TIP3    H231040   4.565   2.819  16.663  0.3943  0.2154 -0.0014
 3209TIP3   OH231041   2.325   4.478   4.852  0.1224 -0.5223 -0.3021
 3209TIP3    H131042   2.374   4.400   4.825  1.0247 -0.4837  1.0984
 3209TIP3    H231043   2.390   4.549   4.848 -0.1219 -0.2465  0.4586
 3210TIP3   OH231044   2.096   1.436  13.537 -0.0955 -0.1880 -0.4478
 3210TIP3    H131045   2.113   1.350  13.574 -0.7305  0.1987  0.7865
 3210TIP3    H231046   2.091   1.421  13.443  2.0585 -1.1150 -0.4885
 3211TIP3   OH231047   5.261   6.509  11.689  0.1310 -0.5494 -0.0171
 3211TIP3    H131048   5.312   6.590  11.680  1.3992 -1.3210  0.0219
 3211TIP3    H231049   5.311   6.456  11.752 -0.0212 -1.8438 -0.9438
 3212TIP3   OH231050   4.329   2.493   6.345  0.2878 -0.3774 -0.1332
 3212TIP3    H131051   4.337   2.425   6.412 -1.3752 -0.1365  0.3791
 3212TIP3    H231052   4.327   2.575   6.395  1.8983  0.0566 -0.7154
 3213TIP3   OH231053   2.460   3.754  16.852  0.3186 -0.6105 -0.1143
 3213TIP3    H131054   2.509   3.830  16.820 -0.1451  0.9938  2.6643
 3213TIP3    H231055   2.528   3.690  16.876  0.7684 -0.5315 -1.1193
 3214TIP3   OH231056   3.228   2.089  16.567 -0.1564  0.1351  0.0825
 3214TIP3    H131057   3.183   2.124  16.489 -1.0334 -1.2724 -0.0776
 3214TIP3    H231058   3.281   2.017  16.533  1.4620  1.1081  0.4405
 3215TIP3   OH231059   4.482   1.746  14.003  0.1273 -0.4022 -0.1584
 3215TIP3    H131060   4.529   1.821  13.965  0.3953 -1.0862 -1.2163
 3215TIP3    H231061   4.526   1.669  13.966 -2.1545 -1.0893 -1.6435
 3216TIP3   OH231062   2.766   0.939  16.398 -0.4149 -0.8085 -0.3211
 3216TIP3    H131063   2.825   0.893  16.338  0.7790  1.1136 -0.6941
 3216TIP3    H231064   2.703   0.982  16.340  0.8261  1.1702 -0.2700
 3217TIP3   OH231065   1.546   5.318  11.441  0.0211 -0.0013  0.3322
 3217TIP3    H131066   1.627   5.355  11.477  0.4301 -1.0900  0.5702
 3217TIP3    H231067   1.483   5.323  11.514 -0.6801  2.4124 -0.3550
 3218TIP3   OH231068   2.525   6.248  15.725  0.3872 -0.5794 -0.0024
 3218TIP3    H131069   2.457   6.303  15.685  1.6168  0.4189 -0.7987
 3218TIP3    H231070   2.520   6.165  15.676 -0.5735 -0.7054  0.2852
 3219TIP3   OH231071   4.386   4.712  14.288 -0.0894 -0.3031 -0.4886
 3219TIP3    H131072   4.459   4.653  14.307 -0.2895 -0.8642 -1.4123
 3219TIP3    H231073   4.309   4.656  14.285 -0.6500  0.3497  0.9139
 3220TIP3   OH231074   5.592   6.566   4.184  0.0234 -0.3054 -0.2227
 3220TIP3    H131075   5.521   6.605   4.132 -0.1227 -1.6991 -1.1356
 3220TIP3    H231076   5.637   6.507   4.123  1.8618  0.3956  0.3968
 3221TIP3   OH231077   0.621   5.067  14.606 -0.1594  0.2406  0.5057
 3221TIP3    H131078   0.681   4.998  14.633 -2.6439 -1.9264  0.8429
 3221TIP3    H231079   0.553   5.067  14.673  0.2242  3.8346  1.1218
 3222TIP3   OH231080   5.437   0.821  15.581 -0.1262 -0.5262  0.2059
 3222TIP3    H131081   5.372   0.889  15.592 -1.9036 -2.2096  0.6620
 3222TIP3    H231082   5.456   0.790  15.669  0.4512 -0.8062 -0.0077
 3223TIP3   OH231083   1.391   4.378   5.824 -1.0749  0.1180  0.7944
 3223TIP3    H131084   1.457   4.425   5.773 -0.0892 -1.9672  0.0606
 3223TIP3    H231085   1.377   4.434   5.901  1.7572  0.5315  1.1264
 3224TIP3   OH231086   0.565   4.671   3.433 -0.2519 -0.2608 -0.0917
 3224TIP3    H131087   0.519   4.676   3.517 -1.2701  1.5128 -0.6981
 3224TIP3    H231088   0.496   4.666   3.367  0.5030 -0.6412 -0.8761
 3225TIP3   OH231089   3.526   0.194   2.332  0.0863 -0.4129 -0.3950
 3225TIP3    H131090   3.617   0.182   2.357  0.2969 -0.4043 -1.1271
 3225TIP3    H231091   3.494   0.106   2.311 -0.0043 -0.3878 -0.3660
 3226TIP3   OH231092   4.526   4.122  11.443  0.0491 -0.1535  0.2434
 3226TIP3    H131093   4.597   4.123  11.379  1.1677  0.2519  1.4477
 3226TIP3    H231094   4.546   4.048  11.500 -0.2680  0.1997  0.8284
 3227TIP3   OH231095   0.477   2.999  15.209  0.6766 -0.0012 -0.3515
 3227TIP3    H131096   0.554   3.056  15.207  0.8884 -0.3064 -1.3849
 3227TIP3    H231097   0.422   3.032  15.138 -0.0350  0.0406  0.2041
 3228TIP3   OH231098   2.468   2.958  14.372  0.0337  0.5474  0.3849
 3228TIP3    H131099   2.554   3.001  14.370  0.7371 -0.8315  0.0699
 3228TIP3    H231100   2.487   2.865  14.359 -1.6177  0.3808 -1.2150
 3229TIP3   OH231101   0.914   2.454  16.503  0.0937  0.2099  0.1784
 3229TIP3    H131102   0.848   2.523  16.502  0.3299  0.4478 -1.3342
 3229TIP3    H231103   0.866   2.374  16.480  0.3855  0.4894 -1.5787
 3230TIP3   OH231104   1.435   3.815  16.664 -0.2980 -0.2972 -0.0116
 3230TIP3    H131105   1.413   3.722  16.671 -0.5511 -0.5895 -3.2626
 3230TIP3    H231106   1.521   3.816  16.622 -0.9896  0.8839 -1.4916
 3231TIP3   OH231107   2.976   0.627   2.997  0.2044 -0.1253 -0.4148
 3231TIP3    H131108   3.029   0.549   3.009  0.1921 -0.2841 -1.3273
 3231TIP3    H231109   3.040   0.696   2.979  0.1484 -0.1570 -0.7354
 3232TIP3   OH231110   1.368   1.820  15.590 -0.1526  0.0331 -0.2021
 3232TIP3    H131111   1.372   1.895  15.649  0.1290  0.6809 -1.0169
 3232TIP3    H231112   1.369   1.859  15.502 -0.4444 -0.9067 -0.6364
 3233TIP3   OH231113   2.352   3.501   0.359 -0.3571  0.3884 -0.1914
 3233TIP3    H131114   2.389   3.558   0.292  0.9460  1.7421  1.5626
 3233TIP3    H231115   2.303   3.560   0.416 -1.5823 -0.7529 -0.0418
 3234TIP3   OH231116   2.157   5.162  17.371 -0.5225  0.4524 -0.0230
 3234TIP3    H131117   2.069   5.159  17.410 -0.2846 -0.7315  0.4565
 3234TIP3    H231118   2.180   5.070  17.359  0.3695  0.7752 -0.8043
 3235TIP3   OH231119   2.760   1.379  16.624 -0.3763 -0.2367  0.4361
 3235TIP3    H131120   2.840   1.427  16.647  1.2922 -2.0227 -1.2785
 3235TIP3    H231121   2.763   1.300  16.678  0.2999 -1.4252 -1.2464
 3236TIP3   OH231122   5.920   0.769  11.508 -0.4552 -0.6267 -0.3539
 3236TIP3    H131123   5.828   0.766  11.535 -0.4880  1.2722 -0.1159
 3236TIP3    H231124   5.959   0.692  11.549 -1.7576 -0.9904  0.2673
 3237TIP3   OH231125   0.965   3.650  15.514  0.1234  0.2864  0.6092
 3237TIP3    H131126   0.882   3.624  15.554 -0.5113  1.6873  0.2485
 3237TIP3    H231127   1.024   3.666  15.588 -1.4941  4.4203  1.2527
 3238TIP3   OH231128   5.133   4.574   1.042 -0.1469 -0.6185  0.1761
 3238TIP3    H131129   5.180   4.493   1.021  0.8012  0.4990 -2.5280
 3238TIP3    H231130   5.197   4.626   1.090  1.1617  0.4715 -2.5635
 3239TIP3   OH231131   5.241   0.414   0.235  0.2798 -0.3954  0.1859
 3239TIP3    H131132   5.174   0.361   0.280  0.1231  0.9649  1.6386
 3239TIP3    H231133   5.221   0.404   0.142 -3.0515  1.3020  0.5875
 3240TIP3   OH231134   2.317   5.986   2.333  0.1069  0.2905 -0.2156
 3240TIP3    H131135   2.253   5.998   2.263 -1.3532  2.9328  1.4431
 3240TIP3    H231136   2.390   6.043   2.308  0.0907  0.3363 -0.1582
 3241TIP3   OH231137   6.165   6.631   0.695  0.2151 -0.1700  0.2345
 3241TIP3    H131138   6.219   6.597   0.766 -0.2408 -0.6607  0.3543
 3241TIP3    H231139   6.225   6.680   0.640  0.9962 -1.5960 -0.2189
 3242TIP3   OH231140   2.883   4.968  16.731 -0.1066  0.0981  0.0794
 3242TIP3    H131141   2.870   5.018  16.650 -2.9262 -1.3208 -0.4666
 3242TIP3    H231142   2.953   4.906  16.710 -1.1163 -0.5737 -1.4744
 3243TIP3   OH231143   4.722   4.697  13.201 -0.2014 -0.2633  0.0506
 3243TIP3    H131144   4.760   4.650  13.275 -3.5497 -1.3135  1.2729
 3243TIP3    H231145   4.669   4.632  13.155 -0.5574  1.0843 -1.5609
 3244TIP3   OH231146   0.111   6.125  16.062 -0.3333 -0.1868 -0.5845
 3244TIP3    H131147   0.198   6.140  16.025 -2.0291  3.4004 -3.8658
 3244TIP3    H231148   0.079   6.047  16.016  0.9217 -1.3744  0.4535
 3245TIP3   OH231149   5.026   4.829  12.528 -0.0387  0.9112 -0.2252
 3245TIP3    H131150   5.025   4.828  12.624 -1.1119  2.1112 -0.1980
 3245TIP3    H231151   5.118   4.816  12.504  0.0675 -0.8216  0.9201
 3246TIP3   OH231152   1.455   0.530  16.674  0.2544  0.6219  0.1796
 3246TIP3    H131153   1.376   0.575  16.701 -0.0070 -0.1451  0.7441
 3246TIP3    H231154   1.449   0.444  16.716 -0.2041 -0.6992 -2.3694
 3247TIP3   OH231155   1.702   6.601  13.235  0.0604 -0.5391 -0.4047
 3247TIP3    H131156   1.762   6.597  13.160  1.3654 -1.7568  0.6530
 3247TIP3    H231157   1.624   6.644  13.200  1.0795  0.0260 -2.1479
 3248TIP3   OH231158   6.088   2.347  15.600 -0.1998  0.0036 -0.1501
 3248TIP3    H131159   6.070   2.351  15.506 -3.6623  0.9840  0.4456
 3248TIP3    H231160   6.092   2.438  15.628  0.1630 -0.2819  0.7639
 3249TIP3   OH231161   1.598   2.990  12.223  0.0614 -0.3612  0.7350
 3249TIP3    H131162   1.598   2.959  12.133 -0.1298 -2.0463  1.2853
 3249TIP3    H231163   1.606   2.911  12.276  0.9022  0.6440  2.1869
 3250TIP3   OH231164   3.103   4.350  17.354  0.5187 -0.5184 -0.2229
 3250TIP3    H131165   3.179   4.301  17.386 -0.5349 -2.0629  0.0014
 3250TIP3    H231166   3.107   4.341  17.259 -0.0486 -1.6630 -0.1507
 3251TIP3   OH231167   4.695   3.847  10.766 -0.3148 -0.0381  0.2419
 3251TIP3    H131168   4.790   3.845  10.762 -0.3128  0.7713 -0.2772
 3251TIP3    H231169   4.670   3.758  10.792  0.5080 -0.6981 -1.1063
 3252TIP3   OH231170   1.934   4.803   4.034  0.0260  0.5743  0.2934
 3252TIP3    H131171   1.853   4.814   4.083 -0.1794 -0.2215  0.1387
 3252TIP3    H231172   1.989   4.877   4.061 -0.0906  0.1702  1.6969
 3253TIP3   OH231173   6.695   5.394  13.374 -0.4775  0.0931  0.0479
 3253TIP3    H131174   6.630   5.365  13.311  1.2148 -0.6166 -1.4365
 3253TIP3    H231175   6.708   5.319  13.432 -0.1110 -0.1812 -0.3894
 3254TIP3   OH231176   1.955   6.085  13.700 -0.0368  0.4426 -0.0147
 3254TIP3    H131177   2.042   6.100  13.739  0.8846 -1.9966 -0.9428
 3254TIP3    H231178   1.962   6.124  13.613  0.1003  0.3077 -0.0646
 3255TIP3   OH231179   1.729   0.560  14.167  0.3054  0.0889 -0.2381
 3255TIP3    H131180   1.800   0.537  14.226  2.2559  1.7740 -1.7683
 3255TIP3    H231181   1.687   0.636  14.207  1.0546  0.6863 -0.5759
 3256TIP3   OH231182   0.470   1.961   2.344  0.0749  0.2586  0.2714
 3256TIP3    H131183   0.383   1.936   2.375 -0.5853  0.0792 -1.5997
 3256TIP3    H231184   0.526   1.886   2.367  0.1178  0.9862  2.8159
 3257TIP3   OH231185   1.209   2.397   6.388  0.1513 -0.0423 -0.0988
 3257TIP3    H131186   1.281   2.459   6.378 -1.2958  1.7775  0.3156
 3257TIP3    H231187   1.224   2.356   6.473 -0.1011  1.4730  0.7075
 3258TIP3   OH231188   5.577   0.441   1.776  0.5093  1.1929 -0.3468
 3258TIP3    H131189   5.635   0.468   1.705  0.1648  2.4227 -0.1842
 3258TIP3    H231190   5.556   0.350   1.756  1.2175  1.2181 -1.2743
 3259TIP3   OH231191   4.576   1.193  11.798  0.0734 -0.1349 -0.3510
 3259TIP3    H131192   4.482   1.179  11.801 -0.2640  1.6262 -1.2571
 3259TIP3    H231193   4.609   1.129  11.735 -0.8330  0.5546 -1.5638
 3260TIP3   OH231194   0.050   5.385   1.748  0.1058 -1.0308  0.1737
 3260TIP3    H131195   0.108   5.334   1.691  0.1230 -0.1659 -0.6133
 3260TIP3    H231196  -0.038   5.364   1.717  0.1612  0.8080 -1.4545
 3261TIP3   OH231197   6.415   0.438  13.732  0.2802 -0.1533  0.4535
 3261TIP3    H131198   6.480   0.508  13.737 -0.9151  1.0464 -0.1567
 3261TIP3    H231199   6.331   0.484  13.728 -0.7909 -1.6348  3.1152
 3262TIP3   OH231200   3.660   2.785  11.705 -0.0826 -0.0468 -0.3309
 3262TIP3    H131201   3.639   2.693  11.697 -2.1631  0.4127 -0.7343
 3262TIP3    H231202   3.681   2.814  11.616 -0.6869  0.1293 -0.4207
 3263TIP3   OH231203   6.511   6.217  16.887  0.3406 -0.4276  0.1258
 3263TIP3    H131204   6.551   6.301  16.866  0.4810 -0.6008 -0.3014
 3263TIP3    H231205   6.471   6.230  16.973 -0.9809  0.5462 -0.6012
 3264TIP3   OH231206   1.642   0.740  13.254 -0.1687  0.3122  0.1424
 3264TIP3    H131207   1.556   0.780  13.267  0.8272  2.0221  1.9618
 3264TIP3    H231208   1.694   0.807  13.210  0.2010 -0.8027 -1.1889
 3265TIP3   OH231209   1.044   5.944   2.592  0.2751 -0.0097  0.0571
 3265TIP3    H131210   1.131   5.978   2.569  0.3008  0.2429  0.4961
 3265TIP3    H231211   0.984   6.014   2.568  0.0388 -0.6983 -1.4661
 3266TIP3   OH231212   0.588   4.244   3.958 -0.1525 -0.0816  0.1062
 3266TIP3    H131213   0.498   4.210   3.962 -0.2931  0.2274 -0.3265
 3266TIP3    H231214   0.585   4.310   3.889  1.0105 -1.8638 -1.7641
 3267TIP3   OH231215   2.026   5.888  13.263 -0.5358  0.2245  0.4990
 3267TIP3    H131216   2.110   5.864  13.223 -0.7509 -0.9065  0.6846
 3267TIP3    H231217   1.964   5.883  13.190 -0.5654  0.3316  0.5177
 3268TIP3   OH231218   6.051   2.508  10.525 -0.3349  0.1216  0.0537
 3268TIP3    H131219   6.074   2.429  10.574 -2.6554 -0.6633  0.0322
 3268TIP3    H231220   6.132   2.557  10.519  1.6861 -3.0260 -1.4347
 3269TIP3   OH231221   3.269   5.067   5.173 -0.3259 -0.0263 -0.5909
 3269TIP3    H131222   3.354   5.103   5.199 -0.6176  1.5313 -1.6117
 3269TIP3    H231223   3.205   5.132   5.203 -1.0639 -0.6320 -0.8033
 3270TIP3   OH231224   5.723   5.811  14.807 -0.6298 -0.0374 -0.4993
 3270TIP3    H131225   5.816   5.833  14.801 -0.3887 -1.1658 -1.3561
 3270TIP3    H231226   5.723   5.720  14.836 -1.5278  0.4569  1.1293
 3271TIP3   OH231227   3.706   5.255  12.337 -0.0334  0.8374  0.8715
 3271TIP3    H131228   3.754   5.270  12.255 -2.0726 -0.0177 -0.5496
 3271TIP3    H231229   3.688   5.343  12.370  0.1982  1.2161  0.0182
 3272TIP3   OH231230   3.560   6.531   3.108  0.4286  0.2615 -0.4156
 3272TIP3    H131231   3.606   6.457   3.148  0.4080  1.4707  2.0186
 3272TIP3    H231232   3.589   6.530   3.016  0.9921 -2.2706 -0.2944
 3273TIP3   OH231233   0.470   5.870   3.411 -0.2171 -0.0870  0.7431
 3273TIP3    H131234   0.397   5.811   3.393 -1.4143  1.4134  0.5120
 3273TIP3    H231235   0.440   5.923   3.485  0.5082  0.7897  0.4226
 3274TIP3   OH231236   5.424   1.280   3.218  0.2286 -0.2940 -0.5311
 3274TIP3    H131237   5.455   1.371   3.221  2.2534 -0.8641 -1.8913
 3274TIP3    H231238   5.424   1.252   3.309 -0.6485  1.1182 -0.0601
 3275TIP3   OH231239   1.151   0.337   1.010 -0.0728 -0.2166 -0.5669
 3275TIP3    H131240   1.227   0.379   0.970  0.5226 -0.0496  0.6767
 3275TIP3    H231241   1.095   0.313   0.936  0.4475  1.0705 -1.4190
 3276TIP3   OH231242   4.925   3.589   3.861 -0.4456  0.0109 -0.3255
 3276TIP3    H131243   4.969   3.611   3.943 -0.2225  1.6093 -0.8369
 3276TIP3    H231244   4.985   3.620   3.793 -1.6285  0.7601 -1.0560
 3277TIP3   OH231245   4.064   5.402   4.722 -0.3640  0.1826  0.6571
 3277TIP3    H131246   4.146   5.432   4.683 -0.7655  2.5198  1.4312
 3277TIP3    H231247   4.023   5.482   4.755 -2.8590 -0.9291  0.4946
 3278TIP3   OH231248   6.133   3.685  12.125 -0.0285  0.3241 -0.3293
 3278TIP3    H131249   6.203   3.742  12.091 -0.1769  0.7283  0.0275
 3278TIP3    H231250   6.177   3.628  12.188 -0.0930  0.8890  0.2388
 3279TIP3   OH231251   0.540   3.411  14.161 -0.6135 -0.1452 -0.2404
 3279TIP3    H131252   0.544   3.504  14.184  0.8745 -0.5914  1.5289
 3279TIP3    H231253   0.449   3.386  14.178 -0.9762  0.9134 -0.5204
 3280TIP3   OH231254   6.099   0.232  16.049 -0.4924  0.1374 -0.0205
 3280TIP3    H131255   6.104   0.327  16.049  0.2509  0.1046  1.0386
 3280TIP3    H231256   6.057   0.211  15.965  0.0750  1.3461 -0.6335
 3281TIP3   OH231257   0.071   1.272  14.479 -0.6413 -0.4551  0.4499
 3281TIP3    H131258   0.048   1.270  14.572 -0.8300 -0.2502  0.4096
 3281TIP3    H231259  -0.010   1.247  14.434 -0.7347  0.0877  0.3134
 3282TIP3   OH231260   0.257   4.254   4.039  0.1984  0.3212  0.0009
 3282TIP3    H131261   0.213   4.335   4.012  0.0809  0.3145  0.1671
 3282TIP3    H231262   0.328   4.284   4.096  0.3186  0.3239 -0.1521
 3283TIP3   OH231263   5.626   4.864   1.038 -0.1293  0.3256  0.6575
 3283TIP3    H131264   5.667   4.791   0.991 -0.5417  0.5177 -0.0185
 3283TIP3    H231265   5.668   4.864   1.124  0.3209 -0.3163  0.4460
 3284TIP3   OH231266   4.223   3.186   2.646 -0.5986  0.2857  0.1034
 3284TIP3    H131267   4.284   3.250   2.683 -2.7007  1.7165  1.2960
 3284TIP3    H231268   4.200   3.222   2.560 -0.8389  0.4880  0.2522
 3285TIP3   OH231269   4.164   1.903   2.252  1.4553  0.3482 -0.3047
 3285TIP3    H131270   4.113   1.979   2.279  0.9152 -1.0101  3.0186
 3285TIP3    H231271   4.126   1.878   2.167  2.7913  4.6086 -2.4493
 3286TIP3   OH231272   3.035   2.079   1.750 -0.2046  0.5469 -0.6869
 3286TIP3    H131273   3.112   2.035   1.714 -0.5042  0.7013 -1.5480
 3286TIP3    H231274   2.988   2.009   1.796  1.2494  0.7755  1.3065
 3287TIP3   OH231275   2.502   5.538  13.113 -0.3724 -0.4003 -0.2252
 3287TIP3    H131276   2.538   5.500  13.033 -1.2212  1.4408 -1.5303
 3287TIP3    H231277   2.412   5.561  13.091 -0.6693  0.0256  1.3082
 3288TIP3   OH231278   5.872   6.649   4.982 -0.2199  0.2226 -0.6982
 3288TIP3    H131279   5.800   6.594   4.953 -1.0641  0.7406  0.3616
 3288TIP3    H231280   5.895   6.615   5.069 -1.3281  2.0328  0.3569
 3289TIP3   OH231281   0.628   2.934   4.338 -0.5457 -0.0537  0.1747
 3289TIP3    H131282   0.561   2.977   4.392 -0.9655  0.9533 -1.0887
 3289TIP3    H231283   0.633   2.845   4.373 -1.4241  0.3091  1.3026
 3290TIP3   OH231284   5.877   4.604  11.495 -0.1138  0.2853 -0.6470
 3290TIP3    H131285   5.816   4.565  11.432  0.8516 -1.2676 -0.6966
 3290TIP3    H231286   5.954   4.627  11.442  0.8628 -1.3918 -0.0402
 3291TIP3   OH231287   2.438   3.434   4.453 -0.5510 -0.1949 -0.6519
 3291TIP3    H131288   2.410   3.516   4.493  2.2201  1.3631 -1.6497
 3291TIP3    H231289   2.427   3.448   4.359 -1.4896 -1.5922 -0.7831
 3292TIP3   OH231290   1.125   5.893   5.905  0.7614 -0.0033 -0.1152
 3292TIP3    H131291   1.057   5.907   5.839  1.5760 -0.7214 -1.1640
 3292TIP3    H231292   1.083   5.843   5.974 -0.1400  0.8285 -0.0482
 3293TIP3   OH231293   3.213   3.371   5.176 -0.2141  0.0837 -0.2685
 3293TIP3    H131294   3.286   3.320   5.141 -1.6278 -2.3204  0.0703
 3293TIP3    H231295   3.158   3.390   5.101 -0.1386  0.3869 -0.2518
 3294TIP3   OH231296   5.367   3.495   5.803  0.2603  0.0811 -0.4131
 3294TIP3    H131297   5.441   3.444   5.834  0.6395  2.2856  2.7513
 3294TIP3    H231298   5.304   3.492   5.875 -0.9419  1.6453 -1.3292
 3295TIP3   OH231299   4.193   3.040   0.429 -0.2937  0.0623 -0.1715
 3295TIP3    H131300   4.169   2.950   0.407 -0.2588 -0.3490  1.3000
 3295TIP3    H231301   4.113   3.091   0.413 -0.4355 -0.3007 -0.6352
 3296TIP3   OH231302   5.705   6.435  12.819  0.4401 -0.1903 -0.1760
 3296TIP3    H131303   5.693   6.369  12.751 -0.6584  0.3364 -0.5113
 3296TIP3    H231304   5.774   6.492  12.785  1.1845 -0.9688 -0.0154
 3297TIP3   OH231305   2.856   2.551   0.306  0.3169 -0.1671 -0.2858
 3297TIP3    H131306   2.788   2.565   0.241  0.6475  1.6881 -0.2919
 3297TIP3    H231307   2.850   2.627   0.364  1.0738 -0.9753  0.9188
 3298TIP3   OH231308   6.578   2.898   2.839 -0.0498  0.5260  0.8036
 3298TIP3    H131309   6.486   2.892   2.863 -0.1557 -1.1928  0.0994
 3298TIP3    H231310   6.625   2.893   2.923 -0.5694  1.6406  1.1827
 3299TIP3   OH231311   2.071   3.727  15.331  0.2553 -0.5771  0.1597
 3299TIP3    H131312   2.000   3.677  15.292  1.0150 -0.9639 -0.7671
 3299TIP3    H231313   2.060   3.714  15.426  0.2850 -2.3182 -0.0420
 3300TIP3   OH231314   3.353   5.602   5.970  1.0345  0.3773 -0.6802
 3300TIP3    H131315   3.326   5.691   5.947  0.1989  0.0541 -0.9895
 3300TIP3    H231316   3.419   5.579   5.905  1.0945  0.6885 -0.7288
 3301TIP3   OH231317   4.583   4.855   3.663 -0.3776 -0.2483  0.1007
 3301TIP3    H131318   4.575   4.843   3.758  1.2552 -0.0939  0.2747
 3301TIP3    H231319   4.572   4.950   3.650  0.3780 -0.1324  0.2592
 3302TIP3   OH231320   6.216   2.421  11.424  0.4654 -0.0473 -0.1291
 3302TIP3    H131321   6.264   2.500  11.401 -1.6064  1.0259 -1.1257
 3302TIP3    H231322   6.241   2.357  11.358  1.0434  0.2703 -0.2203
 3303TIP3   OH231323   1.280   1.407  11.099  0.2381 -0.1653  0.2514
 3303TIP3    H131324   1.334   1.446  11.030  2.9000 -0.5892  1.9645
 3303TIP3    H231325   1.295   1.313  11.090  0.0844 -0.2661  0.9822
 3304TIP3   OH231326   4.508   5.367   6.348 -0.2263 -0.6997 -0.2148
 3304TIP3    H131327   4.419   5.336   6.332 -0.1199 -1.5816  0.7775
 3304TIP3    H231328   4.498   5.442   6.405 -0.2853 -1.8321  1.3240
 3305TIP3   OH231329   0.974   1.078   1.161  0.3052 -0.1206 -0.2788
 3305TIP3    H131330   0.896   1.134   1.152 -0.4299 -0.5866  2.1491
 3305TIP3    H231331   0.938   0.992   1.186  1.5748  0.0011  2.2562
 3306TIP3   OH231332   1.783   0.125   1.497  0.1858 -0.0615  0.0084
 3306TIP3    H131333   1.710   0.068   1.523  0.0797 -1.0361 -2.2029
 3306TIP3    H231334   1.861   0.081   1.533 -0.0218 -0.9042 -0.5476
 3307TIP3   OH231335   1.927   4.198   1.774  0.1748  0.2081 -0.1146
 3307TIP3    H131336   1.936   4.144   1.696  0.8167 -0.7869  0.6208
 3307TIP3    H231337   1.833   4.213   1.782  0.1777  1.2879 -1.6919
 3308TIP3   OH231338   1.430   5.226  15.425  0.2354 -0.0506  0.0168
 3308TIP3    H131339   1.398   5.217  15.335  0.8193  0.8830 -0.2989
 3308TIP3    H231340   1.415   5.140  15.465 -0.2417 -0.4048 -0.8981
 3309TIP3   OH231341   4.480   6.279  16.941  0.5337  0.4353 -0.2643
 3309TIP3    H131342   4.400   6.309  16.897 -0.2329 -1.4029 -0.2339
 3309TIP3    H231343   4.520   6.217  16.880  1.1842  0.2881  0.2891
 3310TIP3   OH231344   3.421   1.816  11.957  0.0695  0.1205 -0.4080
 3310TIP3    H131345   3.441   1.723  11.949 -0.8757 -0.0523 -0.8479
 3310TIP3    H231346   3.328   1.823  11.939  0.0388  1.1067  0.0235
 3311TIP3   OH231347   1.468   0.363   5.839 -0.4476 -0.2813 -0.5877
 3311TIP3    H131348   1.438   0.326   5.923  0.5489  0.5611  0.1624
 3311TIP3    H231349   1.536   0.302   5.810  1.7044  1.2148  1.0042
 3312TIP3   OH231350   0.585   0.605  11.462 -0.2574  0.2721 -0.1946
 3312TIP3    H131351   0.592   0.537  11.395 -1.2289  0.6689 -0.7365
 3312TIP3    H231352   0.671   0.608  11.503  0.2604 -0.2211 -1.1990
 3313TIP3   OH231353   4.171   3.999  17.336 -0.3297  0.4932 -0.0925
 3313TIP3    H131354   4.179   3.950  17.418  0.2448 -1.4106 -1.2200
 3313TIP3    H231355   4.203   4.086  17.358 -0.4740  0.1290  1.7815
 3314TIP3   OH231356   5.500   1.185  13.596 -0.4643 -0.1473 -0.4767
 3314TIP3    H131357   5.445   1.132  13.538  0.3485 -1.2355 -0.2927
 3314TIP3    H231358   5.571   1.216  13.540  0.2298 -1.0593 -0.1395
 3315TIP3   OH231359   2.476   0.787  13.736  0.2123  0.5017 -0.3379
 3315TIP3    H131360   2.472   0.706  13.686  0.6286 -0.4643  1.1335
 3315TIP3    H231361   2.568   0.813  13.733  1.0181 -1.4242  2.6204
 3316TIP3   OH231362   0.738   2.893  14.702  0.1364  0.3199 -0.1613
 3316TIP3    H131363   0.648   2.924  14.708  0.5312  1.5606 -0.3085
 3316TIP3    H231364   0.784   2.962  14.655  1.0854 -0.4840 -0.4461
 3317TIP3   OH231365   4.845   5.355   3.190  0.8983 -0.0744 -0.0683
 3317TIP3    H131366   4.756   5.347   3.155  0.8772 -0.2563  0.0257
 3317TIP3    H231367   4.874   5.442   3.163 -0.1052  0.8754  1.7084
 3318TIP3   OH231368   3.104   2.302   4.860  0.0847  0.0721 -0.2436
 3318TIP3    H131369   3.178   2.254   4.823  0.1929  0.3188 -0.3465
 3318TIP3    H231370   3.076   2.362   4.791 -2.1607 -2.1083 -1.3924
 3319TIP3   OH231371   2.615   1.529  14.834  0.0578  0.0079  0.7339
 3319TIP3    H131372   2.618   1.622  14.813 -1.1549 -0.5023 -2.0688
 3319TIP3    H231373   2.690   1.491  14.788 -0.8537 -0.7211 -0.1890
 3320TIP3   OH231374   2.042   6.243  11.273 -0.2274  0.7639 -0.1999
 3320TIP3    H131375   1.986   6.237  11.196  0.8707 -1.7730 -0.9026
 3320TIP3    H231376   1.982   6.261  11.345 -1.5510  0.9575 -1.3043
 3321TIP3   OH231377   0.956   3.088   5.798 -0.1178  0.8199  0.2621
 3321TIP3    H131378   0.988   3.082   5.888 -0.1133 -0.8883  0.1871
 3321TIP3    H231379   1.001   3.017   5.752 -0.6707  1.2016 -0.9113
 3322TIP3   OH231380   3.865   0.007   4.246  0.4654 -0.5947 -0.2688
 3322TIP3    H131381   3.820  -0.037   4.319  0.7516 -2.1485 -0.9781
 3322TIP3    H231382   3.795   0.034   4.187  0.3136 -0.7716 -0.1713
 3323TIP3   OH231383   4.400   2.684  14.605 -0.5784  0.1423 -0.7421
 3323TIP3    H131384   4.359   2.613  14.654 -0.6506 -0.0758 -1.1138
 3323TIP3    H231385   4.490   2.687  14.639 -1.0380  0.9843  0.4601
 3324TIP3   OH231386   0.898   2.761  14.912  0.2304 -1.0037  0.1904
 3324TIP3    H131387   0.978   2.810  14.894 -0.8063 -0.1350 -2.4908
 3324TIP3    H231388   0.830   2.828  14.920 -0.5687 -1.8232  0.4330
 3325TIP3   OH231389   6.643   5.548  12.122 -0.2886 -0.3735  0.0740
 3325TIP3    H131390   6.697   5.617  12.084  2.6723 -2.3409  0.3789
 3325TIP3    H231391   6.628   5.578  12.212  1.0334 -0.1057  0.2363
 3326TIP3   OH231392   1.819   5.752   3.806 -0.0394 -0.6925 -0.2424
 3326TIP3    H131393   1.863   5.810   3.868  1.7879 -1.9187 -0.3034
 3326TIP3    H231394   1.743   5.801   3.777 -0.4360  0.3075  2.2382
 3327TIP3   OH231395   5.152   4.277   2.930  0.3049 -0.6803 -0.4256
 3327TIP3    H131396   5.131   4.334   3.004  2.7291  1.1952 -1.0356
 3327TIP3    H231397   5.077   4.285   2.871 -0.4125  0.0534  0.5641
 3328TIP3   OH231398   4.041   0.331  11.038  0.4392  0.1397  0.2370
 3328TIP3    H131399   3.969   0.275  11.007  0.0168  1.2241 -0.8397
 3328TIP3    H231400   3.997   0.405  11.080  0.9146  0.7129 -0.2500
 3329TIP3   OH231401   2.033   2.612   0.364 -0.5062  0.1082  0.4303
 3329TIP3    H131402   1.940   2.626   0.348 -0.9191 -2.2280  0.5013
 3329TIP3    H231403   2.048   2.649   0.451 -1.0421  1.6368 -0.0874
 3330TIP3   OH231404   6.309   4.782   1.778  0.3239 -0.7101 -0.0202
 3330TIP3    H131405   6.377   4.727   1.738 -0.0357 -0.1910 -1.3966
 3330TIP3    H231406   6.231   4.766   1.724 -0.4718 -0.7784  1.1305
 3331TIP3   OH231407   4.756   5.021   2.024 -0.1933  0.6485  0.0137
 3331TIP3    H131408   4.829   4.968   2.056  0.5303  1.1001 -0.7998
 3331TIP3    H231409   4.739   5.084   2.094  0.4452  0.7649  0.0683
 3332TIP3   OH231410   5.063   6.213  17.377  0.7715  0.2316 -0.8761
 3332TIP3    H131411   5.144   6.263  17.390  1.0792 -0.5193  0.2603
 3332TIP3    H231412   5.041   6.227  17.285  3.5093 -1.4853 -1.9140
 3333TIP3   OH231413   6.197   6.669  11.969  0.5344  0.2666  0.0732
 3333TIP3    H131414   6.139   6.593  11.978  0.9674 -0.1621 -0.6827
 3333TIP3    H231415   6.154   6.725  11.905  0.9242 -0.0239 -0.4453
 3334TIP3   OH231416   5.064   6.713  12.333  0.1840  0.7145  0.2729
 3334TIP3    H131417   5.049   6.673  12.247 -1.5925  1.8118  0.0293
 3334TIP3    H231418   4.997   6.675  12.390 -1.2686  2.8768  0.1422
 3335TIP3   OH231419   0.009   0.066  14.775 -0.3395  0.4279  0.7013
 3335TIP3    H131420  -0.055   0.104  14.715  0.1299 -0.8359 -0.6697
 3335TIP3    H231421   0.086   0.122  14.766 -1.1262  1.8425  2.2166
 3336TIP3   OH231422   3.929   0.530   3.549  0.1739  0.6883 -0.1213
 3336TIP3    H131423   3.924   0.612   3.500  0.8816  1.5370  1.1644
 3336TIP3    H231424   3.952   0.464   3.484  1.4370  1.8388 -0.8839
 3337TIP3   OH231425   6.711   4.090   2.895 -0.5714  0.0567  0.1652
 3337TIP3    H131426   6.798   4.058   2.919  0.0076  2.9168  2.3699
 3337TIP3    H231427   6.719   4.114   2.802  1.2635  0.9970  0.5223
 3338TIP3   OH231428   0.096   2.940   0.192 -0.1021 -0.8768  0.7141
 3338TIP3    H131429   0.104   2.940   0.287  0.0788 -0.9573  0.6984
 3338TIP3    H231430   0.177   2.980   0.161 -0.8559  0.6721  0.6468
 3339TIP3   OH231431   4.465   6.562  13.044  0.2706  0.1634  0.1934
 3339TIP3    H131432   4.472   6.570  13.140  1.6589  0.8553  0.0609
 3339TIP3    H231433   4.555   6.547  13.015  0.0930  1.4251 -1.1278
 3340TIP3   OH231434   5.063   5.980  11.292 -0.2948  0.2758 -0.1075
 3340TIP3    H131435   5.067   5.945  11.203 -2.0050  1.4222 -0.6799
 3340TIP3    H231436   5.004   5.921  11.339  0.7545 -0.4403  0.3641
 3341TIP3   OH231437   1.925   0.692   4.603 -0.1386  0.0516  0.0540
 3341TIP3    H131438   1.971   0.768   4.638  1.2609 -0.6522 -0.1948
 3341TIP3    H231439   1.838   0.726   4.579 -0.7077  0.8692  2.8726
 3342TIP3   OH231440   3.933   0.293  16.029  0.3118 -0.1670  0.3489
 3342TIP3    H131441   4.027   0.275  16.022  0.6672  1.7370 -0.5524
 3342TIP3    H231442   3.918   0.310  16.122  0.7589 -0.9003  0.5621
 3343TIP3   OH231443   6.472   3.739  15.092 -0.3569  0.0658 -0.6159
 3343TIP3    H131444   6.432   3.824  15.109 -0.6883  0.0195 -1.1291
 3343TIP3    H231445   6.566   3.756  15.092 -0.4142  0.3779 -0.4347
 3344TIP3   OH231446   5.992   4.215   4.521  0.4467  0.0710  0.7284
 3344TIP3    H131447   5.910   4.186   4.480  1.0270  0.6847 -0.9540
 3344TIP3    H231448   6.044   4.135   4.530  0.3210 -0.0708  0.2237
 3345TIP3   OH231449   1.926   1.164  13.391 -0.0712  0.0112  0.2153
 3345TIP3    H131450   1.982   1.109  13.337 -2.4666  0.2256 -2.7544
 3345TIP3    H231451   1.963   1.252  13.383  0.3385 -0.1800  0.0172
 3346TIP3   OH231452   5.687   3.955   6.321 -0.2400 -0.1356 -0.3002
 3346TIP3    H131453   5.713   4.041   6.286  0.0333 -0.2409 -0.3555
 3346TIP3    H231454   5.767   3.903   6.318 -0.1581 -0.0741  0.6944
 3347TIP3   OH231455   6.470   3.288   4.960 -0.3737 -0.0811 -0.1467
 3347TIP3    H131456   6.501   3.201   4.935 -0.3879 -0.1569  0.0974
 3347TIP3    H231457   6.521   3.348   4.906 -0.1934 -0.2319 -0.1439
 3348TIP3   OH231458   3.165   3.837  13.103  0.5209 -0.2368  0.2245
 3348TIP3    H131459   3.123   3.884  13.031  1.3560  1.6175  0.8677
 3348TIP3    H231460   3.093   3.790  13.146  0.0642 -1.6319 -1.9315
 3349TIP3   OH231461   4.722   2.375   3.453  0.2057 -0.1935 -0.5799
 3349TIP3    H131462   4.790   2.424   3.407 -0.3609  1.3234  0.1563
 3349TIP3    H231463   4.770   2.317   3.512  0.8906 -0.7295 -1.6375
 3350TIP3   OH231464   3.559   5.249  14.756 -0.5259 -0.3369  0.3350
 3350TIP3    H131465   3.528   5.272  14.668  0.9899 -1.9624 -0.6885
 3350TIP3    H231466   3.487   5.198  14.794 -1.2154  0.4251  0.0856
 3351TIP3   OH231467   2.248   2.794  15.068  0.5871 -0.1040 -0.2134
 3351TIP3    H131468   2.221   2.723  15.010 -1.0451  0.6908 -0.4738
 3351TIP3    H231469   2.324   2.759  15.115 -0.6253 -2.3011  0.2293
 3352TIP3   OH231470   5.347   3.015   2.693 -0.5571  0.0522  0.3800
 3352TIP3    H131471   5.371   3.031   2.784 -1.0357 -1.7651  0.8459
 3352TIP3    H231472   5.283   2.944   2.696 -1.5228  0.7792 -1.2948
 3353TIP3   OH231473   4.656   6.711  16.884  0.8226 -0.0529 -0.0969
 3353TIP3    H131474   4.605   6.787  16.912 -0.1919 -0.7810  0.0718
 3353TIP3    H231475   4.747   6.736  16.902  0.4605  0.8880  0.5199
 3354TIP3   OH231476   5.704   0.447  13.222  0.1656 -0.5099 -0.1471
 3354TIP3    H131477   5.724   0.356  13.244 -0.0182 -0.9733 -1.7522
 3354TIP3    H231478   5.666   0.442  13.134  0.0091  1.1067 -0.1905
 3355TIP3   OH231479   1.339   0.705  15.499 -0.4632 -0.3100 -0.2449
 3355TIP3    H131480   1.296   0.671  15.578  0.6375  0.6904  0.8277
 3355TIP3    H231481   1.268   0.747  15.450 -1.0598 -0.4392  0.4793
 3356TIP3   OH231482   5.700   3.238  11.715  0.3878 -0.0292 -0.3716
 3356TIP3    H131483   5.607   3.224  11.698  0.2676  0.6978 -0.3374
 3356TIP3    H231484   5.702   3.269  11.806  0.7696 -1.1447  0.0163
 3357TIP3   OH231485   2.511   5.653  14.442 -0.0371 -0.0052  0.3385
 3357TIP3    H131486   2.540   5.718  14.378  0.5904 -1.8161 -1.3009
 3357TIP3    H231487   2.581   5.652  14.507  0.4635  0.2080 -0.1884
 3358TIP3   OH231488   5.234   1.642  13.746  0.3598 -0.0299 -0.0060
 3358TIP3    H131489   5.273   1.566  13.704  2.7473  0.1930  1.6585
 3358TIP3    H231490   5.304   1.679  13.800  0.6847  5.4842 -3.3491
 3359TIP3   OH231491   3.352   3.451  15.088  0.6328  0.2915 -0.0484
 3359TIP3    H131492   3.419   3.422  15.027 -0.6752 -1.9306 -0.5611
 3359TIP3    H231493   3.271   3.454  15.036 -0.0583  0.8179  1.0101
 3360TIP3   OH231494   3.518   0.001   1.203  0.3020 -0.5757 -0.4333
 3360TIP3    H131495   3.512  -0.080   1.254 -0.4620 -0.3964 -0.2137
 3360TIP3    H231496   3.516  -0.027   1.112 -1.1012 -0.7569 -0.3696
 3361TIP3   OH231497   6.022   6.169  11.347 -0.2531 -0.2295  0.4757
 3361TIP3    H131498   5.927   6.163  11.335 -0.1024 -2.9701 -0.1077
 3361TIP3    H231499   6.058   6.117  11.275  1.8849  2.8974 -0.9034
 3362TIP3   OH231500   5.756   4.644  14.857  0.1661  0.4648 -0.1312
 3362TIP3    H131501   5.757   4.636  14.761  0.6865  0.9129 -0.1718
 3362TIP3    H231502   5.822   4.711  14.876 -0.2637  0.7195  0.5129
 3363TIP3   OH231503   1.829   2.522   5.549  0.1561 -0.3533  0.0859
 3363TIP3    H131504   1.785   2.562   5.474 -0.0542  0.4155  0.6115
 3363TIP3    H231505   1.920   2.549   5.541  0.4868 -1.6765 -0.8225
 3364TIP3   OH231506   1.023   3.640  11.463  0.1863  0.2222 -0.2248
 3364TIP3    H131507   1.069   3.693  11.398  0.7815 -0.3290 -0.2668
 3364TIP3    H231508   0.979   3.572  11.413 -1.5109  1.2924 -0.2839
 3365TIP3   OH231509   5.188   5.403   1.330  0.4809  0.8890 -0.0233
 3365TIP3    H131510   5.159   5.341   1.262  2.4852  0.2299 -0.3445
 3365TIP3    H231511   5.118   5.400   1.395 -0.9423  0.6382 -1.4798
 3366TIP3   OH231512   3.280   5.880  10.614  0.1980 -0.0539 -0.2585
 3366TIP3    H131513   3.234   5.960  10.642 -0.2437 -0.4168  0.0662
 3366TIP3    H231514   3.298   5.895  10.521  0.2433  0.4827 -0.1702
 3367TIP3   OH231515   2.335   5.078  13.089 -0.5486 -0.1713  0.0452
 3367TIP3    H131516   2.369   5.083  13.000  0.1866 -0.4191  0.3086
 3367TIP3    H231517   2.366   5.158  13.131 -1.0401  0.0292  0.0330
 3368TIP3   OH231518   6.463   6.451  13.130  0.0386 -0.5317 -0.1278
 3368TIP3    H131519   6.491   6.417  13.045  0.3705 -0.3450 -0.0963
 3368TIP3    H231520   6.371   6.427  13.137  0.4850 -2.2310  0.2939
 3369TIP3   OH231521   5.588   3.390  13.637  0.6803  0.1274  0.2513
 3369TIP3    H131522   5.531   3.317  13.614  0.9849  0.1262 -0.5235
 3369TIP3    H231523   5.673   3.350  13.655  1.3997  0.4272 -2.1250
 3370TIP3   OH231524   1.383   5.578   4.563 -0.2286  0.2208  0.1541
 3370TIP3    H131525   1.319   5.516   4.526  0.5803 -0.7323  0.3104
 3370TIP3    H231526   1.428   5.528   4.631  0.0205  1.1900  0.7119
 3371TIP3   OH231527   0.633   2.370  12.431 -0.2268 -0.2232  0.0218
 3371TIP3    H131528   0.700   2.320  12.384 -0.2526 -0.0991 -0.1480
 3371TIP3    H231529   0.573   2.400  12.362 -0.3037 -0.0998  0.1419
 3372TIP3   OH231530   2.762   6.544  11.389  0.3125 -0.6742 -0.0178
 3372TIP3    H131531   2.694   6.558  11.455  0.9234 -0.3351  0.5535
 3372TIP3    H231532   2.810   6.467  11.420 -0.2480 -1.3618 -0.8040
 3373TIP3   OH231533   4.300   4.086  15.285 -0.3413  0.6433 -0.0587
 3373TIP3    H131534   4.210   4.057  15.298 -0.4446  0.9600 -0.0769
 3373TIP3    H231535   4.294   4.179  15.265 -0.1220  0.3980 -1.4188
 3374TIP3   OH231536   2.112   0.284   3.688 -0.6611 -0.8197 -0.1921
 3374TIP3    H131537   2.068   0.362   3.654  0.5894 -0.1284 -0.2926
 3374TIP3    H231538   2.171   0.257   3.617  2.1716  0.7739  1.3767
 3375TIP3   OH231539   0.037   2.429  13.735 -0.4761  0.2733 -0.3756
 3375TIP3    H131540  -0.011   2.503  13.699 -1.7903  0.4506  1.6013
 3375TIP3    H231541   0.013   2.427  13.827  1.6491 -0.9879  0.2225
 3376TIP3   OH231542   2.069   4.918  12.409  0.5718 -0.1557  0.3390
 3376TIP3    H131543   2.013   4.990  12.437  0.9268 -0.0569  0.8008
 3376TIP3    H231544   2.159   4.949  12.425  0.7086 -0.9997  1.3097
 3377TIP3   OH231545   4.804   1.079  14.198 -0.0618 -0.0541  0.4247
 3377TIP3    H131546   4.726   1.126  14.169  0.4757 -0.1567 -1.3318
 3377TIP3    H231547   4.818   1.109  14.288 -0.9169  1.5491  0.0720
 3378TIP3   OH231548   3.212   2.239  15.209  0.3490  0.2372 -0.0641
 3378TIP3    H131549   3.272   2.289  15.154 -1.4434  3.1445  0.4058
 3378TIP3    H231550   3.261   2.223  15.290  1.0041  1.2520 -0.2432
 3379TIP3   OH231551   5.137   6.153   4.929 -0.4345 -0.1472 -0.1245
 3379TIP3    H131552   5.141   6.091   4.856 -0.2873 -2.4348  1.7083
 3379TIP3    H231553   5.222   6.198   4.927 -0.5253 -0.0040 -1.4679
 3380TIP3   OH231554   0.629   3.540   2.503  0.0971 -0.3546  0.0902
 3380TIP3    H131555   0.614   3.634   2.511  0.9044 -0.2820  0.9418
 3380TIP3    H231556   0.722   3.528   2.525  0.3913 -1.1859 -1.4545
 3381TIP3   OH231557   1.522   2.283  14.488  0.2804  0.0664  0.2752
 3381TIP3    H131558   1.604   2.333  14.486  0.4203 -0.1690 -1.6968
 3381TIP3    H231559   1.453   2.349  14.476  0.3762  0.0004 -0.7787
 3382TIP3   OH231560   3.235   0.740   0.736  0.1941 -0.1582 -0.3007
 3382TIP3    H131561   3.318   0.701   0.710 -0.5987 -1.7310 -0.6323
 3382TIP3    H231562   3.217   0.807   0.670  0.2260 -1.2277 -1.4374
 3383TIP3   OH231563   0.293   0.088   4.586 -0.7130 -0.2475  0.5268
 3383TIP3    H131564   0.280   0.112   4.495  1.9071  0.5361  0.2961
 3383TIP3    H231565   0.303  -0.007   4.584  1.6093 -0.0447 -0.3966
 3384TIP3   OH231566   2.805   6.091  14.435 -0.2228  0.1316  0.5758
 3384TIP3    H131567   2.774   6.165  14.382 -1.6775 -0.1602  0.9769
 3384TIP3    H231568   2.890   6.119  14.468 -0.2614  1.1840 -0.1730
 3385TIP3   OH231569   1.332   0.096  12.556 -0.6219 -0.0138  0.0189
 3385TIP3    H131570   1.284   0.013  12.549  0.7344 -0.8612  0.4951
 3385TIP3    H231571   1.360   0.100  12.647  0.8995  0.0616 -0.4280
 3386TIP3   OH231572   4.646   4.167  11.826  0.2402  0.2193  0.0214
 3386TIP3    H131573   4.603   4.179  11.910 -1.3350 -0.9040 -0.5891
 3386TIP3    H231574   4.663   4.256  11.795 -1.2870  0.7006  0.4799
 3387TIP3   OH231575   6.603   4.431  10.940 -0.3793  0.4383  0.1201
 3387TIP3    H131576   6.638   4.361  10.995 -1.0473 -0.7005 -0.8650
 3387TIP3    H231577   6.508   4.417  10.941 -0.4238  0.5527 -1.0847
 3388TIP3   OH231578   3.521   3.556   4.087  0.3416  0.0796 -0.2541
 3388TIP3    H131579   3.576   3.580   4.013 -1.1615  1.1681 -1.0863
 3388TIP3    H231580   3.523   3.460   4.089  1.4734  0.0803 -0.8491
 3389TIP3   OH231581   5.313   5.494   3.295  0.0091  0.1167 -0.5263
 3389TIP3    H131582   5.362   5.576   3.283 -1.3328  1.2821  1.4078
 3389TIP3    H231583   5.377   5.434   3.334  1.2045 -0.0495 -2.6126
 3390TIP3   OH231584   5.794   4.274   3.233  0.5728  0.0821 -0.1377
 3390TIP3    H131585   5.710   4.242   3.267  0.4709 -0.6338 -1.0025
 3390TIP3    H231586   5.848   4.195   3.225  1.8163  0.6952  1.6421
 3391TIP3   OH231587   1.712   0.253   3.769 -0.0668  0.3514  0.1636
 3391TIP3    H131588   1.641   0.265   3.832 -2.3152 -0.0306 -2.1423
 3391TIP3    H231589   1.689   0.311   3.696  1.3772 -0.6537 -1.1529
 3392TIP3   OH231590   3.355   0.461   3.333  0.4809 -0.3849  0.2915
 3392TIP3    H131591   3.393   0.478   3.247  1.2067 -0.2500  0.6273
 3392TIP3    H231592   3.290   0.530   3.345  1.3092  0.3998  0.3998
 3393TIP3   OH231593   4.374   5.152  15.993  0.0823  0.1458  0.6923
 3393TIP3    H131594   4.344   5.062  16.002 -2.1154  0.7532  0.0065
 3393TIP3    H231595   4.392   5.181  16.083 -0.0944 -0.6614  0.9954
 3394TIP3   OH231596   4.451   0.823  11.379  0.2865  0.2118 -0.1416
 3394TIP3    H131597   4.383   0.766  11.343  0.7179 -0.6363  0.3698
 3394TIP3    H231598   4.433   0.909  11.340 -0.3179 -0.2852 -0.9913
 3395TIP3   OH231599   4.278   6.420   2.133 -0.2752 -0.2814 -0.4915
 3395TIP3    H131600   4.208   6.356   2.141 -0.3565 -0.0432  0.7863
 3395TIP3    H231601   4.238   6.503   2.157 -0.1364  0.2518 -2.0134
 3396TIP3   OH231602   4.218   3.735  14.602 -0.3175 -0.2759 -0.2785
 3396TIP3    H131603   4.148   3.794  14.574 -1.1863 -0.4771  1.3432
 3396TIP3    H231604   4.193   3.650  14.568  0.1443 -0.0183 -1.3086
 3397TIP3   OH231605   2.315   2.930  16.058 -0.0675  0.1287  0.4725
 3397TIP3    H131606   2.393   2.919  16.111  0.3531 -0.8530 -0.3183
 3397TIP3    H231607   2.344   2.979  15.981  0.3026 -2.0498 -0.8645
 3398TIP3   OH231608   5.333   5.129   5.544  0.0742 -0.2600 -0.3535
 3398TIP3    H131609   5.391   5.145   5.619 -0.5833  0.6168 -0.0206
 3398TIP3    H231610   5.392   5.130   5.469  1.0124 -2.7286  0.2155
 3399TIP3   OH231611   4.207   0.959   3.847 -0.5385  0.1528 -0.9801
 3399TIP3    H131612   4.202   0.944   3.941 -3.0198 -3.1086 -1.4632
 3399TIP3    H231613   4.280   0.904   3.817  1.0986  2.1692 -0.9253
 3400TIP3   OH231614   0.965   0.058   4.880  1.0636 -0.1557 -0.6142
 3400TIP3    H131615   1.039   0.007   4.846  1.3259 -0.4297  0.3561
 3400TIP3    H231616   0.912   0.077   4.802  1.5352 -0.9614 -1.1488
 3401TIP3   OH231617   4.334   3.272   0.325  0.0918  0.2924 -0.5829
 3401TIP3    H131618   4.384   3.274   0.244  0.7956  1.3639 -0.1502
 3401TIP3    H231619   4.319   3.179   0.343 -0.6147  0.0565 -2.2399
 3402TIP3   OH231620   3.703   5.151   4.947 -0.2768  0.1347 -0.0522
 3402TIP3    H131621   3.608   5.140   4.958 -0.0069 -1.0065  1.3499
 3402TIP3    H231622   3.737   5.062   4.937  0.7405  0.4856  0.1839
 3403TIP3   OH231623   4.535   4.743  12.812  0.2222  0.0388 -0.0618
 3403TIP3    H131624   4.469   4.761  12.745 -1.0110 -0.9526  0.8530
 3403TIP3    H231625   4.562   4.830  12.842 -0.2196  0.4678 -0.8703
 3404TIP3   OH231626   5.106   5.517   2.513 -0.0066 -0.2876  0.2733
 3404TIP3    H131627   5.200   5.497   2.515 -0.1968 -1.7111 -1.8050
 3404TIP3    H231628   5.080   5.497   2.423 -1.8068  2.5540  0.0615
 3405TIP3   OH231629   6.729   5.486  11.064  0.1895  0.0556 -0.4602
 3405TIP3    H131630   6.640   5.517  11.076  0.1957 -0.1336  0.1553
 3405TIP3    H231631   6.747   5.498  10.971 -2.1820 -4.4035 -1.7563
 3406TIP3   OH231632   4.232   3.498   4.822  0.3007  0.0315 -0.1072
 3406TIP3    H131633   4.178   3.419   4.825 -0.7203  0.6994 -0.5856
 3406TIP3    H231634   4.309   3.472   4.770  0.5341 -0.9615  0.6994
 3407TIP3   OH231635   6.527   2.970   6.141 -0.2870 -0.1390 -0.1820
 3407TIP3    H131636   6.436   2.950   6.120 -0.4152  0.4565 -0.2335
 3407TIP3    H231637   6.569   2.982   6.056  0.4379 -2.7583 -0.2806
 3408TIP3   OH231638   0.552   6.630   1.165  0.5094  0.1061 -0.1857
 3408TIP3    H131639   0.529   6.689   1.237  0.1331  2.9447 -2.4636
 3408TIP3    H231640   0.602   6.560   1.207  0.3421  1.6233  2.8177
 3409TIP3   OH231641   4.950   5.328  11.661  0.0539 -0.0167  0.0750
 3409TIP3    H131642   4.952   5.415  11.621 -0.0850  0.3911  0.9277
 3409TIP3    H231643   5.043   5.303  11.665  0.0798 -0.0070 -0.3676
 3410TIP3   OH231644   3.536   1.304   1.805  0.0789  0.1540  0.0755
 3410TIP3    H131645   3.619   1.341   1.775 -0.0970  0.4721 -0.0128
 3410TIP3    H231646   3.547   1.209   1.794 -0.4725  0.3218 -2.2878
 3411TIP3   OH231647   5.335   5.036  15.874  0.6603  0.5104  0.0722
 3411TIP3    H131648   5.390   5.108  15.841  0.5762  0.0136 -1.2361
 3411TIP3    H231649   5.359   5.027  15.966 -0.2181  3.0086  0.6008
 3412TIP3   OH231650   2.777   0.067  13.926  0.0739  0.4833  0.0775
 3412TIP3    H131651   2.709   0.072  13.858 -2.3123 -1.4361  2.1072
 3412TIP3    H231652   2.799   0.159  13.943 -1.7929  1.1890 -0.9103
 3413TIP3   OH231653   1.949   0.268   3.972 -0.2368  0.1967  0.3789
 3413TIP3    H131654   1.874   0.301   3.923 -0.7772 -1.2892  0.1439
 3413TIP3    H231655   2.012   0.241   3.905 -0.2108 -0.1299  0.5290
 3414TIP3   OH231656   1.070   3.010  14.888  0.4755 -0.5415 -0.1632
 3414TIP3    H131657   1.055   3.100  14.858 -1.1061 -0.2658  1.2588
 3414TIP3    H231658   1.137   3.018  14.955 -1.8362  0.1460  2.2299
 3415TIP3   OH231659   5.910   4.934   1.597 -0.1272  0.2874 -0.5503
 3415TIP3    H131660   5.947   4.937   1.685  0.8447  1.3844 -0.9669
 3415TIP3    H231661   5.881   4.843   1.586  1.4619 -0.3552  0.2161
 3416TIP3   OH231662   6.677   0.048  14.077  0.4984  0.0748 -0.5164
 3416TIP3    H131663   6.661  -0.033  14.124  0.5146  0.7477  0.6744
 3416TIP3    H231664   6.614   0.047  14.005  0.6530 -1.0876 -0.6409
 3417TIP3   OH231665   2.072   4.244  14.007  0.1324  0.1106 -0.4419
 3417TIP3    H131666   2.107   4.304  14.073 -0.0242  0.9859 -1.1296
 3417TIP3    H231667   2.120   4.266  13.927 -0.2824 -0.3402 -0.8188
 3418TIP3   OH231668   6.426   3.495  15.008 -1.0372  0.1912 -0.1949
 3418TIP3    H131669   6.416   3.506  14.914 -0.5728 -2.1181 -0.5789
 3418TIP3    H231670   6.467   3.576  15.038  2.1019 -0.3005 -2.5881
 3419TIP3   OH231671   3.983   5.278  14.117  1.0090  0.3674  0.2874
 3419TIP3    H131672   3.975   5.215  14.046 -0.9652  1.0932 -0.1892
 3419TIP3    H231673   4.077   5.279  14.138  1.0465 -3.2771  0.8799
 3420TIP3   OH231674   4.495   1.887  14.776  0.3258  0.5278  0.0467
 3420TIP3    H131675   4.544   1.853  14.701  1.9373  3.2619 -0.2588
 3420TIP3    H231676   4.430   1.946  14.738 -2.5183 -1.9734  0.5541
 3421TIP3   OH231677   0.661   5.977  13.680 -0.0732 -0.0099  0.7001
 3421TIP3    H131678   0.741   6.030  13.677  0.3764 -0.6351 -2.1882
 3421TIP3    H231679   0.592   6.039  13.702  0.8006  1.2742  0.0084
 3422TIP3   OH231680   2.567   3.687  17.230  0.4244  0.1517  0.2741
 3422TIP3    H131681   2.510   3.706  17.305 -0.7292 -0.2660 -0.4667
 3422TIP3    H231682   2.654   3.677  17.268 -0.2185 -0.5629  1.6366
 3423TIP3   OH231683   3.578   3.550  16.301 -0.4261  1.2435 -0.4104
 3423TIP3    H131684   3.535   3.588  16.378 -0.3121  0.6319 -0.0382
 3423TIP3    H231685   3.515   3.486  16.268  0.0173  0.6621 -0.1307
 3424TIP3   OH231686   4.439   5.198  16.277 -0.5347 -0.4659  0.2062
 3424TIP3    H131687   4.363   5.184  16.334 -0.1025 -1.3621  0.5824
 3424TIP3    H231688   4.510   5.217  16.338 -1.0046  3.4791 -0.2313
 3425TIP3   OH231689   6.607   3.292   1.597 -0.0333  0.2335  0.1425
 3425TIP3    H131690   6.613   3.321   1.688  0.2129  1.1090 -0.1413
 3425TIP3    H231691   6.553   3.359   1.554 -1.9618 -1.2744  0.0881
 3426TIP3   OH231692   3.388   1.892  13.297  0.1460  0.6946 -0.3103
 3426TIP3    H131693   3.442   1.956  13.344  0.9215 -0.1143 -0.0588
 3426TIP3    H231694   3.407   1.908  13.204  2.8538 -1.1637 -0.2193
 3427TIP3   OH231695   5.686   1.719   0.260 -0.3961  0.1241 -0.2022
 3427TIP3    H131696   5.629   1.763   0.198 -1.0729  0.7892  0.8689
 3427TIP3    H231697   5.773   1.756   0.244 -0.9002  1.6864  0.4783
 3428TIP3   OH231698   3.094   0.948  13.453 -1.0299  0.1434  0.1290
 3428TIP3    H131699   3.038   0.921  13.526 -1.7051  0.3793 -0.2936
 3428TIP3    H231700   3.088   1.043  13.452  0.4835  0.2855  0.9285
 3429TIP3   OH231701   3.708   5.354  15.113 -0.0669 -0.2873 -0.1047
 3429TIP3    H131702   3.744   5.266  15.100  0.9174  0.1452 -0.4324
 3429TIP3    H231703   3.770   5.396  15.172 -0.9907 -0.0844  0.7383
 3430TIP3   OH231704   3.431   2.174  13.422 -0.1496  0.7812 -0.3404
 3430TIP3    H131705   3.364   2.118  13.461  1.1295 -1.0512 -0.6111
 3430TIP3    H231706   3.404   2.185  13.331 -1.0589  1.6951  0.0230
 3431TIP3   OH231707   0.529   5.337  11.123  0.6548  0.0516  0.3135
 3431TIP3    H131708   0.595   5.278  11.085 -0.5106 -0.8209 -0.4216
 3431TIP3    H231709   0.460   5.279  11.154  0.6150  0.8953  1.9192
 3432TIP3   OH231710   5.831   2.663  14.708 -0.5818  0.0756  0.2033
 3432TIP3    H131711   5.746   2.636  14.673  0.1791 -1.5031 -0.5170
 3432TIP3    H231712   5.893   2.642  14.639  0.6452 -0.6668  1.4911
 3433TIP3   OH231713   3.915   5.779   2.537 -0.6131 -0.1205 -0.4947
 3433TIP3    H131714   3.932   5.738   2.622 -0.8830  0.5900 -0.0858
 3433TIP3    H231715   4.002   5.798   2.502 -0.4952  0.6299  0.1583
 3434TIP3   OH231716   5.983   0.759  10.477 -0.1556 -0.8959 -0.6753
 3434TIP3    H131717   5.896   0.799  10.473 -0.0538 -0.7852 -2.4181
 3434TIP3    H231718   6.021   0.793  10.558 -1.4127 -0.2721 -0.3241
 3435TIP3   OH231719   3.315   1.257   5.834  0.4358 -0.3458 -0.0267
 3435TIP3    H131720   3.320   1.266   5.929  1.5735 -0.0708 -0.0955
 3435TIP3    H231721   3.333   1.165   5.818  0.0506 -0.4335  0.0270
 3436TIP3   OH231722   3.723   1.245   3.891 -0.5069 -0.0123  0.0375
 3436TIP3    H131723   3.817   1.229   3.906 -0.3344  1.3670  0.5700
 3436TIP3    H231724   3.704   1.202   3.808  0.4781 -0.7433  0.1683
 3437TIP3   OH231725   6.721   1.036   0.098  0.1168 -0.1480  0.1055
 3437TIP3    H131726   6.714   0.941   0.087  0.3349 -0.0505 -0.9492
 3437TIP3    H231727   6.662   1.056   0.171 -0.4837 -1.0023 -0.1316
 3438TIP3   OH231728   4.511   4.958   6.162 -0.0794  0.3240  0.3058
 3438TIP3    H131729   4.567   4.890   6.199  0.2174 -0.5826 -1.7103
 3438TIP3    H231730   4.515   5.029   6.226  2.9882  0.1019  0.5115
 3439TIP3   OH231731   1.949   4.082   1.530 -0.0845 -0.1054  0.7097
 3439TIP3    H131732   1.901   4.000   1.521  2.0813 -1.5129  1.1411
 3439TIP3    H231733   1.954   4.118   1.441 -1.6947 -0.0167  0.6377
 3440TIP3   OH231734   5.823   4.018   0.549 -0.2840 -0.0886 -0.7605
 3440TIP3    H131735   5.847   3.949   0.611 -2.3631 -0.7788 -0.6449
 3440TIP3    H231736   5.905   4.063   0.530  1.0166 -2.1416 -0.2906
 3441TIP3   OH231737   1.280   6.567   4.016  0.4282 -0.3051 -0.2094
 3441TIP3    H131738   1.375   6.563   4.015  0.5736  1.7886 -0.7312
 3441TIP3    H231739   1.255   6.532   4.101  1.5529 -2.1207 -0.5836
 3442TIP3   OH231740   5.054   3.214  16.794 -0.1015  0.1053  0.3012
 3442TIP3    H131741   5.087   3.130  16.826 -1.3813 -0.0008  1.4918
 3442TIP3    H231742   4.982   3.235  16.854  0.4246  2.2422  0.2585
 3443TIP3   OH231743   0.217   6.153   3.563  0.0359 -0.0746  0.0340
 3443TIP3    H131744   0.281   6.102   3.613  1.0837 -0.1395 -1.3138
 3443TIP3    H231745   0.268   6.221   3.519 -1.1018  1.0729  0.4122
 3444TIP3   OH231746   5.762   2.180  11.977 -0.0799  0.0423 -0.2969
 3444TIP3    H131747   5.836   2.120  11.975  0.5047  0.7127  0.2416
 3444TIP3    H231748   5.709   2.150  12.051  0.6276  0.6320  0.4784
 3445TIP3   OH231749   2.004   3.422   1.589 -0.4908 -0.2229  0.0497
 3445TIP3    H131750   2.096   3.396   1.576 -0.4580 -0.2795  0.3896
 3445TIP3    H231751   1.965   3.413   1.502  0.2618  1.5837 -0.5204
 3446TIP3   OH231752   4.520   1.126  17.264 -0.2376  0.3742 -0.2759
 3446TIP3    H131753   4.519   1.140  17.359  0.0269 -1.0922 -0.0278
 3446TIP3    H231754   4.608   1.094  17.246 -1.0510 -1.8843 -0.5753
 3447TIP3   OH231755   2.689   2.847   2.110 -0.2269 -0.1027 -0.2703
 3447TIP3    H131756   2.754   2.777   2.108  0.5163  0.4230  2.1625
 3447TIP3    H231757   2.717   2.908   2.042 -0.7266 -1.9319 -2.2339
 3448TIP3   OH231758   3.133   5.899  13.864  0.2438 -0.1999  0.0774
 3448TIP3    H131759   3.085   5.982  13.864  1.3098  0.4280  0.5678
 3448TIP3    H231760   3.074   5.838  13.910 -1.8327 -0.5392 -2.7294
 3449TIP3   OH231761   3.262   1.418   3.190  0.6269  0.4531 -0.0318
 3449TIP3    H131762   3.200   1.490   3.176  1.1432  0.6888 -1.2072
 3449TIP3    H231763   3.340   1.460   3.226  1.6151  0.8103 -2.4251
 3450TIP3   OH231764   2.637   0.794  11.430  0.0021  0.0243  0.9705
 3450TIP3    H131765   2.716   0.819  11.381 -0.0824  1.4608  1.5141
 3450TIP3    H231766   2.573   0.861  11.407 -0.0325  0.7636  3.0081
 3451TIP3   OH231767   3.966   3.150   0.332 -0.1467  0.1006  0.3289
 3451TIP3    H131768   3.940   3.060   0.312  0.0831  0.6939 -3.3434
 3451TIP3    H231769   3.927   3.202   0.261  3.7218  2.1900 -0.5435
 3452TIP3   OH231770   5.997   1.576   2.636  0.3980  0.3403  0.2897
 3452TIP3    H131771   6.053   1.652   2.654  1.2800  0.3375 -1.9840
 3452TIP3    H231772   6.058   1.509   2.603 -0.7830  0.0110 -1.3800
 3453TIP3   OH231773   6.294   0.973  14.736 -0.1136 -0.0712 -0.1942
 3453TIP3    H131774   6.322   0.983  14.644 -1.8829 -0.9661 -0.8721
 3453TIP3    H231775   6.210   1.018  14.741 -0.2273 -0.3798  0.8961
 3454TIP3   OH231776   0.400   3.222  12.440 -0.1383  0.0973 -0.3418
 3454TIP3    H131777   0.460   3.238  12.512 -0.0032  1.8154 -0.7931
 3454TIP3    H231778   0.362   3.136  12.459  0.8672 -0.0688  1.0603
 3455TIP3   OH231779   2.654   6.675   5.766 -0.8438  0.3373 -0.1256
 3455TIP3    H131780   2.692   6.726   5.838 -1.1884  1.6985 -0.8757
 3455TIP3    H231781   2.668   6.729   5.689  1.0782 -1.8605 -1.4427
 3456TIP3   OH231782   4.441   4.494   3.119  0.5084  0.0861  0.4160
 3456TIP3    H131783   4.377   4.473   3.187  0.1473  1.3566  0.5047
 3456TIP3    H231784   4.392   4.488   3.037 -0.0835  2.1015  0.5515
 3457TIP3   OH231785   6.280   0.076   6.040 -0.1619  0.3086  0.0122
 3457TIP3    H131786   6.273  -0.019   6.045 -2.0231  0.4781  2.0921
 3457TIP3    H231787   6.220   0.101   5.970 -0.9562  0.0310  0.5815
 3458TIP3   OH231788   5.626   0.729  17.312 -0.3292  0.1348 -0.0215
 3458TIP3    H131789   5.537   0.693  17.317 -0.1293 -0.2438  0.8854
 3458TIP3    H231790   5.674   0.685  17.382  0.7803 -0.2139 -0.9638
 3459TIP3   OH231791   1.985   6.404  15.180  0.5358 -0.3241 -0.1713
 3459TIP3    H131792   1.930   6.437  15.251 -0.6679 -0.3279 -1.0647
 3459TIP3    H231793   1.945   6.320  15.155  0.5757 -0.0518 -1.2254
 3460TIP3   OH231794   3.396   3.123  14.436 -0.0451 -0.1176 -1.0374
 3460TIP3    H131795   3.306   3.134  14.405 -0.1512 -0.3184 -0.8126
 3460TIP3    H231796   3.404   3.029  14.453  0.4438 -0.2125 -1.7533
 3461TIP3   OH231797   2.603   0.317   4.356 -0.9542  0.0011  0.0569
 3461TIP3    H131798   2.545   0.393   4.345  0.7919  1.5963  1.1414
 3461TIP3    H231799   2.576   0.277   4.438 -0.0279  1.2929  1.0413
 3462TIP3   OH231800   6.547   4.884  11.404  0.2682  0.4730 -0.2644
 3462TIP3    H131801   6.512   4.796  11.419 -0.0975  0.2549 -2.1800
 3462TIP3    H231802   6.582   4.910  11.489  0.4744 -1.5483  0.3256
 3463TIP3   OH231803   2.859   5.064  16.461  0.0151  0.6645 -0.5675
 3463TIP3    H131804   2.945   5.071  16.421  1.3086  1.2818  2.1139
 3463TIP3    H231805   2.800   5.108  16.400  1.5714  0.2688 -2.4352
 3464TIP3   OH231806   0.925   5.452   4.169  0.1386  0.1434 -0.1437
 3464TIP3    H131807   0.846   5.400   4.151 -0.1837  0.3931  0.5220
 3464TIP3    H231808   0.892   5.540   4.184  0.6875  0.5475 -1.2649
 3465TIP3   OH231809   1.296   6.558  16.988 -0.5312 -0.0870 -0.3361
 3465TIP3    H131810   1.262   6.577  17.075  0.2103 -1.2149  0.2323
 3465TIP3    H231811   1.254   6.476  16.964 -0.1290 -0.1903 -0.6933
 3466TIP3   OH231812   2.699   6.257  14.248  0.0667 -0.1647 -0.5638
 3466TIP3    H131813   2.686   6.218  14.161  0.5655  0.5712 -0.9727
 3466TIP3    H231814   2.733   6.344  14.231 -1.9244  0.8585  0.3112
 3467TIP3   OH231815   6.630   0.737   4.755 -0.3330  0.1498  0.0392
 3467TIP3    H131816   6.556   0.785   4.794 -0.0873 -0.2112  0.9752
 3467TIP3    H231817   6.589   0.670   4.701 -0.6792  0.8875 -0.6469
 3468TIP3   OH231818   2.648   3.279   0.338  0.5338 -1.1529  0.3549
 3468TIP3    H131819   2.651   3.328   0.420 -0.9387  0.9297 -0.7338
 3468TIP3    H231820   2.607   3.195   0.361 -2.3975  0.4189  1.3855
 3469TIP3   OH231821   6.307   6.692  16.370 -0.2653  0.3516 -0.5982
 3469TIP3    H131822   6.299   6.759  16.302 -2.5854 -0.3204 -1.0935
 3469TIP3    H231823   6.218   6.658  16.380  0.2729 -0.5610  1.7949
 3470TIP3   OH231824   6.054   2.927  14.758  0.3822  0.3068 -0.7261
 3470TIP3    H131825   6.038   2.969  14.674 -0.7067  0.6950 -0.3381
 3470TIP3    H231826   5.970   2.886  14.780  1.0033 -0.8290 -0.4021
 3471TIP3   OH231827   4.079   0.125  15.445  0.8106 -0.2163  0.4526
 3471TIP3    H131828   3.985   0.134  15.433  1.3484  2.9899 -4.3809
 3471TIP3    H231829   4.100   0.180  15.521 -1.0680  0.0155  0.8366
 3472TIP3   OH231830   1.591   4.011   0.733  0.1661 -0.9218 -0.2137
 3472TIP3    H131831   1.514   3.954   0.736 -0.1585 -0.4571  0.4813
 3472TIP3    H231832   1.567   4.087   0.787  0.5484 -0.0817 -1.1882
 3473TIP3   OH231833   6.241   5.115   3.986  0.2859  0.0307 -0.1747
 3473TIP3    H131834   6.253   5.180   3.916 -1.5652  0.4923 -0.1348
 3473TIP3    H231835   6.329   5.092   4.014  1.0712 -0.0015 -2.5057
 3474TIP3   OH231836   2.405   4.765  11.399  0.2001  0.2761 -0.1448
 3474TIP3    H131837   2.484   4.817  11.412 -0.0356  0.9847 -1.3479
 3474TIP3    H231838   2.430   4.676  11.422  1.0251  0.6770  0.5523
 3475TIP3   OH231839   4.050   4.287   2.668 -0.1390 -0.1096  0.6888
 3475TIP3    H131840   3.958   4.294   2.646  0.1228 -0.7451 -0.6821
 3475TIP3    H231841   4.052   4.287   2.764 -1.4366  1.2004  0.7436
 3476TIP3   OH231842   1.333   1.303   1.582  0.2323 -0.8645  0.5068
 3476TIP3    H131843   1.300   1.362   1.650  0.1972  1.2204 -1.2115
 3476TIP3    H231844   1.255   1.282   1.530  0.8606  0.9262 -1.2688
 3477TIP3   OH231845   2.792   1.780  14.362 -0.2196  0.5181 -0.1257
 3477TIP3    H131846   2.700   1.784  14.336 -0.1809  0.9494 -0.2101
 3477TIP3    H231847   2.799   1.840  14.437  0.0779  0.8423 -0.4044
 3478TIP3   OH231848   4.320   6.116   4.725 -0.0616  0.2048 -0.3874
 3478TIP3    H131849   4.296   6.055   4.795 -0.6827 -1.0730 -1.6540
 3478TIP3    H231850   4.236   6.153   4.696  0.2439  1.1575 -0.0913
 3479TIP3   OH231851   1.266   1.047   4.655  0.2138  0.2072 -0.6111
 3479TIP3    H131852   1.231   1.093   4.731  2.7357 -1.5526  1.8451
 3479TIP3    H231853   1.193   1.041   4.594 -2.1065  1.2982  1.8817
 3480TIP3   OH231854   0.262   5.575  16.824  0.4975  0.2387 -0.4696
 3480TIP3    H131855   0.356   5.564  16.834  0.9504  3.0750 -0.9591
 3480TIP3    H231856   0.251   5.605  16.734 -0.6659  1.7367  0.1431
 3481TIP3   OH231857   6.253   4.309  16.583 -0.1443  0.7878 -0.2440
 3481TIP3    H131858   6.299   4.376  16.634  0.6662  0.3613 -0.4064
 3481TIP3    H231859   6.295   4.311  16.497 -1.3323  1.3254 -0.8494
 3482TIP3   OH231860   1.809   6.632   2.019  0.1746  0.6665 -0.4678
 3482TIP3    H131861   1.751   6.677   2.081 -1.8812 -0.5166 -1.4566
 3482TIP3    H231862   1.835   6.700   1.957 -0.9509  1.0054 -0.5739
 3483TIP3   OH231863   2.741   0.890  17.051  0.0519 -0.0378  0.1944
 3483TIP3    H131864   2.719   0.982  17.067 -1.2722 -0.3854  0.4957
 3483TIP3    H231865   2.826   0.893  17.007  0.7021  1.2545  1.4483
 3484TIP3   OH231866   4.418   5.636  16.676  0.1844  0.3509 -0.1121
 3484TIP3    H131867   4.483   5.680  16.620  1.2657 -1.5573 -0.4241
 3484TIP3    H231868   4.338   5.637  16.624  0.3857  1.2218 -0.4355
 3485TIP3   OH231869   6.677   2.728  12.360  0.4047 -0.3340 -0.3415
 3485TIP3    H131870   6.634   2.768  12.436  0.0429  0.1937 -0.8132
 3485TIP3    H231871   6.606   2.715  12.297  0.7867 -0.2582 -0.7959
 3486TIP3   OH231872   5.369   4.278   3.507  0.0446 -1.1073  0.0822
 3486TIP3    H131873   5.286   4.322   3.525 -0.3049 -2.0314  0.8283
 3486TIP3    H231874   5.434   4.347   3.511 -0.6576 -0.4091 -0.2716
 3487TIP3   OH231875   1.693   1.063   0.045  0.3041  0.1778 -0.0216
 3487TIP3    H131876   1.647   0.989   0.084 -3.9864  1.0179 -2.8317
 3487TIP3    H231877   1.735   1.026  -0.033  1.7471  0.0792  0.7491
 3488TIP3   OH231878   4.083   6.398   2.873  0.4171 -0.5408 -0.2202
 3488TIP3    H131879   4.166   6.384   2.828  0.3967 -0.4982 -0.2710
 3488TIP3    H231880   4.099   6.472   2.931  0.1015  0.1725 -1.0315
 3489TIP3   OH231881   2.510   0.669   1.334  0.1538  0.0138 -0.2777
 3489TIP3    H131882   2.522   0.654   1.240  1.6027 -0.7916  0.0005
 3489TIP3    H231883   2.416   0.681   1.345  0.1341  2.1426 -2.1118
 3490TIP3   OH231884   3.300   5.393   5.540  0.2502  0.0431 -0.4371
 3490TIP3    H131885   3.239   5.440   5.597 -0.1478 -0.1200 -0.7219
 3490TIP3    H231886   3.337   5.461   5.484  0.9360  0.2657  0.2639
 3491TIP3   OH231887   5.997   3.095   2.848 -0.7046  0.2824  0.1212
 3491TIP3    H131888   6.019   3.184   2.819 -1.1797 -0.0693 -1.3934
 3491TIP3    H231889   6.067   3.072   2.910 -1.1726  2.1076  1.3987
 3492TIP3   OH231890   5.973   0.214  12.117 -0.1484  0.0288  0.1138
 3492TIP3    H131891   5.898   0.197  12.060 -0.5160 -3.0209  1.2935
 3492TIP3    H231892   5.940   0.274  12.183 -1.6665 -1.3297  0.6662
 3493TIP3   OH231893   0.460   0.314   1.441  0.4062  0.5512 -0.0493
 3493TIP3    H131894   0.501   0.396   1.411 -0.6360  0.8062 -0.8231
 3493TIP3    H231895   0.396   0.342   1.506  0.6104  0.2622  0.2793
 3494TIP3   OH231896   1.410   0.561  13.726  0.7300 -0.2290 -0.0390
 3494TIP3    H131897   1.496   0.567  13.767  0.4776  2.4311  0.2848
 3494TIP3    H231898   1.413   0.625  13.655 -1.5129  1.1914  1.0578
 3495TIP3   OH231899   4.139   2.331  16.148 -0.1759  0.5382  0.1060
 3495TIP3    H131900   4.181   2.415  16.167 -0.5986  1.0568 -1.1245
 3495TIP3    H231901   4.136   2.328  16.052  1.2446 -1.6004  0.0717
 3496TIP3   OH231902   1.418   2.428   5.032 -0.0512 -0.4344  0.3940
 3496TIP3    H131903   1.433   2.459   5.121  0.4049 -1.5281  0.7032
 3496TIP3    H231904   1.496   2.379   5.009 -0.1976 -0.2382 -0.5887
 3497TIP3   OH231905   0.581   2.971  16.838  0.2088  0.5362  0.0838
 3497TIP3    H131906   0.598   2.906  16.907  1.1383 -0.2875 -0.8792
 3497TIP3    H231907   0.487   2.968  16.825  0.2524 -0.8154 -0.0897
 3498TIP3   OH231908   6.384   4.950   5.996 -0.0777  0.3105  0.3338
 3498TIP3    H131909   6.361   4.930   6.086 -0.0429 -1.2202  0.0253
 3498TIP3    H231910   6.457   4.892   5.975 -1.4729 -0.9965 -1.3257
 3499TIP3   OH231911   6.373   1.718  14.029  0.2953 -0.1037 -0.3172
 3499TIP3    H131912   6.350   1.654  13.961  0.9078 -0.3420 -0.3081
 3499TIP3    H231913   6.469   1.716  14.033  0.2502 -0.7889  1.2169
 3500TIP3   OH231914   1.787   2.995   2.109 -0.0104  0.2367 -0.1802
 3500TIP3    H131915   1.854   3.061   2.090 -0.7423  1.1436  0.2392
 3500TIP3    H231916   1.772   2.951   2.026  0.6015  0.5162 -0.4416
 3501TIP3   OH231917   2.892   5.424   4.899 -0.2883  0.0993 -0.3693
 3501TIP3    H131918   2.909   5.374   4.979  1.5460  2.2291  0.6884
 3501TIP3    H231919   2.822   5.484   4.923  0.0892  0.5672 -0.4169
 3502TIP3   OH231920   2.354   5.729  11.238  0.4507  0.6199  0.7707
 3502TIP3    H131921   2.388   5.741  11.149  2.9183  1.7908  1.7676
 3502TIP3    H231922   2.341   5.819  11.270  3.1780  0.4551  2.7552
 3503TIP3   OH231923   3.249   3.634   4.106 -0.0910  0.7285 -0.7873
 3503TIP3    H131924   3.341   3.609   4.094  0.1988  0.8250  0.9309
 3503TIP3    H231925   3.204   3.599   4.030  0.9955 -1.3783 -0.5212
 3504TIP3   OH231926   4.470   3.041  14.494  0.2553  0.2400  0.3675
 3504TIP3    H131927   4.537   3.108  14.500  1.8423 -1.2877  0.6448
 3504TIP3    H231928   4.446   3.023  14.586 -2.7598  2.7814  0.2412
 3505TIP3   OH231929   0.392   4.085   0.307 -0.6318  0.1032 -0.1062
 3505TIP3    H131930   0.450   4.082   0.384 -0.8978 -0.5841  0.0776
 3505TIP3    H231931   0.307   4.055   0.340 -0.9631  0.6093 -0.4888
 3506TIP3   OH231932   2.910   3.323   0.278  0.2458 -0.1463 -0.8022
 3506TIP3    H131933   2.953   3.389   0.332  1.7246 -1.2214 -0.6236
 3506TIP3    H231934   2.820   3.321   0.310  0.5497  0.7296  0.1709
 3507TIP3   OH231935   1.441   1.363  11.310 -0.1518 -0.6625 -0.2091
 3507TIP3    H131936   1.445   1.417  11.389  0.4427 -2.3301  0.9639
 3507TIP3    H231937   1.372   1.402  11.257 -0.4263  0.6176  1.0452
 3508TIP3   OH231938   3.554   0.394   5.896 -0.0239 -0.1558  0.0403
 3508TIP3    H131939   3.625   0.336   5.924 -0.2348 -1.1963 -1.4189
 3508TIP3    H231940   3.484   0.380   5.960  1.1411  1.1113  1.6719
 3509TIP3   OH231941   3.247   4.848  13.137 -0.3673  0.3000 -0.1406
 3509TIP3    H131942   3.152   4.839  13.140 -0.4398 -0.8133 -2.8136
 3509TIP3    H231943   3.262   4.928  13.086  0.0258 -1.0290 -2.2268
 3510TIP3   OH231944   3.703   2.311  12.075  0.4725  0.4908 -0.2623
 3510TIP3    H131945   3.611   2.310  12.048 -0.0540  2.4551  1.2480
 3510TIP3    H231946   3.716   2.228  12.120 -1.2013  1.0504  1.3417
 3511TIP3   OH231947   6.717   0.841   1.770 -0.1654  0.2024 -0.4221
 3511TIP3    H131948   6.740   0.836   1.677  0.3087  1.0665 -0.3664
 3511TIP3    H231949   6.621   0.838   1.771 -0.2035  0.7749 -0.9989
 3512TIP3   OH231950   3.835   0.155  15.688 -0.5849 -0.6003  0.3384
 3512TIP3    H131951   3.787   0.201  15.619  2.0237 -0.4052 -1.5060
 3512TIP3    H231952   3.808   0.064  15.679 -1.4741 -0.3277  0.1495
 3513TIP3   OH231953   1.302   0.651  12.512  0.5441 -0.5195  0.5213
 3513TIP3    H131954   1.343   0.663  12.598  1.9959 -0.3890 -0.1503
 3513TIP3    H231955   1.253   0.732  12.497  1.0880 -0.1306  0.8185
 3514TIP3   OH231956   6.382   0.222  12.428 -0.2161 -0.2264  0.2694
 3514TIP3    H131957   6.423   0.171  12.358 -0.5363 -0.4600  0.2492
 3514TIP3    H231958   6.432   0.304  12.430 -0.4749 -0.0311 -0.5371
 3515TIP3   OH231959   1.053   5.910  13.529  0.2286  0.2962  0.2202
 3515TIP3    H131960   1.010   5.982  13.484  1.1542 -0.0314 -1.2761
 3515TIP3    H231961   1.134   5.895  13.479  0.4580 -1.2291  0.9708
 3516TIP3   OH231962   1.966   3.821   0.449 -0.6467  0.0400  0.4034
 3516TIP3    H131963   1.875   3.800   0.469  0.1713 -2.4089  2.0673
 3516TIP3    H231964   1.986   3.771   0.370 -0.1520 -1.3457  1.3699
 3517TIP3   OH231965   5.057   1.776  15.998 -0.0318  0.2573  0.4972
 3517TIP3    H131966   5.121   1.775  16.069  0.6234 -0.3647 -0.0831
 3517TIP3    H231967   5.083   1.850  15.943 -1.4178  1.6679  1.6538
 3518TIP3   OH231968   3.283   2.482  14.296 -0.7083 -0.1861 -0.1400
 3518TIP3    H131969   3.295   2.574  14.319  0.1439 -0.5614  1.0922
 3518TIP3    H231970   3.372   2.446  14.295 -1.1068 -1.2569  0.6579
 3519TIP3   OH231971   2.692   1.341  16.132  0.2415  0.3208  0.0238
 3519TIP3    H131972   2.685   1.316  16.224 -0.9734 -0.3134 -0.2219
 3519TIP3    H231973   2.668   1.434  16.131 -1.8038 -0.1477  0.1233
 3520TIP3   OH231974   5.201   6.553   1.936 -1.0131 -0.1765 -0.4694
 3520TIP3    H131975   5.284   6.540   1.891 -0.9531 -1.8378  0.0320
 3520TIP3    H231976   5.219   6.618   2.003 -0.2222 -0.2089 -0.6497
 3521TIP3   OH231977   4.653   6.636  14.682  0.3263  0.3753  0.5458
 3521TIP3    H131978   4.747   6.648  14.695  0.4907 -1.1916  1.0549
 3521TIP3    H231979   4.619   6.614  14.769 -0.9647  3.2003  0.8645
 3522TIP3   OH231980   2.557   4.647  11.722 -1.0759  0.6647 -0.0157
 3522TIP3    H131981   2.541   4.716  11.658 -0.5723  1.3024  0.5297
 3522TIP3    H231982   2.473   4.603  11.731 -1.5566  1.5749  0.0522
 3523TIP3   OH231983   6.729   3.140   1.115  0.0743  0.4158 -0.5435
 3523TIP3    H131984   6.703   3.142   1.023 -0.0583 -1.3436 -0.5754
 3523TIP3    H231985   6.666   3.082   1.157 -0.5062  2.0378  0.8953
 3524TIP3   OH231986   5.989   1.338   1.665 -0.5088  0.0767  0.2989
 3524TIP3    H131987   5.943   1.272   1.612 -0.1092  0.4916 -0.5797
 3524TIP3    H231988   6.009   1.408   1.604  1.6750 -0.2589  0.5333
 3525TIP3   OH231989   1.427   3.101  15.569 -0.1365  0.7674  0.4621
 3525TIP3    H131990   1.482   3.139  15.638 -1.4854  0.7124  1.5889
 3525TIP3    H231991   1.375   3.175  15.537 -1.7389  0.1949  1.6713
 3526TIP3   OH231992   2.113   4.191  15.870 -0.1403  0.0578 -0.3019
 3526TIP3    H131993   2.145   4.204  15.959 -2.5684 -0.7414  0.7663
 3526TIP3    H231994   2.152   4.262  15.819  1.7463  0.2052  1.2488
 3527TIP3   OH231995   1.381   2.966  13.885  0.2188  0.9977  0.2545
 3527TIP3    H131996   1.308   3.010  13.929  0.1541 -0.3684  1.6120
 3527TIP3    H231997   1.440   2.940  13.956 -0.0951 -1.7038 -0.3577
 3528TIP3   OH231998   6.439   3.696  13.342 -0.0498 -0.8275  0.1169
 3528TIP3    H131999   6.362   3.667  13.392  0.1324  1.3349  1.8416
 3528TIP3    H232000   6.406   3.767  13.287  0.7824  0.5829  1.3751
 3529TIP3   OH232001   2.454   4.020  12.919 -0.3135  0.3256 -0.5265
 3529TIP3    H132002   2.466   4.009  13.013 -0.3955  1.7807 -0.3113
 3529TIP3    H232003   2.389   3.955  12.895  0.4365 -0.7323  0.2284
 3530TIP3   OH232004   2.779   5.637   0.974  0.0937  0.0009  0.3272
 3530TIP3    H132005   2.712   5.701   0.949  0.0004 -0.1641  0.1542
 3530TIP3    H232006   2.861   5.675   0.942 -0.1057 -0.5422 -0.8836
 3531TIP3   OH232007   0.927   1.463  15.582 -0.2408  0.1805 -0.3058
 3531TIP3    H132008   0.996   1.486  15.520  1.0192 -2.7530 -0.1585
 3531TIP3    H232009   0.849   1.450  15.529  0.4333 -0.7484 -1.1013
 3532TIP3   OH232010   6.289   3.079  12.530 -0.2584 -0.0490 -0.3919
 3532TIP3    H132011   6.239   3.078  12.612  0.6822  1.9961  0.3069
 3532TIP3    H232012   6.375   3.044  12.555  0.5756  2.0789  0.0021
 3533TIP3   OH232013   4.539   5.797   5.844 -0.1146  0.0845  0.0204
 3533TIP3    H132014   4.533   5.864   5.776 -0.9548  0.3070  0.3017
 3533TIP3    H232015   4.488   5.833   5.917 -1.4834 -1.3127 -0.1966
 3534TIP3   OH232016   2.565   4.010   3.432 -0.7677 -0.2192  0.1436
 3534TIP3    H132017   2.553   4.094   3.477  0.5389 -0.0948  0.3139
 3534TIP3    H232018   2.619   3.958   3.492  0.6482 -0.2026 -1.0564
 3535TIP3   OH232019   2.562   3.221   0.799  0.2731  0.2866  0.4125
 3535TIP3    H132020   2.494   3.288   0.797 -0.2330 -0.2288 -0.7344
 3535TIP3    H232021   2.516   3.140   0.823  0.6045  0.0647  0.3069
 3536TIP3   OH232022   5.515   5.933  15.359 -0.0326  0.3745  0.9925
 3536TIP3    H132023   5.526   6.028  15.360 -1.9683  0.6387  1.5431
 3536TIP3    H232024   5.426   5.919  15.330  0.2383 -1.2974  0.8496
 3537TIP3   OH232025   5.538   5.608   4.233  0.0884 -0.0772  0.1170
 3537TIP3    H132026   5.613   5.556   4.263 -0.7726 -0.7911  1.1543
 3537TIP3    H232027   5.484   5.617   4.311 -0.6671  0.8433 -0.5015
 3538TIP3   OH232028   5.959   1.516  16.117 -0.3171  0.3689  0.2723
 3538TIP3    H132029   5.923   1.466  16.044 -0.0065  0.2004  0.2334
 3538TIP3    H232030   6.045   1.478  16.132  0.2999  1.4807 -0.3464
 3539TIP3   OH232031   4.107   5.287  15.803 -0.0104 -0.3535  0.0890
 3539TIP3    H132032   4.092   5.352  15.735  0.0093  0.0209  0.4357
 3539TIP3    H232033   4.135   5.338  15.879 -0.3977 -0.7203  0.4895
 3540TIP3   OH232034   0.243   4.556  16.848 -0.0525 -0.5365 -0.2561
 3540TIP3    H132035   0.255   4.528  16.757  0.6085  2.2498 -1.1189
 3540TIP3    H232036   0.321   4.525  16.894 -0.3104 -1.8153 -0.6213
 3541TIP3   OH232037   3.376   0.646   3.915 -0.6558 -0.2537  0.1359
 3541TIP3    H132038   3.396   0.583   3.847  0.1457  1.1227 -0.9631
 3541TIP3    H232039   3.417   0.610   3.994  0.7933 -0.5550 -0.7181
 3542TIP3   OH232040   1.362   1.363  13.899  0.2184 -0.1454  0.0048
 3542TIP3    H132041   1.450   1.325  13.907 -0.5464 -2.3262 -1.1401
 3542TIP3    H232042   1.350   1.412  13.980  1.7789 -1.4207  1.0750
 3543TIP3   OH232043   6.632   3.159   4.585  0.4005 -0.8744  0.0180
 3543TIP3    H132044   6.605   3.072   4.615 -1.6469 -0.0827  0.6024
 3543TIP3    H232045   6.551   3.209   4.578  1.4368  0.7691 -1.1312
 3544TIP3   OH232046   1.271   0.905   1.623 -0.4881  0.1065 -0.5029
 3544TIP3    H132047   1.188   0.910   1.671 -0.9615 -0.8870 -1.1630
 3544TIP3    H232048   1.338   0.928   1.687 -1.2694  0.8808  0.0554
 3545TIP3   OH232049   1.822   2.247   0.966  0.1823  0.1777  0.4441
 3545TIP3    H132050   1.749   2.214   1.018 -0.6714  0.4070 -0.5787
 3545TIP3    H232051   1.781   2.297   0.896  1.2163 -1.3950 -1.3637
 3546TIP3   OH232052   1.499   5.693   6.403 -0.0627 -0.2081  0.1812
 3546TIP3    H132053   1.546   5.616   6.436 -0.5030 -0.0788  1.1695
 3546TIP3    H232054   1.532   5.765   6.457  0.2228  0.2705 -0.6257
 3547TIP3   OH232055   6.087   6.576   2.775  0.1509 -0.7800  0.8239
 3547TIP3    H132056   6.072   6.540   2.863 -0.3251  0.1787  1.1523
 3547TIP3    H232057   6.006   6.624   2.755 -0.4119 -2.3307 -0.8249
 3548TIP3   OH232058   6.171   1.728  17.136  0.2517 -0.4489  0.9054
 3548TIP3    H132059   6.097   1.768  17.090  1.7329 -0.8244 -2.0696
 3548TIP3    H232060   6.241   1.794  17.131  0.2935 -0.1752  3.4943
 3549TIP3   OH232061   4.964   2.285  11.728 -0.2429  0.0668  0.3221
 3549TIP3    H132062   5.045   2.326  11.696 -0.8551 -0.1616 -1.6963
 3549TIP3    H232063   4.924   2.247  11.649 -2.5926  0.6698  1.1390
 3550TIP3   OH232064   2.893   6.669   5.007  0.2292  0.9737  0.1632
 3550TIP3    H132065   2.808   6.712   5.020  0.1248  0.4161  1.4005
 3550TIP3    H232066   2.881   6.581   5.043  0.2063 -0.4323 -2.9164
 3551TIP3   OH232067   5.029   2.662  11.899  0.6450 -0.1250 -0.5782
 3551TIP3    H132068   5.014   2.656  11.804  1.0326 -2.8166 -0.5354
 3551TIP3    H232069   4.943   2.682  11.936  0.2617 -0.1751 -1.4157
 3552TIP3   OH232070   2.505   3.273  14.329 -0.4197  0.3491 -0.0238
 3552TIP3    H132071   2.583   3.225  14.300  0.9685  1.2714  1.9377
 3552TIP3    H232072   2.527   3.365  14.316 -0.9484  0.6469  1.0540
 3553TIP3   OH232073   2.587   6.598  15.177  0.2570 -0.6653 -0.0940
 3553TIP3    H132074   2.643   6.522  15.162  1.6566  0.1967  0.5857
 3553TIP3    H232075   2.637   6.653  15.237 -1.3788  0.0965  0.6174
 3554TIP3   OH232076   5.644   3.740  13.097 -0.2408 -0.3464 -0.5621
 3554TIP3    H132077   5.640   3.835  13.082 -1.5917 -0.1413  0.8215
 3554TIP3    H232078   5.560   3.707  13.065  0.2986 -1.1283 -1.2107
 3555TIP3   OH232079   2.398   0.499  15.178 -0.0059  0.4022 -0.3894
 3555TIP3    H132080   2.322   0.458  15.137  0.1938  0.9963 -1.4019
 3555TIP3    H232081   2.466   0.495  15.111  0.9978 -0.4943  0.6462
 3556TIP3   OH232082   0.685   0.814   1.235  0.5219 -0.4073  0.6699
 3556TIP3    H132083   0.633   0.821   1.315 -1.1335  3.2564 -0.5064
 3556TIP3    H232084   0.776   0.822   1.265  0.0653 -0.9025  2.3026
 3557TIP3   OH232085   1.217   5.019  11.396 -0.2512 -0.3045  0.2067
 3557TIP3    H132086   1.170   4.958  11.454 -0.1857 -1.6714 -1.1318
 3557TIP3    H232087   1.308   4.988  11.398 -0.0834  0.1703  0.0234
 3558TIP3   OH232088   3.516   6.737   1.657 -0.2091 -0.6460  0.0518
 3558TIP3    H132089   3.453   6.694   1.715 -0.8471 -1.1009 -0.9391
 3558TIP3    H232090   3.478   6.823   1.640 -0.5167 -0.8734 -0.4452
 3559TIP3   OH232091   0.221   5.416  17.187  0.5363  0.6846  0.5685
 3559TIP3    H132092   0.197   5.356  17.257 -0.3643  2.2162  1.6586
 3559TIP3    H232093   0.233   5.361  17.110 -1.6829 -0.7521  1.1600
 3560TIP3   OH232094   5.936   4.213  15.433  0.6887 -0.6692  0.2156
 3560TIP3    H132095   5.855   4.201  15.482  0.6423  0.6667  0.4957
 3560TIP3    H232096   5.913   4.272  15.361  1.7960  1.3702  1.4444
 3561TIP3   OH232097   6.098   3.965   4.607  0.2974  0.3034 -0.4219
 3561TIP3    H132098   6.126   3.926   4.690  0.5223  0.6193 -0.3460
 3561TIP3    H232099   6.133   3.907   4.540 -0.0872 -0.0870 -0.2964
 3562TIP3   OH232100   0.826   4.102   1.907  0.5436 -0.0931  0.4862
 3562TIP3    H132101   0.903   4.152   1.881  0.3491  0.3720  0.7819
 3562TIP3    H232102   0.763   4.116   1.836  0.2987  0.5273  0.8126
 3563TIP3   OH232103   1.715   0.645  15.288 -0.2425  0.2367  0.6125
 3563TIP3    H132104   1.729   0.720  15.229 -0.4919 -0.5341 -0.4570
 3563TIP3    H232105   1.659   0.680  15.357 -1.2425  0.8048 -0.4287
 3564TIP3   OH232106   2.741   2.195  12.795  0.1656 -0.3333  0.7557
 3564TIP3    H132107   2.792   2.209  12.875 -0.0908  1.0227  0.7078
 3564TIP3    H232108   2.712   2.283  12.770 -1.1819 -0.9324  0.1128
 3565TIP3   OH232109   6.234   0.636  12.644 -0.1834 -0.3010  0.0219
 3565TIP3    H132110   6.188   0.720  12.635 -0.2969 -0.1655  1.5970
 3565TIP3    H232111   6.326   0.660  12.651 -0.0433 -0.4403 -1.0914
 3566TIP3   OH232112   5.453   4.562  16.549 -0.5028 -0.1823  0.1366
 3566TIP3    H132113   5.535   4.525  16.517 -0.6106 -1.2213  1.0040
 3566TIP3    H232114   5.473   4.592  16.638 -1.5651 -2.5550  1.2810
 3567TIP3   OH232115   4.025   2.633  16.070 -0.1831 -0.9076  0.2594
 3567TIP3    H132116   3.948   2.581  16.046 -0.1996 -0.2936 -1.1524
 3567TIP3    H232117   4.075   2.641  15.988 -0.3750  1.5749  0.2837
 3568TIP3   OH232118   0.639   1.760   3.249 -0.1266  0.3662  0.3441
 3568TIP3    H132119   0.656   1.666   3.253 -1.6141 -0.0802 -1.6885
 3568TIP3    H232120   0.696   1.792   3.179 -1.6255  0.3763 -0.9339
 3569TIP3   OH232121   6.682   5.379  15.278 -0.8824 -0.0181 -0.1254
 3569TIP3    H132122   6.617   5.326  15.323 -2.1541  0.8602 -0.8541
 3569TIP3    H232123   6.634   5.422  15.208  0.9242 -0.9444 -2.0443
 3570TIP3   OH232124   4.388   4.357   0.611  0.3515  0.1798 -0.1238
 3570TIP3    H132125   4.394   4.311   0.527  3.6227  1.2641 -0.6238
 3570TIP3    H232126   4.440   4.305   0.671  0.3874  0.8902  0.4778
 3571TIP3   OH232127   2.107   1.840   5.190 -0.2891 -0.5235  0.3488
 3571TIP3    H132128   2.012   1.850   5.198 -0.3839 -0.2423 -0.9407
 3571TIP3    H232129   2.142   1.923   5.223 -0.7412  1.2634 -3.1988
 3572TIP3   OH232130   4.715   3.079  12.907  0.4592  0.1220 -0.1424
 3572TIP3    H132131   4.760   3.122  12.834  0.4287  0.0479 -0.2046
 3572TIP3    H232132   4.728   2.986  12.891  2.1575  0.1098  1.0017
 3573TIP3   OH232133   4.159   4.414  14.351  0.1840  0.0602 -0.1776
 3573TIP3    H132134   4.222   4.386  14.418  3.2010  1.0864 -2.3546
 3573TIP3    H232135   4.096   4.342  14.346  1.2318 -1.1075  2.0772
 3574TIP3   OH232136   2.088   4.631   0.030 -0.1420  0.2019  0.0883
 3574TIP3    H132137   2.177   4.600   0.013  0.4689  1.7036  0.4050
 3574TIP3    H232138   2.067   4.596   0.117  0.2197  0.0373  0.1108
 3575TIP3   OH232139   2.785   5.190   2.339  0.6226 -0.2795 -0.2977
 3575TIP3    H132140   2.710   5.157   2.291  1.0787 -0.4706 -0.8826
 3575TIP3    H232141   2.861   5.164   2.288  1.0730  0.2761  0.0646
 3576TIP3   OH232142   2.855   2.651  14.553 -0.7386 -0.0887  0.2042
 3576TIP3    H132143   2.919   2.688  14.613  2.2137 -1.1320 -1.9981
 3576TIP3    H232144   2.831   2.567  14.592  0.5216 -0.4036  0.3445
 3577TIP3   OH232145   3.943   3.689   3.864  0.0854  0.9214 -0.2883
 3577TIP3    H132146   4.010   3.719   3.802 -0.9394  1.2361 -1.2834
 3577TIP3    H232147   3.908   3.768   3.903 -0.4604  0.8272 -0.5848
 3578TIP3   OH232148   5.565   4.576  13.120  0.1350  0.0158  0.6835
 3578TIP3    H132149   5.601   4.633  13.052 -0.9045  0.4895  0.5137
 3578TIP3    H232150   5.523   4.636  13.182  2.1409 -0.2904  2.4645
 3579TIP3   OH232151   3.823   1.332   2.520 -0.2326  0.4989 -0.0019
 3579TIP3    H132152   3.763   1.402   2.546 -0.1528  0.8096 -0.6385
 3579TIP3    H232153   3.818   1.330   2.424  0.0947 -0.0756 -0.0121
 3580TIP3   OH232154   4.256   4.898  14.452  0.2824  0.2107  0.0758
 3580TIP3    H132155   4.304   4.832  14.402  0.1450  0.8107 -0.8693
 3580TIP3    H232156   4.198   4.938  14.388  0.0341  0.9280  0.7459
 3581TIP3   OH232157   4.525   0.347   5.085 -0.2284 -0.6824  0.4260
 3581TIP3    H132158   4.610   0.310   5.107  0.2838  0.8121  1.1358
 3581TIP3    H232159   4.492   0.382   5.169 -1.4043 -0.9803  0.1047
 3582TIP3   OH232160   5.190   3.968  13.431 -0.1482 -0.4702  0.0203
 3582TIP3    H132161   5.262   3.908  13.412  0.9349  0.8605 -0.3339
 3582TIP3    H232162   5.133   3.963  13.355 -0.3099 -1.3755  0.2008
 3583TIP3   OH232163   4.362   3.205   3.697 -0.1357  0.7339  0.4189
 3583TIP3    H132164   4.341   3.297   3.685  0.9764  1.1279  1.2361
 3583TIP3    H232165   4.381   3.197   3.791 -0.0472 -0.2799  0.3278
 3584TIP3   OH232166   3.204   5.906  11.726 -0.0549  0.5070  0.1888
 3584TIP3    H132167   3.219   5.983  11.671  1.9832  0.7933  1.0228
 3584TIP3    H232168   3.114   5.915  11.756  0.5460  3.4776  1.5122
 3585TIP3   OH232169   3.550   4.472  16.125  0.4290 -0.3980 -0.0511
 3585TIP3    H132170   3.462   4.487  16.091  0.2996 -0.5670  0.2153
 3585TIP3    H232171   3.606   4.473  16.047  0.2169 -0.1162 -0.2021
 3586TIP3   OH232172   4.947   1.089   2.669  0.2256  0.2477 -0.1876
 3586TIP3    H132173   4.950   0.994   2.657 -0.8346  0.0921  0.5917
 3586TIP3    H232174   4.996   1.105   2.749  1.8952  0.5813 -1.2255
 3587TIP3   OH232175   4.398   4.228   4.711 -0.2889 -0.2189 -0.3278
 3587TIP3    H132176   4.486   4.207   4.742 -0.3259  1.7147  1.2916
 3587TIP3    H232177   4.342   4.214   4.788 -1.0356  0.7309 -0.6791
 3588TIP3   OH232178   3.319   3.327   3.819 -0.4584 -0.0450 -0.5089
 3588TIP3    H132179   3.233   3.290   3.839  0.6237 -2.5055 -0.0432
 3588TIP3    H232180   3.354   3.353   3.905 -0.1096 -0.5691 -0.4873
 3589TIP3   OH232181   0.310   2.892  17.290  0.2119 -0.5661 -0.3579
 3589TIP3    H132182   0.363   2.920  17.364  0.3176  1.4216 -1.1425
 3589TIP3    H232183   0.357   2.925  17.213 -0.8706 -0.9487 -1.2022
 3590TIP3   OH232184   5.305   0.858   0.978 -0.2562 -0.2329 -0.1036
 3590TIP3    H132185   5.265   0.796   0.917 -1.6117 -0.2353  0.7286
 3590TIP3    H232186   5.323   0.936   0.925 -1.2409 -0.2945 -0.5605
 3591TIP3   OH232187   0.010   5.100   6.262 -0.0784  0.0570  0.0430
 3591TIP3    H132188   0.007   5.090   6.358 -0.8156  0.2994  0.0509
 3591TIP3    H232189   0.103   5.115   6.243  0.1365 -0.3898  0.6799
 3592TIP3   OH232190   4.175   0.445  12.846  0.2891 -0.1859  0.0250
 3592TIP3    H132191   4.249   0.396  12.811  0.5754 -0.5577  1.1179
 3592TIP3    H232192   4.158   0.406  12.932 -2.1202 -1.1036 -0.7696
 3593TIP3   OH232193   5.690   1.130  16.483  0.6662  0.5730  0.1681
 3593TIP3    H132194   5.717   1.072  16.555 -0.3596  0.2861  0.3349
 3593TIP3    H232195   5.660   1.210  16.527 -0.3248  0.2502  0.0849
 3594TIP3   OH232196   3.008   2.287   1.275 -0.1543  0.3999  0.0070
 3594TIP3    H132197   3.061   2.366   1.281 -0.7522  1.1597 -2.9726
 3594TIP3    H232198   3.003   2.254   1.365  1.8006  2.5954  1.0195
 3595TIP3   OH232199   3.843   0.321   1.084  0.4144 -0.7837  0.6846
 3595TIP3    H132200   3.803   0.299   1.000  0.5620 -1.0779  0.6879
 3595TIP3    H232201   3.773   0.312   1.148 -0.7950  3.2086  0.1787
 3596TIP3   OH232202   5.868   6.700   2.682 -0.1544  0.3206  0.2358
 3596TIP3    H132203   5.852   6.620   2.633 -0.2971  0.7970 -0.5158
 3596TIP3    H232204   5.785   6.747   2.680 -0.6453 -0.3458  2.2976
 3597TIP3   OH232205   5.871   3.013  15.110 -0.2405 -0.3845  0.0048
 3597TIP3    H132206   5.852   2.971  15.026  0.2400 -0.6097  0.0046
 3597TIP3    H232207   5.965   3.001  15.122 -0.2211  0.0770  0.3443
 3598TIP3   OH232208   5.754   0.464  15.965 -0.5911  0.5362 -0.4607
 3598TIP3    H132209   5.801   0.464  15.882  0.5866  2.1870  0.1552
 3598TIP3    H232210   5.788   0.540  16.013 -1.6498 -0.0220  1.3041
 3599TIP3   OH232211   5.665   5.074  11.192  0.0827  0.8289  0.0864
 3599TIP3    H132212   5.614   5.043  11.268 -0.5312  1.0385 -0.2315
 3599TIP3    H232213   5.608   5.057  11.117  0.4399  1.1772 -0.2667
 3600TIP3   OH232214   1.825   1.484  11.549 -0.0226 -0.1385 -0.1319
 3600TIP3    H132215   1.740   1.508  11.584 -0.6682  0.7063 -2.1261
 3600TIP3    H232216   1.813   1.396  11.513  0.3214 -0.5427  0.7201
 3601TIP3   OH232217   6.383   3.996  14.124 -0.5132 -0.1670  0.0942
 3601TIP3    H132218   6.424   3.915  14.092 -0.8875 -0.7772  1.0930
 3601TIP3    H232219   6.431   4.066  14.080 -1.3463 -0.9421 -2.1599
 3602TIP3   OH232220   2.620   3.769  16.290  0.2765 -0.0206  1.0884
 3602TIP3    H132221   2.658   3.853  16.315 -0.5522  0.2583  1.4410
 3602TIP3    H232222   2.684   3.730  16.231  0.2619  1.2568  0.2092
 3603TIP3   OH232223   0.523   5.527   2.224 -0.3197 -0.1331  0.0357
 3603TIP3    H132224   0.486   5.506   2.309 -0.7542  0.5624  0.0255
 3603TIP3    H232225   0.452   5.569   2.176  0.0840 -0.0059 -0.4650
 3604TIP3   OH232226   2.665   5.829  15.467 -0.6565 -0.0323 -0.1884
 3604TIP3    H132227   2.672   5.735  15.451 -0.7417 -0.1012  0.1703
 3604TIP3    H232228   2.754   5.857  15.488 -0.3101  0.2836 -1.9334
 3605TIP3   OH232229   1.251   4.549  16.441 -0.4115  0.1445  0.0894
 3605TIP3    H132230   1.295   4.626  16.476 -0.7801 -0.4519  1.9879
 3605TIP3    H232231   1.167   4.546  16.488 -0.3025 -1.5314  0.2356
 3606TIP3   OH232232   2.786   3.069  10.704 -0.0092 -0.5228 -0.3673
 3606TIP3    H132233   2.703   3.046  10.662  0.2813 -2.4476  0.0325
 3606TIP3    H232234   2.844   3.090  10.631 -0.1492 -1.6385 -0.8190
 3607TIP3   OH232235   0.925   5.137   4.296 -0.2701 -0.5782  0.5128
 3607TIP3    H132236   0.928   5.050   4.256 -0.5592 -0.2102 -0.3404
 3607TIP3    H232237   0.844   5.176   4.263 -0.4294 -0.1833  1.3328
 3608TIP3   OH232238   6.200   3.657   2.889  0.1956  0.2661  0.5749
 3608TIP3    H132239   6.244   3.725   2.940  0.0407  0.6535  0.2003
 3608TIP3    H232240   6.152   3.605   2.954  2.3449 -1.0659  1.1756
 3609TIP3   OH232241   4.675   4.993   0.524  0.4447 -0.5875 -0.6703
 3609TIP3    H132242   4.752   5.045   0.503  0.7429 -0.6493  0.2341
 3609TIP3    H232243   4.660   4.940   0.445  0.5800  0.3045 -1.3201
 3610TIP3   OH232244   4.064   0.086   2.734 -0.5089  0.3414  0.1517
 3610TIP3    H132245   4.036   0.106   2.824 -1.5620  1.5635 -0.4097
 3610TIP3    H232246   4.125   0.156   2.712 -0.4679  0.2011 -0.1769
 3611TIP3   OH232247   6.230   3.612  13.487 -0.0952 -0.1376  0.3259
 3611TIP3    H132248   6.136   3.613  13.503 -0.0789 -0.0082  0.4121
 3611TIP3    H232249   6.269   3.618  13.574  0.0208  3.6611  0.1530
 3612TIP3   OH232250   2.854   0.934  10.918  0.6768  0.1167  0.4396
 3612TIP3    H132251   2.827   1.015  10.963  1.1215  1.2022 -1.1944
 3612TIP3    H232252   2.945   0.920  10.945  0.8470  0.5936  0.1097
 3613TIP3   OH232253   2.139   6.655  15.468 -0.7134 -0.4170  0.2594
 3613TIP3    H132254   2.234   6.654  15.477 -0.6474  0.9338  0.0037
 3613TIP3    H232255   2.109   6.580  15.518  0.4277 -0.2611  1.2224
 3614TIP3   OH232256   6.019   6.336   4.134  0.1537 -0.1030  0.2712
 3614TIP3    H132257   5.974   6.384   4.064 -0.6806  0.6789  1.3065
 3614TIP3    H232258   6.048   6.255   4.092 -0.1128  0.4370 -1.0368
 3615TIP3   OH232259   4.021   0.855  11.434 -0.3424  1.0247 -0.7442
 3615TIP3    H132260   3.962   0.790  11.471  3.1469 -1.6684  0.5942
 3615TIP3    H232261   4.040   0.823  11.346  1.8338 -0.2488  0.1202
 3616TIP3   OH232262   0.532   3.100  17.254 -0.3150 -0.0658 -0.0229
 3616TIP3    H132263   0.448   3.142  17.273  0.5735  1.0263  1.6697
 3616TIP3    H232264   0.587   3.170  17.220  0.0723 -0.6748 -0.6801
 3617TIP3   OH232265   4.952   5.440   1.429  0.4292  0.6285  0.3637
 3617TIP3    H132266   4.947   5.456   1.523 -0.0423 -0.2509  0.5063
 3617TIP3    H232267   4.882   5.377   1.412  0.5582  0.7201 -0.5641
 3618TIP3   OH232268   5.682   3.517  12.015  0.2081  0.3628  0.2288
 3618TIP3    H132269   5.753   3.454  12.028  0.7329  0.8659 -0.1864
 3618TIP3    H232270   5.718   3.600  12.045  0.0123  0.7392 -0.5575
 3619TIP3   OH232271   5.983   3.354   3.511 -0.0268  0.4216 -0.0253
 3619TIP3    H132272   5.973   3.449   3.516  1.1929  0.5161  1.2256
 3619TIP3    H232273   5.918   3.319   3.571 -2.1242  0.2869 -2.2280
 3620TIP3   OH232274   4.565   3.238  11.962  0.3266 -0.4385  0.0094
 3620TIP3    H132275   4.624   3.199  11.897 -0.4510 -1.5987 -0.0337
 3620TIP3    H232276   4.573   3.332  11.948 -0.1531 -0.6512 -2.1000
 3621TIP3   OH232277   5.631   1.854  16.230 -0.3286  0.2084 -0.4573
 3621TIP3    H132278   5.640   1.918  16.159  3.3994  0.8435  0.3563
 3621TIP3    H232279   5.720   1.822  16.243 -1.2952 -1.6201  2.3914
 3622TIP3   OH232280   1.971   6.381  14.405  0.7745 -0.1952 -0.0162
 3622TIP3    H132281   2.012   6.295  14.413 -0.2770 -0.8336 -1.1976
 3622TIP3    H232282   2.032   6.440  14.449  2.6822 -1.1782 -1.2141
 3623TIP3   OH232283   2.272   3.337   1.556 -0.0093  0.1160 -0.7898
 3623TIP3    H132284   2.324   3.415   1.536 -0.0498  0.5589  0.6689
 3623TIP3    H232285   2.336   3.267   1.565  0.5312  0.8492  1.9415
 3624TIP3   OH232286   0.261   5.740   2.379 -0.2193  0.3975 -0.9723
 3624TIP3    H132287   0.342   5.791   2.386  0.4901 -0.4817 -2.2306
 3624TIP3    H232288   0.197   5.801   2.343  0.0326  0.9704 -0.4531
 3625TIP3   OH232289   4.519   6.718  12.147 -0.6263 -0.4237 -0.0716
 3625TIP3    H132290   4.601   6.691  12.188 -1.4839  0.7216  2.6003
 3625TIP3    H232291   4.476   6.636  12.122  0.4735 -1.1064  0.2407
 3626TIP3   OH232292   1.628   0.313  15.089 -0.3242  0.1944 -0.5565
 3626TIP3    H132293   1.559   0.379  15.080  0.3829  0.9093 -0.8173
 3626TIP3    H232294   1.678   0.319  15.007 -0.5654 -1.0400 -0.8181
 3627TIP3   OH232295   3.754   3.935   3.981  0.5158 -0.0843 -0.1159
 3627TIP3    H132296   3.783   4.000   4.046 -0.1847 -0.3251  0.4519
 3627TIP3    H232297   3.659   3.929   3.993  0.1516  0.9045 -2.1483
 3628TIP3   OH232298   1.495   1.880  12.297 -0.5042  0.0114 -0.7568
 3628TIP3    H132299   1.538   1.815  12.353  0.0270  1.8663  1.0788
 3628TIP3    H232300   1.426   1.830  12.253 -1.8025 -1.3803  2.5003
 3629TIP3   OH232301   2.617   1.760   5.125 -0.0874  0.1644  0.4183
 3629TIP3    H132302   2.561   1.689   5.092  0.4104  0.4715 -1.1729
 3629TIP3    H232303   2.564   1.839   5.114 -0.4724  0.1291  1.7813
 3630TIP3   OH232304   6.693   5.161  17.203 -0.0107 -0.4536 -0.3767
 3630TIP3    H132305   6.783   5.170  17.232  0.5074  0.3469 -2.0630
 3630TIP3    H232306   6.680   5.067  17.192  0.5176 -0.5914  0.1377
 3631TIP3   OH232307   4.255   3.176   6.098  0.2288  0.3873  0.3308
 3631TIP3    H132308   4.203   3.115   6.149  0.3843 -0.8724 -0.9636
 3631TIP3    H232309   4.313   3.218   6.162  0.8995 -1.6318  1.1095
 3632TIP3   OH232310   5.642   0.327   2.838  0.3423 -0.0766 -0.4762
 3632TIP3    H132311   5.602   0.261   2.894 -0.8604 -1.4162 -2.7379
 3632TIP3    H232312   5.573   0.352   2.776  1.4673  1.5702 -1.1745
 3633TIP3   OH232313   3.417   3.122   1.757  0.1521  0.6603  0.2287
 3633TIP3    H132314   3.340   3.155   1.803 -0.0579  0.6533 -0.1195
 3633TIP3    H232315   3.440   3.191   1.695  0.6169  0.7998  0.5480
 3634TIP3   OH232316   5.723   6.472  14.712 -0.0864  0.1666 -0.0448
 3634TIP3    H132317   5.799   6.414  14.699  0.7046  0.7589  1.6716
 3634TIP3    H232318   5.663   6.420  14.765  1.0771  1.1825  2.4128
 3635TIP3   OH232319   5.395   2.989   5.426 -0.5036 -0.1167  0.9927
 3635TIP3    H132320   5.377   2.936   5.503  3.2662 -1.5429  1.0851
 3635TIP3    H232321   5.437   3.068   5.460 -1.6747  0.7491  0.5172
 3636TIP3   OH232322   4.100   0.240   1.078  0.2483 -0.0193 -0.4830
 3636TIP3    H132323   4.131   0.241   1.168 -1.7203  1.0318  0.2210
 3636TIP3    H232324   4.011   0.273   1.082  0.2965  0.6096 -2.8942
 3637TIP3   OH232325   6.482   0.630  13.037 -0.4579  0.0280  0.2247
 3637TIP3    H132326   6.451   0.708  12.989  1.4402  0.5869 -0.1682
 3637TIP3    H232327   6.402   0.590  13.071 -1.7958  0.3768 -2.2356
 3638TIP3   OH232328   3.434   5.795   2.157 -0.1996 -0.3043 -0.2488
 3638TIP3    H132329   3.348   5.775   2.121 -0.6648  0.3698  0.4446
 3638TIP3    H232330   3.477   5.710   2.166 -0.5573 -0.5897 -1.1572
 3639TIP3   OH232331   1.141   5.813   6.621  0.1716 -0.1187 -0.0147
 3639TIP3    H132332   1.208   5.764   6.668 -0.6661 -1.6186 -0.3236
 3639TIP3    H232333   1.062   5.802   6.675  0.0801  1.3865  0.2017
 3640TIP3   OH232334   4.872   0.849  11.926 -0.0225 -0.0209 -0.8617
 3640TIP3    H132335   4.828   0.812  11.849 -1.9959  0.1570  0.1161
 3640TIP3    H232336   4.843   0.941  11.927 -2.0854 -0.5934  1.3998
 3641TIP3   OH232337   6.142   1.193   2.803 -0.6627  0.3021  0.1380
 3641TIP3    H132338   6.057   1.206   2.762 -0.9054  0.1909  0.6021
 3641TIP3    H232339   6.123   1.145   2.883 -0.1346  0.0343  0.1114
 3642TIP3   OH232340   5.437   6.171  16.780 -0.4079 -0.2338 -0.8709
 3642TIP3    H132341   5.367   6.180  16.716 -0.4404  0.0265 -0.7991
 3642TIP3    H232342   5.501   6.113  16.738 -0.1898  0.3377 -1.3371
 3643TIP3   OH232343   2.459   2.750  14.661 -0.7429  0.4309  0.3521
 3643TIP3    H132344   2.385   2.808  14.677 -0.0225  1.5092 -0.1460
 3643TIP3    H232345   2.452   2.726  14.569  0.5091  1.9990 -0.1941
 3644TIP3   OH232346   3.939   6.401  16.104 -0.0315  0.5935  0.1492
 3644TIP3    H132347   3.977   6.325  16.147 -0.4179 -1.1916 -2.4109
 3644TIP3    H232348   4.014   6.453  16.075  0.3125  0.1392  0.2216
 3645TIP3   OH232349   4.600   1.072  15.057 -0.6712 -0.2682 -0.0471
 3645TIP3    H132350   4.612   0.977  15.066  1.1674 -0.2047 -1.2912
 3645TIP3    H232351   4.508   1.082  15.033 -0.7188 -1.8152 -0.6436
 3646TIP3   OH232352   1.264   6.012  15.959  0.0658  0.4801 -0.1423
 3646TIP3    H132353   1.197   6.075  15.931  0.5320  0.8001 -0.5396
 3646TIP3    H232354   1.246   5.999  16.053 -0.0691  1.1628 -0.0680
 3647TIP3   OH232355   0.223   1.625   0.560 -0.0565  0.0369 -0.8346
 3647TIP3    H132356   0.135   1.630   0.523 -1.6082  1.0333  2.6058
 3647TIP3    H232357   0.228   1.537   0.597 -0.8786  0.9403  1.5947
 3648TIP3   OH232358   3.381   4.725   4.103 -0.5356  0.6727 -0.2030
 3648TIP3    H132359   3.413   4.797   4.049  0.2547  1.7961  1.6741
 3648TIP3    H232360   3.428   4.648   4.071 -1.4187  0.9282 -2.2637
 3649TIP3   OH232361   5.413   5.609  11.021 -0.1882 -0.1728 -0.3154
 3649TIP3    H132362   5.417   5.520  11.056 -1.5036  0.8514  2.7400
 3649TIP3    H232363   5.501   5.644  11.035 -0.1510 -0.4355  0.1106
 3650TIP3   OH232364   0.372   2.467   5.584  0.0327 -0.0988 -0.0631
 3650TIP3    H132365   0.288   2.426   5.564  0.6426 -0.6705 -1.6892
 3650TIP3    H232366   0.433   2.393   5.592  0.6465  0.3625 -0.3541
 3651TIP3   OH232367   3.484   2.295   2.741  0.0419  0.4677  0.3112
 3651TIP3    H132368   3.471   2.324   2.831 -0.2460  2.2092 -0.2519
 3651TIP3    H232369   3.456   2.370   2.688 -0.2637 -0.6964 -1.2394
 3652TIP3   OH232370   5.109   6.539   4.600  0.1720 -0.0691 -0.3127
 3652TIP3    H132371   5.144   6.588   4.526  2.0577 -0.7817  0.0255
 3652TIP3    H232372   5.077   6.605   4.661  1.6009  0.7083 -0.3665
 3653TIP3   OH232373   1.771   5.805   6.318 -0.0086  0.4208 -0.0965
 3653TIP3    H132374   1.778   5.714   6.346 -1.8407 -0.4375 -2.1428
 3653TIP3    H232375   1.796   5.856   6.395  1.7486 -1.7722  0.8992
 3654TIP3   OH232376   2.603   2.125   2.880 -0.1246 -0.3223  0.9947
 3654TIP3    H132377   2.627   2.036   2.857  3.1163  0.7538 -0.3446
 3654TIP3    H232378   2.563   2.161   2.801 -0.5059 -0.2901  1.1995
 3655TIP3   OH232379   6.115   5.792   1.861 -0.7341 -0.7366 -0.1530
 3655TIP3    H132380   6.181   5.802   1.930 -1.8505  2.3082  0.6127
 3655TIP3    H232381   6.163   5.803   1.779 -0.2566  1.7672  0.3968
 3656TIP3   OH232382   3.777   1.970   2.220  0.0838 -0.3760  1.0405
 3656TIP3    H132383   3.688   2.002   2.205  0.6603  1.2083  0.8195
 3656TIP3    H232384   3.773   1.876   2.199 -1.6381 -0.4509  1.5764
 3657TIP3   OH232385   4.774   2.210   4.409 -0.1276  0.3367  0.0040
 3657TIP3    H132386   4.718   2.271   4.455  0.2558  0.1825  0.6949
 3657TIP3    H232387   4.723   2.129   4.404 -0.4395  0.5594 -0.4662
 3658TIP3   OH232388   0.265   2.874   0.835  0.5040  0.7205 -0.1482
 3658TIP3    H132389   0.325   2.813   0.877 -0.2327 -0.4590 -0.7637
 3658TIP3    H232390   0.298   2.884   0.746  0.5577  1.1428 -0.0839
 3659TIP3   OH232391   3.933   1.584  12.221  0.1259 -1.1309  0.2369
 3659TIP3    H132392   3.962   1.496  12.244  0.5974 -1.1822 -0.5176
 3659TIP3    H232393   3.973   1.601  12.135  1.0218  0.2555  0.8733
 3660TIP3   OH232394   1.571   1.443  15.867  0.1729  0.0024 -0.3389
 3660TIP3    H132395   1.570   1.507  15.938  0.7359  0.6047 -0.8628
 3660TIP3    H232396   1.559   1.495  15.787  2.1143 -0.3376 -0.9063
 3661TIP3   OH232397   1.776   2.654  14.530  0.4138  0.8546  0.4167
 3661TIP3    H132398   1.720   2.643  14.607 -0.3729 -0.6833 -0.3353
 3661TIP3    H232399   1.788   2.566  14.496  2.2259  1.3099 -0.2160
 3662TIP3   OH232400   6.529   2.224   3.854  0.0174 -0.6041 -0.7048
 3662TIP3    H132401   6.441   2.234   3.819 -0.8362  1.0292  1.6492
 3662TIP3    H232402   6.521   2.248   3.946  2.8437 -0.8876 -0.2915
 3663TIP3   OH232403   1.618   2.403  13.902 -0.2239 -0.6443 -0.1761
 3663TIP3    H132404   1.585   2.455  13.828  1.1512  0.0065 -0.3654
 3663TIP3    H232405   1.621   2.464  13.975 -0.6282 -1.0298  0.1679
 3664TIP3   OH232406   5.133   3.864   0.899 -0.3518 -0.0861  0.2396
 3664TIP3    H132407   5.072   3.882   0.971  0.3105  0.8512  0.5896
 3664TIP3    H232408   5.078   3.836   0.826 -1.1140 -0.1114  0.8154
 3665TIP3   OH232409   2.569   5.748  13.270  0.0624  0.1448 -0.1171
 3665TIP3    H132410   2.593   5.737  13.362  0.0097 -1.4811 -0.2590
 3665TIP3    H232411   2.552   5.659  13.239 -1.8497  0.8102 -1.1936
 3666TIP3   OH232412   4.778   4.187   0.363  0.3004 -0.0950  0.0828
 3666TIP3    H132413   4.855   4.223   0.320 -0.2947  0.2662 -0.7037
 3666TIP3    H232414   4.734   4.137   0.294 -1.3451  1.5285 -0.1162
 3667TIP3   OH232415   2.466   5.133  17.075  0.0099 -0.1138 -0.0424
 3667TIP3    H132416   2.503   5.049  17.099 -1.2061 -0.8151 -0.5155
 3667TIP3    H232417   2.471   5.136  16.979 -2.0318 -0.7073 -0.2181
 3668TIP3   OH232418   3.515   3.971  14.543 -0.0810 -0.4079  0.3468
 3668TIP3    H132419   3.548   4.051  14.501 -0.2173 -1.1642 -1.2922
 3668TIP3    H232420   3.428   3.958  14.504 -1.1039 -0.0702  2.3843
 3669TIP3   OH232421   4.813   0.624   2.262 -0.4478 -0.2719 -0.5350
 3669TIP3    H132422   4.769   0.539   2.254 -2.5409  0.8325 -1.6567
 3669TIP3    H232423   4.748   0.680   2.304  0.1127  1.2808 -1.6558
 3670TIP3   OH232424   0.418   2.134  15.022  0.4674 -0.2977  0.3188
 3670TIP3    H132425   0.490   2.163  14.967  0.3427 -0.6966 -0.0636
 3670TIP3    H232426   0.377   2.215  15.053 -1.7137  0.1404 -3.1023
 3671TIP3   OH232427   5.688   3.649  12.481 -0.6479  0.2142 -0.0474
 3671TIP3    H132428   5.623   3.581  12.498 -0.1524  0.2752  2.4505
 3671TIP3    H232429   5.751   3.607  12.421 -1.4140 -0.8207 -0.1557
 3672TIP3   OH232430   2.672   3.903  14.215 -0.1813  0.2332 -0.3200
 3672TIP3    H132431   2.685   3.996  14.198  0.7857  0.3009  0.6681
 3672TIP3    H232432   2.740   3.859  14.163  0.7878  0.2487  0.8759
 3673TIP3   OH232433   5.314   1.111   2.669 -0.4097 -0.6321 -0.2756
 3673TIP3    H132434   5.224   1.085   2.686 -0.3340 -0.5466  0.2480
 3673TIP3    H232435   5.364   1.029   2.673 -0.4193 -0.6387 -0.2911
 3674TIP3   OH232436   0.373   0.967  12.618  0.4137 -0.1933 -0.2124
 3674TIP3    H132437   0.286   0.990  12.588  0.4588 -0.4824 -0.5640
 3674TIP3    H232438   0.419   0.936  12.540  1.1547  0.9059 -0.2287
 3675TIP3   OH232439   1.439   0.034  13.314  1.2056  0.3669 -0.1183
 3675TIP3    H132440   1.494   0.050  13.237  0.0790 -1.2202 -1.3316
 3675TIP3    H232441   1.417  -0.059  13.309 -1.0346  0.7773  0.6303
 3676TIP3   OH232442   5.443   6.679  16.642 -0.2133  0.1412 -0.1693
 3676TIP3    H132443   5.462   6.765  16.604 -2.2508  0.6765 -0.0420
 3676TIP3    H232444   5.369   6.694  16.700  0.2450 -1.4727  0.8889
 3677TIP3   OH232445   4.150   0.781  17.278 -0.6259  0.3641  0.0365
 3677TIP3    H132446   4.133   0.857  17.333  1.3117  1.0794 -0.2943
 3677TIP3    H232447   4.245   0.780  17.266 -0.6292 -1.9169 -0.2559
 3678TIP3   OH232448   1.500   1.106  11.358 -0.1988 -0.1142 -0.5361
 3678TIP3    H132449   1.545   1.069  11.282 -0.4844 -0.2980 -0.6176
 3678TIP3    H232450   1.490   1.199  11.337  0.1082 -0.0796 -0.5341
 3679TIP3   OH232451   1.980   3.273   4.191  0.5653  0.4249 -0.1983
 3679TIP3    H132452   1.921   3.277   4.116  0.6044 -0.3260 -0.2763
 3679TIP3    H232453   2.052   3.217   4.164  2.6479  3.2354 -0.9659
 3680TIP3   OH232454   4.353   2.888  11.751 -0.3164  0.1379  0.4777
 3680TIP3    H132455   4.409   2.932  11.687  1.3500  0.4519  2.0643
 3680TIP3    H232456   4.297   2.830  11.699  2.6944 -1.5415 -1.1378
 3681TIP3   OH232457   5.768   2.998   1.477 -0.3286  0.9833 -0.6085
 3681TIP3    H132458   5.799   2.997   1.567 -0.9973 -1.7464 -0.3162
 3681TIP3    H232459   5.841   3.034   1.427  0.4980  1.4578  0.8826
 3682TIP3   OH232460   4.100   2.979   2.764 -0.0680  0.6404  0.1548
 3682TIP3    H132461   4.013   3.018   2.754 -0.0602  0.9920  1.2737
 3682TIP3    H232462   4.158   3.035   2.713 -0.0737  2.1005  1.6660
 3683TIP3   OH232463   3.224   5.035   4.188 -0.0064  0.0936  0.4482
 3683TIP3    H132464   3.258   4.977   4.120 -0.4598 -1.5062  1.5209
 3683TIP3    H232465   3.300   5.082   4.221  0.3087  0.4221 -0.7060
 3684TIP3   OH232466   1.759   6.246  12.004  0.2920 -0.0234 -0.1250
 3684TIP3    H132467   1.840   6.270  11.958  0.8257 -1.4847 -0.0179
 3684TIP3    H232468   1.693   6.306  11.969  1.0012 -0.0931 -1.6825
 3685TIP3   OH232469   5.102   0.495   1.922 -0.0780 -0.1313  0.0056
 3685TIP3    H132470   5.099   0.492   2.017  2.6945  0.5741  0.2012
 3685TIP3    H232471   5.195   0.495   1.901 -0.5781  1.3485 -2.6545
 3686TIP3   OH232472   0.463   1.737  12.927 -0.0718  0.5592 -0.6419
 3686TIP3    H132473   0.528   1.768  12.864  0.4903 -2.2564 -1.5948
 3686TIP3    H232474   0.413   1.671  12.878  0.0337 -1.3683  1.6750
 3687TIP3   OH232475   0.385   1.467   2.498  0.0596 -0.3211 -0.2511
 3687TIP3    H132476   0.443   1.409   2.450  0.4997  0.6975 -0.9972
 3687TIP3    H232477   0.376   1.427   2.584  0.4157 -1.4322 -0.7167
 3688TIP3   OH232478   4.781   6.377   0.254 -0.1330 -0.0214 -0.4262
 3688TIP3    H132479   4.829   6.294   0.255 -0.8909 -0.4608 -0.1342
 3688TIP3    H232480   4.753   6.386   0.163 -0.3847 -0.2848 -0.3768
 3689TIP3   OH232481   1.159   6.700   6.123  0.7909  0.4893 -0.6560
 3689TIP3    H132482   1.113   6.734   6.200 -0.4876 -1.0983 -0.6413
 3689TIP3    H232483   1.197   6.617   6.154  1.9014  0.7698 -1.2419
 3690TIP3   OH232484   5.230   4.951   4.293 -0.3926 -0.1561 -0.3633
 3690TIP3    H132485   5.316   4.916   4.271  0.0226  1.2907 -1.2477
 3690TIP3    H232486   5.221   4.938   4.387  0.8103 -0.2974 -0.2563
 3691TIP3   OH232487   4.071   3.050  11.732 -0.7814 -0.1425  0.0243
 3691TIP3    H132488   4.057   2.992  11.807  0.7364 -0.6603 -0.0534
 3691TIP3    H232489   4.129   3.001  11.675 -1.4340  0.4949 -1.2277
 3692TIP3   OH232490   1.103   1.625  14.030  0.1321 -0.1415 -0.2674
 3692TIP3    H132491   1.189   1.605  13.994 -0.6530 -4.8994 -0.1215
 3692TIP3    H232492   1.044   1.622  13.955 -0.1104  2.8709 -0.3311
 3693TIP3   OH232493   0.793   0.913  14.508  0.5001  0.2459 -0.4713
 3693TIP3    H132494   0.766   0.823  14.494 -2.4087  1.1502 -1.5235
 3693TIP3    H232495   0.851   0.910  14.584 -1.6116 -2.1903  1.1942
 3694TIP3   OH232496   0.852   4.992  11.566  0.0954  0.0682  0.2160
 3694TIP3    H132497   0.940   4.955  11.574  1.1248  2.1334 -0.7657
 3694TIP3    H232498   0.860   5.081  11.600 -1.9420 -0.0729  1.2384
 3695TIP3   OH232499   6.479   2.929   0.532 -0.2115 -0.0266 -0.4203
 3695TIP3    H132500   6.440   2.989   0.596 -3.0600 -2.3687  0.2195
 3695TIP3    H232501   6.492   2.983   0.454 -3.2140  1.3540 -0.0720
 3696TIP3   OH232502   3.590   0.776  11.645 -0.0492 -0.1275  0.0998
 3696TIP3    H132503   3.514   0.727  11.676 -0.2508  0.2998  0.2954
 3696TIP3    H232504   3.658   0.758  11.709 -0.4477  0.7107  0.7810
 3697TIP3   OH232505   6.622   0.357   2.265 -0.1068 -0.0781  0.5517
 3697TIP3    H132506   6.554   0.418   2.295  0.3548  0.4173  0.6038
 3697TIP3    H232507   6.643   0.305   2.343  0.4448  0.5983  0.8677
 3698TIP3   OH232508   2.037   6.023   2.520 -0.2110 -0.1765 -0.4294
 3698TIP3    H132509   2.097   5.998   2.591 -0.4434 -0.4918 -0.3410
 3698TIP3    H232510   2.035   5.946   2.463 -1.3289 -0.5760  0.1158
 3699TIP3   OH232511   4.764   1.873   5.988  0.6776  0.4374 -0.3711
 3699TIP3    H132512   4.802   1.959   6.004  2.2451 -0.3462  0.3231
 3699TIP3    H232513   4.835   1.812   6.004 -0.1773 -0.9581 -1.6504
 3700TIP3   OH232514   1.650   5.917   3.057  0.5927 -0.2107 -0.0968
 3700TIP3    H132515   1.659   5.821   3.060 -0.1751 -0.3005 -0.2651
 3700TIP3    H232516   1.703   5.948   3.131 -0.0489 -0.8475  0.6590
 3701TIP3   OH232517   2.897   0.749  14.900 -0.6096 -0.0699 -0.4229
 3701TIP3    H132518   2.913   0.675  14.841  0.9511  0.1159 -0.2812
 3701TIP3    H232519   2.802   0.760  14.900 -0.8000 -1.4779 -1.1717
 3702TIP3   OH232520   6.096   1.742  16.628  0.5554 -0.4275 -0.3039
 3702TIP3    H132521   6.166   1.807  16.620  1.3455 -0.5823  3.4965
 3702TIP3    H232522   6.137   1.659  16.604  1.4871 -0.3912  1.0598
 3703TIP3   OH232523   0.064   2.699  11.376 -0.1573 -0.0281 -0.4004
 3703TIP3    H132524   0.035   2.766  11.438  1.0722  0.1550  0.0137
 3703TIP3    H232525   0.060   2.743  11.291 -0.6135  0.1454 -0.2911
 3704TIP3   OH232526   0.179   4.220  16.735 -0.1864 -0.2202 -0.2414
 3704TIP3    H132527   0.247   4.285  16.716  1.5391 -1.4485  1.3969
 3704TIP3    H232528   0.104   4.272  16.766  0.8541  1.0488  0.2184
 3705TIP3   OH232529   3.161   1.298   4.220 -0.3204  0.5476 -0.3957
 3705TIP3    H132530   3.067   1.291   4.203 -0.1170 -0.9649 -1.0864
 3705TIP3    H232531   3.168   1.322   4.312 -1.3858  1.0953 -0.4473
 3706TIP3   OH232532   2.328   2.585  16.371 -0.5260  0.0494 -0.0248
 3706TIP3    H132533   2.382   2.658  16.401  0.8760 -0.9292 -0.0400
 3706TIP3    H232534   2.353   2.512  16.428  0.5839 -1.2723 -2.0738
 3707TIP3   OH232535   2.508   5.534  17.211  0.0328  0.1172 -0.2512
 3707TIP3    H132536   2.579   5.479  17.180  0.3616  0.9773 -1.0656
 3707TIP3    H232537   2.432   5.476  17.215  0.4701 -0.4904 -0.6780
 3708TIP3   OH232538   4.538   4.302  15.499  0.2158  0.7187 -0.3087
 3708TIP3    H132539   4.469   4.329  15.559  0.2712 -0.0938  0.1392
 3708TIP3    H232540   4.542   4.207  15.508 -1.5108  0.2273 -3.4418
 3709TIP3   OH232541   4.090   3.103  10.883  0.1635  0.4045  0.4791
 3709TIP3    H132542   4.087   3.010  10.907 -1.2366  0.8149  2.0678
 3709TIP3    H232543   4.110   3.148  10.965  1.5592  1.5009 -0.4105
 3710TIP3   OH232544   6.210   2.204   5.744 -0.1687 -0.4257  0.0350
 3710TIP3    H132545   6.168   2.179   5.826 -1.8661  0.3127 -0.5574
 3710TIP3    H232546   6.251   2.124   5.713  1.6008 -0.4406  2.1711
 3711TIP3   OH232547   2.344   0.694   2.045 -0.4414 -0.0571  0.3509
 3711TIP3    H132548   2.369   0.637   2.117  1.1234 -1.7209 -1.3831
 3711TIP3    H232549   2.426   0.710   1.997 -1.3248  1.4388 -0.7505
 3712TIP3   OH232550   0.080   5.788  16.322  0.0360 -0.1672  0.7660
 3712TIP3    H132551   0.083   5.711  16.378  0.8287 -3.7918 -3.6359
 3712TIP3    H232552   0.035   5.757  16.243  0.4568  3.9385 -1.3284
 3713TIP3   OH232553   5.978   0.709  14.286 -0.4693  0.6608  0.5345
 3713TIP3    H132554   5.885   0.686  14.287  0.3262 -3.1627  1.1015
 3713TIP3    H232555   6.012   0.669  14.205  1.1717 -0.7518  1.8380
 3714TIP3   OH232556   4.507   3.651  13.072  0.0807 -0.1890 -0.5938
 3714TIP3    H132557   4.421   3.638  13.032 -0.3526 -0.6250  0.4361
 3714TIP3    H232558   4.497   3.729  13.126  0.2815 -0.3182 -0.3656
 3715TIP3   OH232559   6.012   4.847  15.863  0.3112 -0.0909 -0.4018
 3715TIP3    H132560   6.081   4.908  15.891  1.3285 -1.8292  1.1151
 3715TIP3    H232561   5.940   4.863  15.925 -0.0985  0.6822 -1.0535
 3716TIP3   OH232562   1.267   2.757  17.338  0.1277 -0.2492  0.1245
 3716TIP3    H132563   1.330   2.809  17.287  0.1265  0.3656  0.7297
 3716TIP3    H232564   1.193   2.744  17.279 -0.3231  1.3448  0.2854
 3717TIP3   OH232565   6.131   5.326   6.375 -0.5809 -0.3869 -0.0751
 3717TIP3    H132566   6.100   5.406   6.332  1.0489 -0.1660 -0.8935
 3717TIP3    H232567   6.058   5.301   6.432 -0.5653  2.5958  1.4730
 3718TIP3   OH232568   5.400   5.276  16.542 -0.1693  0.0917 -0.2180
 3718TIP3    H132569   5.365   5.273  16.631  1.0618 -0.1651  0.2770
 3718TIP3    H232570   5.405   5.369  16.522  0.3902  0.1912  0.3414
 3719TIP3   OH232571   0.556   3.593  17.025 -0.0821  0.3911  0.2150
 3719TIP3    H132572   0.599   3.577  17.108 -0.1463  1.0149  0.3685
 3719TIP3    H232573   0.473   3.634  17.049  0.9319  2.8541 -0.2421
 3720TIP3   OH232574   4.759   5.758   4.359 -0.4677 -0.2342  0.4634
 3720TIP3    H132575   4.795   5.829   4.411  1.2377 -0.9789  0.3917
 3720TIP3    H232576   4.810   5.760   4.277 -1.5470 -0.4866 -0.2373
 3721TIP3   OH232577   1.600   0.130  11.628 -0.2564  0.0398  0.3185
 3721TIP3    H132578   1.675   0.073  11.612 -0.3260  0.1502 -0.4023
 3721TIP3    H232579   1.625   0.215  11.592 -0.4814  0.2500  0.6466
 3722TIP3   OH232580   6.132   5.099   1.557 -0.4318 -0.1210  0.0417
 3722TIP3    H132581   6.062   5.042   1.524 -1.8142  1.5700 -0.0562
 3722TIP3    H232582   6.098   5.134   1.639  1.7012 -1.8219  1.8141
 3723TIP3   OH232583   0.495   3.348   2.667 -0.4854  0.5046 -0.3443
 3723TIP3    H132584   0.551   3.407   2.617 -2.3025  1.5169 -1.2891
 3723TIP3    H232585   0.518   3.260   2.636  1.8372  0.6941  0.6560
 3724TIP3   OH232586   5.304   3.318  15.937  1.0422  0.3953  0.0374
 3724TIP3    H132587   5.258   3.381  15.992 -0.2892  2.5461 -3.2340
 3724TIP3    H232588   5.351   3.372  15.873  3.9598 -1.8887  0.0589
 3725TIP3   OH232589   3.363   0.186  14.580  0.1177  0.0553  0.1885
 3725TIP3    H132590   3.313   0.178  14.498  0.0576  1.1684  0.1054
 3725TIP3    H232591   3.309   0.141  14.645  0.5897 -1.6389 -0.5374
 3726TIP3   OH232592   5.591   6.586  14.402  0.3296  0.2155  0.5246
 3726TIP3    H132593   5.633   6.566  14.485 -3.1521  0.0590  2.4351
 3726TIP3    H232594   5.569   6.500  14.365 -0.7774  0.3010  0.9617
 3727TIP3   OH232595   4.012   1.991  16.422 -0.4383 -0.2604  0.8413
 3727TIP3    H132596   4.097   2.032  16.440 -0.6506  0.1938  0.8348
 3727TIP3    H232597   4.011   1.981  16.326  0.1858 -1.5626  0.9554
 3728TIP3   OH232598   3.907   6.558   3.085 -0.8000 -0.2852 -0.3246
 3728TIP3    H132599   3.876   6.469   3.069 -1.0247 -0.3966  0.6566
 3728TIP3    H232600   3.849   6.591   3.154 -0.2591  0.3596 -0.1733
 3729TIP3   OH232601   2.692   4.905   3.051 -0.6641 -0.2075 -0.7043
 3729TIP3    H132602   2.672   4.974   2.988  0.1956 -0.7360 -1.5789
 3729TIP3    H232603   2.659   4.825   3.009 -1.2295 -0.4025  0.0901
 3730TIP3   OH232604   5.674   5.725  13.313  0.5493 -0.1146 -0.2749
 3730TIP3    H132605   5.763   5.703  13.289  0.5077 -1.4680  0.7375
 3730TIP3    H232606   5.632   5.750  13.230  2.2920  2.3186 -0.5482
 3731TIP3   OH232607   4.818   1.680   5.074 -0.0129  0.0350  0.6358
 3731TIP3    H132608   4.894   1.676   5.132  2.4828 -0.2539 -2.3647
 3731TIP3    H232609   4.856   1.688   4.986 -3.4542 -1.6439 -1.1949
 3732TIP3   OH232610   0.730   5.777   1.043  0.1011 -0.0829 -0.3656
 3732TIP3    H132611   0.787   5.760   0.968  1.4529 -0.1290  0.6400
 3732TIP3    H232612   0.786   5.821   1.107 -0.3163 -2.1086  1.5596
 3733TIP3   OH232613   5.879   3.701   5.702 -0.4062  0.0453 -0.1543
 3733TIP3    H132614   5.876   3.795   5.685 -2.2786  0.3906  1.7190
 3733TIP3    H232615   5.972   3.683   5.718 -0.1144  1.7309  0.2430
 3734TIP3   OH232616   4.816   1.891  16.832 -0.1689  0.1158 -0.4886
 3734TIP3    H132617   4.855   1.928  16.752 -0.7591  1.8766 -0.0111
 3734TIP3    H232618   4.827   1.797  16.823 -0.1411  0.2793 -2.6144
 3735TIP3   OH232619   5.013   1.339  15.066 -0.6035  0.1638  0.1643
 3735TIP3    H132620   4.944   1.279  15.094 -2.3355  1.4883 -1.0610
 3735TIP3    H232621   4.994   1.421  15.112  2.3401 -0.3630  2.6541
 3736TIP3   OH232622   0.017   3.197  16.116  0.1998 -0.1897 -0.1345
 3736TIP3    H132623   0.031   3.246  16.035 -1.3638  0.0798 -0.2752
 3736TIP3    H232624   0.065   3.247  16.182 -0.6316  1.0726 -0.4408
 3737TIP3   OH232625   0.360   5.262  11.330  0.0498  0.1379 -0.3369
 3737TIP3    H132626   0.329   5.196  11.268 -1.5275  0.7092 -0.1932
 3737TIP3    H232627   0.360   5.218  11.415 -0.1488  0.0617 -0.3762
 3738TIP3   OH232628   1.383   0.374  13.368 -0.2105  0.6574  0.0716
 3738TIP3    H132629   1.454   0.340  13.422  0.0565  0.4330 -0.4194
 3738TIP3    H232630   1.403   0.467  13.356  1.1123  0.1833 -1.7649
 3739TIP3   OH232631   3.552   4.138  11.681 -0.2518 -0.0494 -1.0413
 3739TIP3    H132632   3.552   4.195  11.757  0.8286 -0.0148 -1.0426
 3739TIP3    H232633   3.525   4.195  11.608  1.1387  0.5884 -1.1059
 3740TIP3   OH232634   2.284   1.947  16.560  0.2263  0.3459  0.4074
 3740TIP3    H132635   2.240   1.968  16.642 -1.4079  1.5814 -0.7411
 3740TIP3    H232636   2.337   2.024  16.541  1.5180 -0.3999  0.8439
 3741TIP3   OH232637   3.397   3.748  13.232  0.4123  0.3240  0.4861
 3741TIP3    H132638   3.448   3.829  13.227 -0.4484  0.8362 -0.8423
 3741TIP3    H232639   3.328   3.760  13.167 -0.7794 -0.7664  1.4860
 3742TIP3   OH232640   2.791   5.965  13.323 -0.3353  0.0792 -0.0563
 3742TIP3    H132641   2.842   5.962  13.404  0.0938  2.1978 -0.2000
 3742TIP3    H232642   2.700   5.954  13.351 -0.3293  2.0583  0.9155
 3743TIP3   OH232643   6.250   0.354  11.376 -0.1803  0.0341  0.3576
 3743TIP3    H132644   6.346   0.354  11.380 -0.1586  0.1712 -0.0816
 3743TIP3    H232645   6.231   0.367  11.283 -0.6241 -1.4529  0.2167
 3744TIP3   OH232646   2.576   3.395   5.656 -0.1924  0.6228 -0.0820
 3744TIP3    H132647   2.550   3.309   5.622 -1.7819  0.1361  2.1581
 3744TIP3    H232648   2.506   3.454   5.628  0.9707  1.2983 -1.7468
 3745TIP3   OH232649   5.336   0.028  17.222 -0.0739 -0.0409 -0.5031
 3745TIP3    H132650   5.375   0.089  17.284  0.1754 -2.0584  1.4514
 3745TIP3    H232651   5.257   0.073  17.191  0.5567  1.6120  0.1767
 3746TIP3   OH232652   4.273   0.976   5.313 -0.4130  0.1907  0.0723
 3746TIP3    H132653   4.253   1.015   5.398 -1.0722  0.3549 -0.1482
 3746TIP3    H232654   4.200   0.917   5.296  0.4747 -1.0081  0.3144
 3747TIP3   OH232655   1.927   5.702   5.212 -0.6780 -0.0626 -0.0456
 3747TIP3    H132656   1.906   5.619   5.254 -0.2536 -0.2375 -0.1685
 3747TIP3    H232657   2.004   5.734   5.260  0.5123 -0.8124 -1.3721
 3748TIP3   OH232658   1.325   3.277   3.758  0.3369 -0.1201 -0.3484
 3748TIP3    H132659   1.280   3.287   3.674  1.7898 -0.9573 -1.2788
 3748TIP3    H232660   1.379   3.355   3.766 -0.1994  0.2131  0.0825
 3749TIP3   OH232661   1.780   3.440  13.552 -0.3250  0.0361  0.5563
 3749TIP3    H132662   1.720   3.382  13.503  0.7503 -0.7722  0.1484
 3749TIP3    H232663   1.779   3.405  13.641  1.2822 -1.4734  0.0417
 3750TIP3   OH232664   5.163   0.933  15.834 -0.1268 -0.4821 -0.2082
 3750TIP3    H132665   5.073   0.913  15.859  0.1587 -0.5734  0.7926
 3750TIP3    H232666   5.202   0.973  15.913  0.2926  0.9072 -1.0757
 3751TIP3   OH232667   4.566   1.478  15.209  0.3694 -0.1716  0.3512
 3751TIP3    H132668   4.487   1.424  15.206  0.3046 -0.1288  1.1601
 3751TIP3    H232669   4.622   1.442  15.139 -0.2121 -0.4313  0.0106
 3752TIP3   OH232670   6.065   4.239   2.158  0.3907 -0.5593  0.1453
 3752TIP3    H132671   5.997   4.305   2.142 -1.0853 -1.9171  0.5190
 3752TIP3    H232672   6.111   4.270   2.237  0.3812  0.5008 -0.2490
 3753TIP3   OH232673   4.889   3.124   4.419  0.0696  0.7793 -0.1924
 3753TIP3    H132674   4.870   3.033   4.441 -2.2616  0.3095 -3.3966
 3753TIP3    H232675   4.984   3.130   4.418  0.2752 -1.6892 -0.1622
 3754TIP3   OH232676   6.282   1.168  11.796  0.2389  0.1388  0.6667
 3754TIP3    H132677   6.341   1.098  11.826  0.9081 -0.2923 -1.5225
 3754TIP3    H232678   6.213   1.122  11.748 -0.4725  0.8499  0.9909
 3755TIP3   OH232679   1.524   5.500  13.802  0.6258  0.7738 -0.2338
 3755TIP3    H132680   1.495   5.580  13.759  1.7727  2.0424  1.2742
 3755TIP3    H232681   1.496   5.509  13.893  0.7788 -0.5453 -0.0343
 3756TIP3   OH232682   5.163   6.101  14.047 -0.2643  0.2168 -0.0253
 3756TIP3    H132683   5.140   6.081  14.137  0.4672 -0.8127 -0.0493
 3756TIP3    H232684   5.206   6.022  14.015  0.2430  0.8677 -1.0156
 3757TIP3   OH232685   0.014   3.218   3.699 -0.2877 -0.2236 -0.3132
 3757TIP3    H132686  -0.035   3.179   3.772  0.1374 -1.3341 -0.5963
 3757TIP3    H232687  -0.053   3.235   3.632 -0.7808  1.4058  0.5553
 3758TIP3   OH232688   2.378   4.454  16.228 -0.0066 -0.2392  0.1205
 3758TIP3    H132689   2.383   4.549  16.215 -1.4040 -0.0227  1.0215
 3758TIP3    H232690   2.465   4.422  16.203  0.4430  1.2560 -0.3174
 3759TIP3   OH232691   0.679   0.374  11.972  0.2528 -0.3743 -0.1501
 3759TIP3    H132692   0.718   0.399  12.055  0.3564  0.4503 -0.4433
 3759TIP3    H232693   0.723   0.293  11.948 -0.2015 -0.9439  0.8821
 3760TIP3   OH232694   2.136   6.717  17.377 -0.0815 -0.3045 -0.5802
 3760TIP3    H132695   2.045   6.715  17.349 -0.4493  1.7966  0.3322
 3760TIP3    H232696   2.134   6.682  17.467 -0.3897  1.7738  0.2808
 3761TIP3   OH232697   4.270   0.166   6.190 -0.5305 -0.1874 -1.1322
 3761TIP3    H132698   4.288   0.091   6.133 -1.1256 -1.0956 -0.1612
 3761TIP3    H232699   4.289   0.135   6.278 -1.7285  0.4911 -0.6077
 3762TIP3   OH232700   3.594   4.114  13.482  0.6884  0.1878 -0.8818
 3762TIP3    H132701   3.657   4.137  13.550  0.7102 -1.1781 -0.4100
 3762TIP3    H232702   3.509   4.141  13.518  0.3673 -2.6442  0.8408
 3763TIP3   OH232703   3.615   4.319  11.874  0.1408 -0.8182  0.3389
 3763TIP3    H132704   3.709   4.320  11.891  0.1167 -1.3384  0.5253
 3763TIP3    H232705   3.602   4.382  11.803  0.6842 -1.0566  0.0231
 3764TIP3   OH232706   0.011   2.176  12.810 -0.5106 -0.2671 -0.3169
 3764TIP3    H132707  -0.032   2.241  12.865 -0.2362  2.2563 -2.8134
 3764TIP3    H232708   0.102   2.205  12.806 -0.4647 -0.5284 -1.7906
 3765TIP3   OH232709   0.311   5.680  12.898  0.4324  0.4837  0.5583
 3765TIP3    H132710   0.399   5.684  12.937 -0.6428  1.5982  3.0995
 3765TIP3    H232711   0.294   5.770  12.869  0.1957  0.2119 -0.1788
 3766TIP3   OH232712   1.053   2.646   2.759  0.6174  0.5601 -0.1853
 3766TIP3    H132713   1.092   2.560   2.776  1.5534  0.8815 -0.6141
 3766TIP3    H232714   1.111   2.686   2.693 -0.4384  1.0718 -0.8311
 3767TIP3   OH232715   5.293   5.339   0.350  1.0787 -0.6809 -1.0243
 3767TIP3    H132716   5.372   5.392   0.345  1.2735 -0.5726  1.6652
 3767TIP3    H232717   5.240   5.383   0.417 -0.3170 -1.9481 -1.2572
 3768TIP3   OH232718   6.229   4.335   1.068 -0.4227  0.1955  0.7181
 3768TIP3    H132719   6.139   4.357   1.093 -0.4953 -2.0776  2.8994
 3768TIP3    H232720   6.219   4.269   0.999 -0.4532 -0.4375  1.3233
 3769TIP3   OH232721   4.881   2.100   6.045  0.5944 -0.2946 -0.3147
 3769TIP3    H132722   4.803   2.154   6.062  0.5123 -0.4038 -0.3452
 3769TIP3    H232723   4.954   2.154   6.076  0.4817 -0.3166 -0.0014
 3770TIP3   OH232724   1.085   1.879   3.295  0.2083 -0.1044  0.3044
 3770TIP3    H132725   1.174   1.859   3.326  0.0419 -2.0585 -0.3499
 3770TIP3    H232726   1.094   1.961   3.247  1.5063  0.1284  0.9085
 3771TIP3   OH232727   3.706   3.326  12.474  0.0541 -0.2889  0.5729
 3771TIP3    H132728   3.693   3.419  12.459  0.4092  0.0601  2.1572
 3771TIP3    H232729   3.660   3.282  12.403 -1.0754  1.0795  0.4297
 3772TIP3   OH232730   4.404   3.046   0.626  0.1504  0.5707  0.5364
 3772TIP3    H132731   4.313   3.049   0.596 -0.1310 -3.4199  0.4835
 3772TIP3    H232732   4.453   3.091   0.558 -1.0709 -3.7418 -3.7418
 3773TIP3   OH232733   0.473   2.173  16.070  0.5355  0.1187 -0.0107
 3773TIP3    H132734   0.487   2.248  16.012  1.1816 -0.2574 -0.3610
 3773TIP3    H232735   0.528   2.104  16.033  0.2591 -0.4044  0.5391
 3774TIP3   OH232736   5.382   0.258   0.418  0.2734 -1.3983  0.0121
 3774TIP3    H132737   5.315   0.195   0.392 -0.6436 -0.8263  0.8942
 3774TIP3    H232738   5.370   0.332   0.359 -1.0615 -0.5688  1.2707
 3775TIP3   OH232739   1.258   4.115   3.255  0.5096  0.3918  0.0120
 3775TIP3    H132740   1.294   4.044   3.202 -1.5389 -0.7499  0.0875
 3775TIP3    H232741   1.316   4.118   3.332  0.7606 -1.0433 -0.0913
 3776TIP3   OH232742   0.872   1.228   1.989  0.3730 -0.3422  0.1942
 3776TIP3    H132743   0.902   1.273   2.069 -0.5594  0.1514  0.2905
 3776TIP3    H232744   0.808   1.165   2.021 -0.2463  0.0849 -0.1842
 3777TIP3   OH232745   2.312   3.838   0.235  0.0518  0.5936 -0.0389
 3777TIP3    H132746   2.248   3.898   0.197  0.3647 -0.6264 -2.6595
 3777TIP3    H232747   2.306   3.759   0.181  1.9178 -0.5344  1.3132
 3778TIP3   OH232748   0.799   6.311   0.521 -0.3699  0.0273  0.2988
 3778TIP3    H132749   0.733   6.242   0.528 -0.3536 -0.0571 -0.3322
 3778TIP3    H232750   0.880   6.270   0.552 -0.6870  0.2652  1.5101
 3779TIP3   OH232751   3.783   2.024   4.554 -0.2606  0.0740 -0.6283
 3779TIP3    H132752   3.803   1.949   4.610 -0.2292  1.0891  0.7668
 3779TIP3    H232753   3.858   2.029   4.494  0.7587  0.2174  0.6157
 3780TIP3   OH232754   1.806   0.031  16.250 -0.8496  0.5693  0.3986
 3780TIP3    H132755   1.896   0.007  16.227 -0.8066 -1.1744  2.1151
 3780TIP3    H232756   1.765  -0.052  16.274 -3.0334  1.2847 -0.6030
 3781TIP3   OH232757   0.933   6.130   3.660  0.1665 -0.0122 -0.6139
 3781TIP3    H132758   0.951   6.199   3.724 -0.0887  0.2779 -0.8537
 3781TIP3    H232759   0.984   6.055   3.691 -0.0703  0.0787  0.0119
 3782TIP3   OH232760   1.406   3.865   3.177  0.2630  0.6102 -0.1210
 3782TIP3    H132761   1.375   3.919   3.105 -0.9602 -0.5974 -0.5541
 3782TIP3    H232762   1.472   3.808   3.138 -1.0327 -0.6683 -0.5780
 3783TIP3   OH232763   5.251   3.012   3.062 -0.4178 -0.0010  0.1043
 3783TIP3    H132764   5.225   2.959   2.986  1.4244 -1.3005  0.2945
 3783TIP3    H232765   5.232   2.956   3.137  2.2465 -0.8455  0.2722
 3784TIP3   OH232766   1.668   0.273  16.213 -0.2155 -0.0713  0.1762
 3784TIP3    H132767   1.699   0.318  16.292 -0.2746  0.2447  0.0195
 3784TIP3    H232768   1.705   0.185  16.220  0.5445  0.2326  0.0949
 3785TIP3   OH232769   4.714   0.064  13.100  0.2307 -0.0186  0.2605
 3785TIP3    H132770   4.785   0.028  13.046 -0.0910 -0.5267  0.1735
 3785TIP3    H232771   4.717   0.014  13.181  0.0384  0.0375  0.3021
 3786TIP3   OH232772   1.807   2.907   2.951 -0.2042 -0.1104  0.6090
 3786TIP3    H132773   1.738   2.893   3.016  0.3840  1.1417  1.5270
 3786TIP3    H232774   1.886   2.872   2.992 -0.1240 -0.8085 -0.1159
 3787TIP3   OH232775   4.453   6.583   1.657 -0.0655  0.5547 -0.1555
 3787TIP3    H132776   4.358   6.591   1.667  0.0516  2.0313  0.0975
 3787TIP3    H232777   4.488   6.651   1.715  1.0838  1.0896 -1.4225
 3788TIP3   OH232778   3.513   4.790  13.208 -0.6566  0.3938 -0.0815
 3788TIP3    H132779   3.545   4.730  13.142 -1.2316 -1.4012  1.1995
 3788TIP3    H232780   3.507   4.875  13.163 -0.0614 -0.5309 -1.9970
 3789TIP3   OH232781   0.678   3.192   1.618 -0.7688  0.1700  0.2508
 3789TIP3    H132782   0.599   3.187   1.564 -1.5465 -0.3936  1.4112
 3789TIP3    H232783   0.693   3.102   1.648  0.8273  0.1029 -0.6481
 3790TIP3   OH232784   4.434   0.731   1.301  0.3881 -0.1281 -0.3477
 3790TIP3    H132785   4.442   0.636   1.302  1.4003 -0.0470 -0.0752
 3790TIP3    H232786   4.485   0.758   1.225  0.8758  0.2589  0.1128
 3791TIP3   OH232787   1.959   6.713   4.380  0.4260  0.4235  0.2442
 3791TIP3    H132788   1.964   6.625   4.417 -2.0379  0.1690  0.0921
 3791TIP3    H232789   1.984   6.771   4.452  2.3883 -0.3519  0.2530
 3792TIP3   OH232790   3.910   6.617  12.351  0.5383  0.1570 -0.4726
 3792TIP3    H132791   3.881   6.579  12.435  2.5013  0.7901  0.5629
 3792TIP3    H232792   3.950   6.700  12.376  2.0211 -0.0870 -1.9207
 3793TIP3   OH232793   5.012   3.731   0.644 -0.1393 -0.4297 -0.1344
 3793TIP3    H132794   4.925   3.730   0.606 -0.6363 -1.2145  0.9665
 3793TIP3    H232795   5.071   3.738   0.569 -1.0830 -1.5605 -1.0244
 3794TIP3   OH232796   0.790   3.511   1.300 -0.1293  0.8360  0.2639
 3794TIP3    H132797   0.831   3.592   1.330 -1.0772  1.0465  1.0471
 3794TIP3    H232798   0.732   3.538   1.229 -1.5459  1.1195  1.4597
 3795TIP3   OH232799   3.985   4.674  11.706 -0.2757 -0.4809 -0.6064
 3795TIP3    H132800   4.079   4.692  11.710 -0.0814 -1.6067  1.4439
 3795TIP3    H232801   3.944   4.759  11.723  0.3819 -0.0802 -0.9879
 3796TIP3   OH232802   2.185   5.545   4.478  0.2104 -0.1366 -0.3156
 3796TIP3    H132803   2.250   5.532   4.408  0.7280  1.5841 -0.1898
 3796TIP3    H232804   2.185   5.462   4.525  4.1921  0.5129  1.1839
 3797TIP3   OH232805   6.072   6.523  16.392 -0.3347  0.0003 -0.4575
 3797TIP3    H132806   6.000   6.467  16.362  0.7172 -1.4747 -0.3399
 3797TIP3    H232807   6.028   6.597  16.435 -1.7809 -0.9823 -0.1578
 3798TIP3   OH232808   6.470   2.684  14.306 -0.2564 -0.3814 -0.5591
 3798TIP3    H132809   6.520   2.603  14.294 -2.7141 -2.4087  1.5440
 3798TIP3    H232810   6.507   2.723  14.385 -1.3853 -1.5243  0.6014
 3799TIP3   OH232811   3.856   1.689  13.194 -0.2658 -0.6199  0.1059
 3799TIP3    H132812   3.947   1.714  13.204 -0.3269 -0.7846  1.1668
 3799TIP3    H232813   3.824   1.741  13.120  0.4110  0.1848  0.3705
 3800TIP3   OH232814   5.594   2.318  14.028 -0.4259 -0.1692 -0.3576
 3800TIP3    H132815   5.517   2.260  14.032 -0.1076 -0.5748  0.1343
 3800TIP3    H232816   5.571   2.384  13.963 -1.5986  0.2987  0.5005
 3801TIP3   OH232817   1.993   2.274   5.418  0.1190 -0.1519  0.1926
 3801TIP3    H132818   2.084   2.298   5.434 -0.0365  1.1363 -0.6910
 3801TIP3    H232819   1.971   2.319   5.336 -0.4351 -2.8260 -1.2430
 3802TIP3   OH232820   1.024   5.346   2.870 -0.6792 -0.3628 -0.5408
 3802TIP3    H132821   1.071   5.426   2.895 -1.2915 -0.1876  0.0607
 3802TIP3    H232822   1.093   5.285   2.844 -0.0369 -0.4245  1.2200
 3803TIP3   OH232823   3.104   0.021   4.430  0.2948  0.2976  0.4150
 3803TIP3    H132824   3.138   0.109   4.413 -1.1841  0.8298  0.0047
 3803TIP3    H232825   3.010   0.034   4.442  0.1470 -1.1473  1.0761
 3804TIP3   OH232826   6.579   4.636   0.102  0.0818  0.2673 -0.1072
 3804TIP3    H132827   6.628   4.718   0.111 -0.7290  0.5681  2.3215
 3804TIP3    H232828   6.591   4.592   0.186 -2.9396 -0.1219  0.2115
 3805TIP3   OH232829   4.608   5.616  14.728 -0.4422 -0.4228 -0.0106
 3805TIP3    H132830   4.542   5.565  14.682 -0.3693  0.5431 -1.2330
 3805TIP3    H232831   4.653   5.665  14.659  0.7033 -0.0956  0.9351
 3806TIP3   OH232832   4.566   2.438  15.823 -0.1012 -0.1108 -0.5034
 3806TIP3    H132833   4.654   2.472  15.842 -0.1632  0.0831 -0.5605
 3806TIP3    H232834   4.552   2.369  15.888  0.4318 -0.7287 -1.0261
 3807TIP3   OH232835   1.913   2.964   4.509 -0.0520 -0.7281  0.0459
 3807TIP3    H132836   1.894   2.950   4.602 -1.5413 -0.8198 -0.2581
 3807TIP3    H232837   1.938   3.057   4.504  0.2108 -0.7662  0.5576
 3808TIP3   OH232838   4.532   4.327   3.626 -0.4122  0.8244 -0.0411
 3808TIP3    H132839   4.535   4.422   3.616  1.0675  0.6139 -2.7821
 3808TIP3    H232840   4.514   4.294   3.538  1.1545 -1.4706  0.3920
 3809TIP3   OH232841   4.857   5.198  15.900 -0.1932 -0.2906 -0.2193
 3809TIP3    H132842   4.907   5.263  15.950  1.6485 -2.0443  0.3561
 3809TIP3    H232843   4.918   5.167  15.834 -0.5284 -2.3570  0.3605
 3810TIP3   OH232844   0.599   5.500   4.327  0.0762 -0.3521 -0.1575
 3810TIP3    H132845   0.596   5.438   4.255  0.8699 -1.4235  0.7040
 3810TIP3    H232846   0.669   5.468   4.384 -1.0559  0.0111  1.5003
 3811TIP3   OH232847   5.259   5.126  12.080  0.5244 -0.4436 -0.3444
 3811TIP3    H132848   5.246   5.104  12.172 -0.0705 -0.4023 -0.4199
 3811TIP3    H232849   5.258   5.041  12.035 -0.6897 -0.3642 -0.4972
 3812TIP3   OH232850   5.748   5.071   3.988 -0.6621 -0.3580 -0.0133
 3812TIP3    H132851   5.762   5.012   4.062 -0.3622 -0.3146 -0.0369
 3812TIP3    H232852   5.700   5.018   3.925 -0.4356 -0.5633 -0.0136
 3813TIP3   OH232853   0.716   0.890  10.501 -0.2075 -0.1854 -0.1978
 3813TIP3    H132854   0.704   0.935  10.418 -1.5663  1.6308  0.9019
 3813TIP3    H232855   0.632   0.849  10.519 -0.1450  0.0078  0.5843
 3814TIP3   OH232856   0.781   6.215   4.020  0.3325  0.1360  0.2841
 3814TIP3    H132857   0.854   6.159   3.992 -1.6940 -1.2752 -2.6471
 3814TIP3    H232858   0.804   6.241   4.110  3.4740 -1.7705  0.1807
 3815TIP3   OH232859   0.888   2.216   5.771 -0.0498  0.4175  0.5147
 3815TIP3    H132860   0.980   2.240   5.764 -0.6779  2.9492 -0.1181
 3815TIP3    H232861   0.851   2.279   5.833 -1.5135 -0.0792  0.1985
 3816TIP3   OH232862   2.521   3.960  11.084 -0.4905 -0.2284  0.4101
 3816TIP3    H132863   2.580   3.885  11.083 -1.6083 -1.1521  1.1074
 3816TIP3    H232864   2.434   3.923  11.068 -0.8886  1.1067 -0.6919
 3817TIP3   OH232865   5.820   4.287  16.254  0.0194 -0.7972 -0.2529
 3817TIP3    H132866   5.890   4.315  16.313 -0.6614  1.5614 -0.4331
 3817TIP3    H232867   5.761   4.235  16.309  0.0878  0.2382  0.8612
 3818TIP3   OH232868   5.213   1.121   5.723  0.8107  0.2634 -0.3181
 3818TIP3    H132869   5.155   1.064   5.672  0.0776  2.1940 -1.7692
 3818TIP3    H232870   5.245   1.065   5.793 -0.7726 -1.6022 -0.9744
 3819TIP3   OH232871   0.557   1.958   1.086  0.4843  0.5599 -0.1680
 3819TIP3    H132872   0.474   1.966   1.134  1.0793  0.9856  0.8127
 3819TIP3    H232873   0.542   2.008   1.006 -0.9707 -1.2461 -1.0941
 3820TIP3   OH232874   2.134   6.173   1.425  0.6058  0.2302 -0.1489
 3820TIP3    H132875   2.055   6.208   1.467  1.5737 -0.5861  2.5485
 3820TIP3    H232876   2.120   6.079   1.422  1.4523  0.0677  0.4243
 3821TIP3   OH232877   0.978   0.082  11.622  0.0974  0.0689  0.0485
 3821TIP3    H132878   1.025   0.080  11.538  0.0269  1.7361 -0.0552
 3821TIP3    H232879   1.041   0.118  11.684  0.5723 -2.2977  1.0494
 3822TIP3   OH232880   5.580   4.686   1.898 -0.2559 -0.0897  0.1321
 3822TIP3    H132881   5.529   4.766   1.887  1.2400  1.0155  0.9382
 3822TIP3    H232882   5.519   4.616   1.874 -2.1481  1.1501  1.0730
 3823TIP3   OH232883   4.528   5.623  15.261 -0.0538 -0.4479  0.4232
 3823TIP3    H132884   4.611   5.633  15.214 -0.7938  0.3439 -0.7620
 3823TIP3    H232885   4.502   5.533  15.245 -0.8798  0.1188 -1.7566
 3824TIP3   OH232886   1.800   3.959   4.611 -0.6326 -0.9602  0.3721
 3824TIP3    H132887   1.887   3.961   4.651 -0.6296 -1.4305  0.3947
 3824TIP3    H232888   1.796   4.038   4.558 -0.1252 -1.0270  0.2322
 3825TIP3   OH232889   6.555   5.961   0.835  0.2779  0.2790 -0.1421
 3825TIP3    H132890   6.573   5.957   0.929 -0.1198 -2.9886 -0.0905
 3825TIP3    H232891   6.485   6.026   0.826  2.5606  3.1907  1.2954
 3826TIP3   OH232892   6.440   4.479   4.914  0.3081  0.1029  0.1581
 3826TIP3    H132893   6.480   4.548   4.861  2.4304 -0.2598  1.2080
 3826TIP3    H232894   6.478   4.490   5.001  0.8859 -2.5211  0.3174
 3827TIP3   OH232895   1.171   5.673  14.480 -0.0978 -0.2073  0.0524
 3827TIP3    H132896   1.155   5.666  14.574 -0.2752  0.5939  0.0886
 3827TIP3    H232897   1.090   5.640  14.440 -0.2178 -0.0691  0.1828
 3828TIP3   OH232898   5.440   0.852  15.027  0.0467  1.1114 -0.1177
 3828TIP3    H132899   5.428   0.937  14.985  0.4551  0.0202 -2.6479
 3828TIP3    H232900   5.409   0.789  14.962  3.2788 -0.8672  0.0576
 3829TIP3   OH232901   1.900   2.513  11.288  0.9405 -0.1195 -0.8359
 3829TIP3    H132902   1.970   2.494  11.225  0.3116  0.1658 -1.6312
 3829TIP3    H232903   1.837   2.566  11.239  0.1785 -0.3461 -0.1220
 3830TIP3   OH232904   3.195   0.533  11.937  0.0151  0.4858  0.0441
 3830TIP3    H132905   3.140   0.460  11.910 -2.1733  1.4583  1.5462
 3830TIP3    H232906   3.159   0.609  11.892 -1.5694  1.5545  2.8741
 3831TIP3   OH232907   3.927   6.153  10.774 -0.3472 -0.5223  0.0625
 3831TIP3    H132908   3.978   6.224  10.735 -0.2685 -0.1165  0.8658
 3831TIP3    H232909   3.872   6.196  10.840  0.0203 -1.2482  0.8755
 3832TIP3   OH232910   4.665   2.156  15.660  0.7092  0.1761  0.0501
 3832TIP3    H132911   4.712   2.089  15.610  0.4949 -0.8099  1.1415
 3832TIP3    H232912   4.709   2.159  15.744  0.1473  0.7763  0.3310
 3833TIP3   OH232913   1.831   5.674   2.702  0.0286 -0.5644  0.3515
 3833TIP3    H132914   1.765   5.740   2.724  1.2189  1.1230 -0.8734
 3833TIP3    H232915   1.898   5.685   2.769 -0.3301 -1.4015  0.8572
 3834TIP3   OH232916   4.171   0.302   0.304 -0.3510 -0.0198  0.1674
 3834TIP3    H132917   4.228   0.363   0.256  0.9446  0.6764  2.3795
 3834TIP3    H232918   4.094   0.354   0.326  1.3938  1.5603  3.3678
 3835TIP3   OH232919   5.944   3.103  11.764  0.0034 -0.3990  0.1834
 3835TIP3    H132920   6.006   3.168  11.730  0.8626 -0.7266  1.0678
 3835TIP3    H232921   5.864   3.152  11.782  0.4339  0.2911  0.2304
 3836TIP3   OH232922   5.196   2.169   4.002 -0.3600  0.1267  0.7640
 3836TIP3    H132923   5.111   2.125   4.005 -0.5354  0.4564  0.7280
 3836TIP3    H232924   5.235   2.152   4.088 -0.8009  0.6302  1.0679
 3837TIP3   OH232925   4.242   3.875  12.724 -0.2096 -0.4694  0.3183
 3837TIP3    H132926   4.243   3.965  12.757 -0.5326  0.0610 -1.0676
 3837TIP3    H232927   4.243   3.884  12.629 -0.0555 -1.9441  0.1579
 3838TIP3   OH232928   3.602   6.282  13.620  0.1344 -0.3159 -0.5098
 3838TIP3    H132929   3.580   6.374  13.633  2.7888  0.4468 -0.6451
 3838TIP3    H232930   3.649   6.258  13.700  0.0214 -1.3511 -0.7501
 3839TIP3   OH232931   2.962   2.465  13.874 -0.6526 -0.1833  0.4224
 3839TIP3    H132932   2.879   2.432  13.909  0.5190 -3.1942  0.6810
 3839TIP3    H232933   2.972   2.552  13.913 -3.0751 -0.2644  1.3690
 3840TIP3   OH232934   0.845   4.218   3.590 -0.0366  0.1970 -0.1290
 3840TIP3    H132935   0.838   4.210   3.685  2.0031  2.0316  0.2448
 3840TIP3    H232936   0.787   4.291   3.568 -2.8813 -2.0755 -0.8089
 3841TIP3   OH232937   3.891   3.794   5.696 -0.4808 -0.2878 -0.6131
 3841TIP3    H132938   3.930   3.711   5.724 -0.7488 -0.8577 -1.8608
 3841TIP3    H232939   3.854   3.831   5.776 -1.8274 -2.1634 -0.2821
 3842TIP3   OH232940   1.721   4.579  12.057 -0.0435  0.1893 -0.3248
 3842TIP3    H132941   1.646   4.610  12.108  0.8368 -0.7720  1.6964
 3842TIP3    H232942   1.776   4.657  12.045  0.5708  0.1715  1.8332
 3843TIP3   OH232943   0.092   4.155   5.046 -0.8016 -0.3284  0.2962
 3843TIP3    H132944   0.107   4.249   5.030  0.2394 -0.6123 -0.4739
 3843TIP3    H232945  -0.002   4.143   5.030 -0.7756  0.4094 -0.5150
 3844TIP3   OH232946   0.692   5.687   2.050 -0.1166  0.2627  0.1344
 3844TIP3    H132947   0.675   5.767   2.099  1.4735  1.7090 -1.5146
 3844TIP3    H232948   0.675   5.616   2.112  1.4536  1.9525  2.6585
 3845TIP3   OH232949   2.170   3.633   4.756 -0.3498 -0.1038 -0.2015
 3845TIP3    H132950   2.116   3.674   4.688  0.2567  0.5192 -0.3240
 3845TIP3    H232951   2.118   3.639   4.836 -0.2097  1.1006 -0.1765
 3846TIP3   OH232952   5.245   6.244  14.293 -0.5929  0.0271  0.3126
 3846TIP3    H132953   5.184   6.171  14.291 -0.0721 -0.4088 -1.8720
 3846TIP3    H232954   5.286   6.238  14.380 -0.4482 -2.3990  0.1579
 3847TIP3   OH232955   0.419   4.146   1.937 -0.5558  0.0986  0.1635
 3847TIP3    H132956   0.427   4.051   1.937  0.6955  0.1656 -1.2494
 3847TIP3    H232957   0.453   4.174   2.022  0.7489 -0.6187 -0.1013
 3848TIP3   OH232958   4.838   1.464   0.585  0.2583  0.1187  0.3049
 3848TIP3    H132959   4.910   1.527   0.588  0.1330  0.2995 -0.3562
 3848TIP3    H232960   4.780   1.491   0.656  0.4855  0.4072  0.3823
 3849TIP3   OH232961   4.532   0.802  15.065 -0.4191  0.6698  0.1442
 3849TIP3    H132962   4.437   0.791  15.062 -0.3384 -0.1684  0.5330
 3849TIP3    H232963   4.568   0.715  15.045  0.2454  0.1108  3.2585
 3850TIP3   OH232964   4.850   3.746  11.387  0.0560 -0.0881 -0.6130
 3850TIP3    H132965   4.777   3.724  11.329 -0.8530 -0.3612  0.5714
 3850TIP3    H232966   4.919   3.776  11.329 -0.0641 -2.2909 -2.0133
 3851TIP3   OH232967   6.067   4.478  12.502  0.1546 -0.1489  0.1314
 3851TIP3    H132968   6.127   4.404  12.489 -0.4247 -0.6917  0.4530
 3851TIP3    H232969   6.099   4.521  12.581 -0.7943 -1.4022  1.2481
 3852TIP3   OH232970   5.636   5.667  15.275 -0.3785 -0.1508 -0.7899
 3852TIP3    H132971   5.566   5.720  15.239  0.1188  0.5864 -0.6958
 3852TIP3    H232972   5.672   5.720  15.346  1.0306 -0.0040 -1.5796
 3853TIP3   OH232973   0.739   0.199   2.811  0.2446 -0.3068 -0.1748
 3853TIP3    H132974   0.647   0.187   2.835  0.3203  0.6235  0.6710
 3853TIP3    H232975   0.739   0.200   2.715 -1.1244  2.6891 -0.2560
 3854TIP3   OH232976   6.485   6.089  14.224 -0.5716  0.1871 -0.2391
 3854TIP3    H132977   6.459   6.163  14.280  1.8873  1.0270 -0.1113
 3854TIP3    H232978   6.579   6.082  14.236 -0.2521 -0.8148 -2.8790
 3855TIP3   OH232979   4.350   6.550  12.400 -0.3802  0.2202 -0.1287
 3855TIP3    H132980   4.350   6.645  12.404  0.5897  0.2521 -0.5601
 3855TIP3    H232981   4.277   6.528  12.341 -1.1916  0.6320  0.6916
 3856TIP3   OH232982   1.696   4.389   3.466  0.3066 -0.0767 -0.1924
 3856TIP3    H132983   1.789   4.368   3.453  0.2022 -0.6336 -0.0374
 3856TIP3    H232984   1.659   4.311   3.506 -0.1448  0.3041  0.1362
 3857TIP3   OH232985   3.702   1.732  17.179  0.2747  0.1440  0.5984
 3857TIP3    H132986   3.664   1.778  17.253  0.3600 -0.3079  0.9242
 3857TIP3    H232987   3.748   1.800  17.130  0.5059  0.3856  1.1437
 3858TIP3   OH232988   3.343   1.842  15.959  0.1055 -0.4368 -0.3870
 3858TIP3    H132989   3.372   1.933  15.950  1.2227 -0.7931 -0.5919
 3858TIP3    H232990   3.358   1.803  15.873  0.6142 -1.0716 -0.0256
 3859TIP3   OH232991   4.008   4.144  12.849 -0.2423 -0.3167  0.5199
 3859TIP3    H132992   4.005   4.239  12.861 -0.7029 -0.4254  1.3361
 3859TIP3    H232993   4.101   4.122  12.861 -0.2643 -0.0710  1.2119
 3860TIP3   OH232994   3.406   4.066  14.189  0.7073 -0.1523  0.4048
 3860TIP3    H132995   3.440   4.146  14.149 -1.0645  0.4087 -0.0274
 3860TIP3    H232996   3.380   4.011  14.115 -0.6338  0.0215  0.7357
 3861TIP3   OH232997   3.035   5.211   2.585  0.8143 -0.4730 -0.0420
 3861TIP3    H132998   3.008   5.120   2.582 -2.9851  0.5270 -1.2637
 3861TIP3    H232999   3.072   5.228   2.498  0.0795 -0.5016 -0.3691
 3862TIP3   OH233000   0.403   4.970   3.087  0.6561  0.2487 -0.1298
 3862TIP3    H133001   0.486   4.959   3.041 -0.2578  1.9539 -2.4034
 3862TIP3    H233002   0.424   5.024   3.163  1.6709  0.4910 -0.5728
 3863TIP3   OH233003   3.781   2.858   5.990  0.0363 -0.0641 -0.0781
 3863TIP3    H133004   3.809   2.814   5.910  0.0046 -1.0352  0.4248
 3863TIP3    H233005   3.832   2.939   5.992 -0.9712  0.6810 -1.7792
 3864TIP3   OH233006   1.365   3.751  15.250  0.6998  0.0156  0.4392
 3864TIP3    H133007   1.273   3.732  15.267  1.0632 -1.5190  0.7527
 3864TIP3    H233008   1.376   3.732  15.156  0.6163  0.5909  0.3074
 3865TIP3   OH233009   3.254   5.212  15.249  0.4480 -1.2457 -0.1369
 3865TIP3    H133010   3.186   5.153  15.216 -0.4348  0.4601 -1.5719
 3865TIP3    H233011   3.247   5.208  15.344 -2.6366 -0.1213 -0.2226
 3866TIP3   OH233012   1.063   0.752   2.935 -0.4659 -0.1736  0.4435
 3866TIP3    H133013   1.074   0.703   2.853  0.4109  0.9789 -0.1571
 3866TIP3    H233014   0.979   0.797   2.924  0.3486  1.1792 -0.5028
 3867TIP3   OH233015   3.312   6.187   1.578 -0.3813  0.4037 -0.2230
 3867TIP3    H133016   3.267   6.163   1.659  1.0138  0.9500  0.7537
 3867TIP3    H233017   3.244   6.228   1.524 -1.7408 -1.5222 -0.0878
 3868TIP3   OH233018   0.972   1.135  15.504 -0.2978  0.3534 -0.2601
 3868TIP3    H133019   0.880   1.156  15.516 -0.1230  0.5397  0.8626
 3868TIP3    H233020   1.012   1.149  15.590  0.9134  0.9436 -0.8881
 3869TIP3   OH233021   1.501   3.582   0.857  0.0723  0.0580  0.7385
 3869TIP3    H133022   1.525   3.497   0.895 -0.6377  0.2651  1.6688
 3869TIP3    H233023   1.409   3.594   0.879 -0.4329  0.1150 -1.2212
 3870TIP3   OH233024   2.187   4.136   2.080  0.0975  0.1227  0.7531
 3870TIP3    H133025   2.242   4.117   2.005  0.7121 -0.7637  1.4062
 3870TIP3    H233026   2.203   4.064   2.141 -1.5872 -0.0253  1.0764
 3871TIP3   OH233027   6.710   6.414   1.905 -0.3270 -0.4050 -0.0381
 3871TIP3    H133028   6.680   6.429   1.994 -0.5532 -0.6272 -0.0776
 3871TIP3    H233029   6.755   6.330   1.908  0.3942 -0.0219  0.0451
 3872TIP3   OH233030   2.686   6.540  16.486 -0.4269  0.0105 -0.9447
 3872TIP3    H133031   2.752   6.551  16.554 -0.9628  0.4539 -0.4882
 3872TIP3    H233032   2.726   6.479  16.424  0.3099  0.0800 -0.5521
 3873TIP3   OH233033   1.740   4.778  14.139  0.4212  0.2694 -0.3587
 3873TIP3    H133034   1.803   4.845  14.165 -1.9101  2.5839 -0.1883
 3873TIP3    H233035   1.754   4.706  14.200  0.4721  2.2388  2.1138
 3874TIP3   OH233036   2.767   6.391  15.230  0.0042 -0.0744  0.0213
 3874TIP3    H133037   2.861   6.381  15.244 -0.0314 -1.5816 -0.6662
 3874TIP3    H233038   2.730   6.398  15.318  0.6177 -0.9682  0.3641
 3875TIP3   OH233039   5.809   2.194   3.070 -0.0308  0.3720  0.0274
 3875TIP3    H133040   5.893   2.181   3.114  0.4927 -0.4966 -1.1619
 3875TIP3    H233041   5.749   2.218   3.140  0.9771  0.0055  1.0581
 3876TIP3   OH233042   4.172   6.624  12.693  0.2458  0.1791  0.1252
 3876TIP3    H133043   4.257   6.667  12.707  0.8679 -1.5150  2.0226
 3876TIP3    H233044   4.122   6.643  12.772 -0.1461 -1.0234  0.1824
 3877TIP3   OH233045   0.653   1.079   0.560  0.5181  0.3461  0.0415
 3877TIP3    H133046   0.691   0.992   0.573 -1.2187 -0.6107 -0.7981
 3877TIP3    H233047   0.662   1.123   0.644  1.5376 -0.5983  0.4455
 3878TIP3   OH233048   2.943   4.293  15.953  0.7582  0.4816 -0.0494
 3878TIP3    H133049   3.021   4.241  15.934 -0.1318 -1.0947  0.3941
 3878TIP3    H233050   2.964   4.338  16.034  1.8095  1.4002 -0.8014
 3879TIP3   OH233051   3.176   2.513  11.860  0.3952 -0.2558 -0.4854
 3879TIP3    H133052   3.257   2.472  11.831  0.3521  1.3154 -3.1336
 3879TIP3    H233053   3.195   2.606  11.860 -1.4762  0.1716 -1.4812
 3880TIP3   OH233054   2.868   4.516  16.565 -0.2468 -0.3983 -0.0463
 3880TIP3    H133055   2.879   4.544  16.656  1.7953 -1.6550  0.1637
 3880TIP3    H233056   2.810   4.581  16.526 -0.8110  0.4110  2.0281
 3881TIP3   OH233057   0.292   5.519   3.238 -0.4495  0.0318  0.4209
 3881TIP3    H133058   0.227   5.588   3.247 -1.5743 -0.9727  0.3032
 3881TIP3    H233059   0.361   5.557   3.183 -1.4385  0.8005 -0.3177
 3882TIP3   OH233060   5.333   6.022  12.889  0.1515 -0.8197 -0.4638
 3882TIP3    H133061   5.266   6.083  12.922  1.2249  0.1321 -0.0027
 3882TIP3    H233062   5.376   5.989  12.968  1.4028 -0.0570 -0.7983
 3883TIP3   OH233063   6.011   2.311  14.509 -0.5209 -0.1093 -0.6795
 3883TIP3    H133064   6.050   2.242  14.455 -0.7921  0.3203 -1.4435
 3883TIP3    H233065   5.918   2.310  14.485 -0.7187 -0.1597  0.0636
 3884TIP3   OH233066   0.662   3.214  15.925 -0.0665  0.0543  0.0939
 3884TIP3    H133067   0.700   3.231  16.011 -0.5175  1.6729 -0.0012
 3884TIP3    H233068   0.568   3.211  15.941 -0.0958 -0.8563 -0.1684
 3885TIP3   OH233069   2.425   0.351   4.639 -0.0536  0.3145  0.2045
 3885TIP3    H133070   2.407   0.407   4.563 -0.8963 -0.6018 -0.2925
 3885TIP3    H233071   2.360   0.281   4.633  0.3437 -0.1773  1.3694
 3886TIP3   OH233072   1.080   1.522  17.079  0.0943  0.7986 -0.2591
 3886TIP3    H133073   1.153   1.585  17.069 -0.2657  1.2839  0.1214
 3886TIP3    H233074   1.011   1.573  17.121 -0.3250  0.2274 -0.2569
 3887TIP3   OH233075   0.629   6.125  15.112 -0.0335  0.7265  0.6672
 3887TIP3    H133076   0.576   6.068  15.056 -0.3495  0.9718  0.7124
 3887TIP3    H233077   0.659   6.194  15.053  1.4156 -0.1635  0.3115
 3888TIP3   OH233078   3.047   6.224  14.583  0.5893  0.3656  0.1905
 3888TIP3    H133079   3.032   6.318  14.580  0.3640  0.3862  1.3769
 3888TIP3    H233080   3.098   6.210  14.663  0.7906 -0.4952 -0.0746
 3889TIP3   OH233081   0.666   4.866  13.406 -0.3128  0.6835 -0.6334
 3889TIP3    H133082   0.597   4.862  13.472 -0.7258 -0.5979 -1.1006
 3889TIP3    H233083   0.743   4.828  13.450 -0.2792  0.8655 -0.5350
 3890TIP3   OH233084   3.418   6.588   0.732  0.3574  0.0295  0.3490
 3890TIP3    H133085   3.440   6.521   0.668  0.1031  1.0983 -0.9104
 3890TIP3    H233086   3.347   6.637   0.691 -0.5776  0.0637  1.9482
 3891TIP3   OH233087   4.643   6.647  14.302  0.1864  0.7019 -0.3146
 3891TIP3    H133088   4.735   6.625  14.288 -0.3742 -1.0096 -1.6298
 3891TIP3    H233089   4.635   6.737  14.271  1.2614  0.6141 -0.9139
 3892TIP3   OH233090   5.495   0.185  12.262 -0.2679 -0.7809  0.5179
 3892TIP3    H133091   5.437   0.227  12.325  0.5859  1.6195 -0.1749
 3892TIP3    H233092   5.463   0.095  12.256 -1.6509 -0.5246  2.7877
 3893TIP3   OH233093   3.375   3.163  13.500  0.8074  0.0381 -0.1455
 3893TIP3    H133094   3.344   3.240  13.452 -0.0635 -1.3330 -1.8941
 3893TIP3    H233095   3.325   3.165  13.582  1.8168  2.0512  0.4704
 3894TIP3   OH233096   6.236   3.919  15.897  0.5378 -0.3973 -0.6030
 3894TIP3    H133097   6.209   3.987  15.836  0.7733 -2.0387 -2.6842
 3894TIP3    H233098   6.308   3.957  15.947 -0.2176  1.2880 -0.7510
 3895TIP3   OH233099   1.871   0.279   5.013 -0.4899  0.1689 -0.8155
 3895TIP3    H133100   1.926   0.217   4.965  1.6752  1.0700  0.3656
 3895TIP3    H233101   1.898   0.365   4.980  1.0315  0.8128  1.8468
 3896TIP3   OH233102   3.310   4.296   0.973 -0.1093  0.1897  0.2532
 3896TIP3    H133103   3.220   4.291   0.941 -0.0125  0.2170 -0.0277
 3896TIP3    H233104   3.302   4.325   1.064 -0.4970 -1.5814  0.8320
 3897TIP3   OH233105   5.350   3.775  17.245 -0.5285  0.3932 -0.0587
 3897TIP3    H133106   5.441   3.748  17.238 -0.7890 -1.5552  2.6195
 3897TIP3    H233107   5.303   3.718  17.184  0.0191  1.7254 -1.8015
 3898TIP3   OH233108   6.091   4.888  17.189 -0.0126  0.2103  0.0184
 3898TIP3    H133109   6.154   4.907  17.258  0.0998 -1.0696  0.2777
 3898TIP3    H233110   6.083   4.971  17.142  1.8190  0.4337  0.0091
 3899TIP3   OH233111   4.010   5.419  14.415  0.2077 -1.0531 -0.0802
 3899TIP3    H133112   4.058   5.432  14.333 -1.3898  1.2424 -0.7404
 3899TIP3    H233113   3.949   5.348  14.395  0.6925 -1.3819 -0.4460
 3900TIP3   OH233114   1.094   2.831  16.183  0.5805  0.0742 -0.1256
 3900TIP3    H133115   1.125   2.795  16.100  0.5128 -1.7962  0.6033
 3900TIP3    H233116   1.168   2.882  16.216  0.9473  0.0469 -0.8841
 3901TIP3   OH233117   3.820   1.344  10.906  0.9153 -0.7525  0.0787
 3901TIP3    H133118   3.912   1.371  10.914  1.1192 -1.3755 -0.0666
 3901TIP3    H233119   3.808   1.333  10.811 -0.0408  1.7588 -0.1658
 3902TIP3   OH233120   2.229   6.015  17.334  0.2984  0.5246 -0.3296
 3902TIP3    H133121   2.177   6.095  17.346  0.4980  0.5565  0.3545
 3902TIP3    H233122   2.302   6.042  17.279  0.3988  0.8313 -0.0515
 3903TIP3   OH233123   3.648   1.352  11.135 -0.0452  0.0997 -0.4411
 3903TIP3    H133124   3.696   1.341  11.053  1.4853  2.8078 -0.0270
 3903TIP3    H233125   3.715   1.374  11.199 -1.5546  1.3821  0.7835
 3904TIP3   OH233126   6.023   4.012   1.989 -0.1056 -0.4672  0.0292
 3904TIP3    H133127   6.105   3.972   1.962  0.5325  0.5271  0.4619
 3904TIP3    H233128   6.047   4.076   2.055 -1.1920  0.0720 -0.0647
 3905TIP3   OH233129   5.995   4.391  16.421  1.1306  0.5529 -0.4020
 3905TIP3    H133130   6.081   4.386  16.462  0.5116  0.1289  0.8953
 3905TIP3    H233131   5.972   4.484  16.424  1.5849  0.6856 -0.8727
 3906TIP3   OH233132   1.950   2.087  16.800  0.1510 -0.2107 -0.0387
 3906TIP3    H133133   1.921   2.053  16.884 -0.7664  1.2418  0.2496
 3906TIP3    H233134   1.871   2.093  16.747  0.4265  0.6958 -0.3632
 3907TIP3   OH233135   2.367   4.453   5.935  0.2834 -0.2653 -0.3395
 3907TIP3    H133136   2.285   4.496   5.959  0.7078 -0.3036  1.2431
 3907TIP3    H233137   2.420   4.522   5.896  1.2428  0.9151  2.8429
 3908TIP3   OH233138   5.058   2.429   5.088 -0.5105 -0.3348 -0.4647
 3908TIP3    H133139   4.995   2.489   5.129  0.0625  0.1297 -0.2487
 3908TIP3    H233140   5.084   2.474   5.008  1.0072  0.4020  0.4048
 3909TIP3   OH233141   4.869   4.502   1.918 -0.3575 -0.1613 -0.0853
 3909TIP3    H133142   4.790   4.537   1.957 -0.2880 -0.6729  0.5280
 3909TIP3    H233143   4.895   4.430   1.975 -0.7735 -1.5417 -1.5511
 3910TIP3   OH233144   0.877   5.889   1.250 -0.0429 -0.0727  0.3267
 3910TIP3    H133145   0.912   5.978   1.252  2.0190 -0.8348  0.7711
 3910TIP3    H233146   0.913   5.847   1.328  0.5981 -1.8307 -0.8355
 3911TIP3   OH233147   5.521   1.271  12.342 -0.3428  0.0139  0.2292
 3911TIP3    H133148   5.553   1.351  12.384 -0.5397  0.5044 -0.5378
 3911TIP3    H233149   5.451   1.300  12.284 -1.5138 -0.9200  1.1147
 3912TIP3   OH233150   3.748   1.937   3.352  0.1158  0.1292 -0.6132
 3912TIP3    H133151   3.788   2.008   3.302 -0.4164  0.8248 -0.0650
 3912TIP3    H233152   3.689   1.895   3.290  1.8169 -1.0573 -1.5025
 3913TIP3   OH233153   2.591   3.222  12.428 -0.1821  0.5035  0.7207
 3913TIP3    H133154   2.588   3.207  12.333 -0.9744  0.4454  0.7543
 3913TIP3    H233155   2.586   3.317  12.437 -0.0160  0.5144  0.7016
 3914TIP3   OH233156   6.237   2.675   3.140  0.2735 -0.2325  0.0021
 3914TIP3    H133157   6.213   2.727   3.216  0.8065 -0.8357  0.5946
 3914TIP3    H233158   6.161   2.680   3.082 -0.1277  0.2390  0.5597
 3915TIP3   OH233159   4.448   5.291  12.960 -0.0452 -0.1895 -0.9152
 3915TIP3    H133160   4.411   5.271  13.046 -0.2737 -1.2588 -1.2430
 3915TIP3    H233161   4.382   5.347  12.919 -0.4812 -0.6261 -0.8271
 3916TIP3   OH233162   0.334   5.044  12.081  0.1432  0.0356 -0.1604
 3916TIP3    H133163   0.373   5.131  12.072  0.2128 -0.0432 -0.6583
 3916TIP3    H233164   0.384   5.002  12.151  1.5707 -0.3789 -1.3697
 3917TIP3   OH233165   2.568   1.088  15.129 -0.5675  0.2682 -0.4481
 3917TIP3    H133166   2.595   1.013  15.074  1.9545  0.7998 -0.0886
 3917TIP3    H233167   2.549   1.158  15.066  0.0892  0.2069 -0.7278
 3918TIP3   OH233168   1.592   5.326  11.785 -0.2944 -0.2493 -0.3468
 3918TIP3    H133169   1.687   5.335  11.800 -0.2162  2.2273 -1.8236
 3918TIP3    H233170   1.571   5.240  11.822  2.6156 -1.1457 -0.4454
 3919TIP3   OH233171   2.317   5.287  12.114  0.6481  0.2548  0.3927
 3919TIP3    H133172   2.257   5.360  12.131 -0.8426 -0.9344  0.4618
 3919TIP3    H233173   2.343   5.256  12.200  1.3075  0.7154  0.3632
 3920TIP3   OH233174   5.842   3.478  12.952  0.3431 -0.1619  0.0176
 3920TIP3    H133175   5.876   3.568  12.952 -1.5038  0.5886  0.3080
 3920TIP3    H233176   5.871   3.442  13.036  0.5211  0.4177  0.2119
 3921TIP3   OH233177   1.163   1.597   2.153  0.0305  0.3205 -0.0348
 3921TIP3    H133178   1.227   1.654   2.195 -0.6827  0.8422  0.3558
 3921TIP3    H233179   1.162   1.517   2.206  0.8916  0.0042 -0.4747
 3922TIP3   OH233180   4.001   0.164   6.088  0.9259  0.3338  0.1472
 3922TIP3    H133181   4.090   0.199   6.087  1.7766 -1.6688 -0.5293
 3922TIP3    H233182   3.998   0.111   6.168  0.1460  0.8132  0.4451
 3923TIP3   OH233183   6.428   2.108   2.661  0.4374 -0.0704 -0.1071
 3923TIP3    H133184   6.434   2.202   2.640  0.3852 -0.3298 -1.3808
 3923TIP3    H233185   6.421   2.066   2.576 -2.0015 -1.0610  0.5191
 3924TIP3   OH233186   6.316   6.658  15.377  0.2411  0.0425 -0.3979
 3924TIP3    H133187   6.235   6.660  15.427 -1.1177  1.0905 -2.4717
 3924TIP3    H233188   6.299   6.714  15.301  3.1665  0.9013 -0.5633
 3925TIP3   OH233189   5.155   1.154   3.190  0.2598 -0.9168 -0.1151
 3925TIP3    H133190   5.115   1.217   3.130  1.1406 -1.3520 -1.2150
 3925TIP3    H233191   5.226   1.202   3.232  0.8937 -1.1323 -0.9099
 3926TIP3   OH233192   1.172   3.767   5.913  0.0422 -0.3227  0.1156
 3926TIP3    H133193   1.157   3.679   5.878  0.9872 -0.1075 -0.8656
 3926TIP3    H233194   1.226   3.752   5.991  0.2398 -0.6070 -0.0729
 3927TIP3   OH233195   3.945   3.146  15.230 -0.0126  0.0600  0.0841
 3927TIP3    H133196   3.994   3.165  15.311 -1.3701  0.4452  0.8332
 3927TIP3    H233197   3.950   3.051  15.222  1.1109  0.1082 -0.0302
 3928TIP3   OH233198   0.963   0.267  13.554  0.2113  0.4528 -0.8779
 3928TIP3    H133199   1.054   0.295  13.567  0.1844  0.0506  0.3312
 3928TIP3    H233200   0.911   0.332  13.603  0.1089 -1.2509  1.4364
 3929TIP3   OH233201   0.469   3.100   4.472 -0.5545  0.6074 -0.5153
 3929TIP3    H133202   0.451   3.188   4.504 -0.6620  0.2101  0.5683
 3929TIP3    H233203   0.426   3.042   4.534 -0.5274 -0.2174 -1.2360
 3930TIP3   OH233204   6.519   2.688   2.067  0.4546 -0.1674 -0.3318
 3930TIP3    H133205   6.559   2.764   2.023 -0.7614  0.1633 -0.9018
 3930TIP3    H233206   6.543   2.614   2.012 -0.2019  0.1074 -1.0016
 3931TIP3   OH233207   0.900   5.745  14.818 -0.3224 -0.0932  0.1233
 3931TIP3    H133208   0.905   5.650  14.831  0.5278 -0.0495  0.1378
 3931TIP3    H233209   0.900   5.781  14.906 -1.3082 -0.0946  0.1409
 3932TIP3   OH233210   0.971   3.841   1.025 -0.5974 -0.0696  0.1635
 3932TIP3    H133211   0.942   3.808   1.110 -0.8605  0.2413  0.1965
 3932TIP3    H233212   1.060   3.873   1.040 -0.5514 -0.2454  0.2633
 3933TIP3   OH233213   4.952   3.606  16.143 -1.0934  0.2381  0.0734
 3933TIP3    H133214   4.931   3.697  16.167 -0.8759  0.5475 -0.8809
 3933TIP3    H233215   5.046   3.599  16.155 -1.2896 -0.2856  1.4895
 3934TIP3   OH233216   6.037   1.264   1.960 -0.2787 -0.3397 -0.0553
 3934TIP3    H133217   6.098   1.277   1.887  0.4841 -0.9066  0.4659
 3934TIP3    H233218   5.989   1.347   1.966  1.6290  0.8004  0.5872
 3935TIP3   OH233219   0.623   2.738   1.836 -0.3830 -0.2433  0.8621
 3935TIP3    H133220   0.528   2.737   1.823 -0.0866  0.4244 -2.0320
 3935TIP3    H233221   0.651   2.649   1.813 -0.1335  0.1419 -0.3979
 3936TIP3   OH233222   5.762   5.412   1.092  0.1935 -0.4964  0.1263
 3936TIP3    H133223   5.741   5.324   1.124  0.0185 -0.8762 -0.9947
 3936TIP3    H233224   5.722   5.470   1.157  0.2864 -1.2346  0.8681
 3937TIP3   OH233225   0.881   2.055   6.646  0.4647 -0.5369 -0.1444
 3937TIP3    H133226   0.811   2.059   6.711  0.7416  1.8549  0.1144
 3937TIP3    H233227   0.961   2.046   6.698  0.7184  1.7156 -0.0141
 3938TIP3   OH233228   5.998   3.724  13.636  0.2110  0.5138  0.0090
 3938TIP3    H133229   5.934   3.768  13.579 -2.0028 -0.2354  1.7608
 3938TIP3    H233230   6.026   3.793  13.697 -0.7081  0.3324  0.6587
 3939TIP3   OH233231   4.860   1.578  14.830 -0.0905 -0.2315  0.3904
 3939TIP3    H133232   4.843   1.577  14.736  0.9032 -0.7917  0.2065
 3939TIP3    H233233   4.812   1.654  14.862 -0.1941  0.1451 -0.6159
 3940TIP3   OH233234   1.272   4.678   5.424  0.7355 -0.8160 -0.7773
 3940TIP3    H133235   1.213   4.666   5.498 -1.5349 -1.6836 -2.6280
 3940TIP3    H233236   1.354   4.635   5.452  0.6144  0.4684  1.8695
 3941TIP3   OH233237   5.716   4.527   6.024  0.5954 -0.2941 -0.2167
 3941TIP3    H133238   5.655   4.566   5.961  0.2839 -0.1693  0.1634
 3941TIP3    H233239   5.660   4.482   6.087  0.8708  0.3767  0.5117
 3942TIP3   OH233240   3.524   6.242  14.076 -0.1159  0.3881 -0.0832
 3942TIP3    H133241   3.443   6.213  14.034  0.6812 -1.4133 -0.4915
 3942TIP3    H233242   3.527   6.192  14.158  0.5924  0.4089 -0.0915
 3943TIP3   OH233243   2.913   5.654   1.765  0.1088 -0.2747  0.1040
 3943TIP3    H133244   2.873   5.684   1.846 -1.5034 -1.2272 -0.2924
 3943TIP3    H233245   2.959   5.730   1.730 -1.1321  0.7851  0.7361
 3944TIP3   OH233246   4.268   1.637  17.251 -0.7090  0.2480  0.4134
 3944TIP3    H133247   4.280   1.698  17.324  1.1090  0.4169  0.0135
 3944TIP3    H233248   4.341   1.655  17.192 -1.9172 -0.1636 -1.2745
 3945TIP3   OH233249   3.231   4.269  13.910  0.2500 -0.7109  0.2040
 3945TIP3    H133250   3.278   4.275  13.993 -0.6604  2.8703  0.6055
 3945TIP3    H233251   3.289   4.310  13.846 -0.2335 -0.9069 -0.3760
 3946TIP3   OH233252   0.317   6.590   4.686  0.5966 -0.2600  0.0510
 3946TIP3    H133253   0.252   6.537   4.731  0.5268  1.6222  2.3461
 3946TIP3    H233254   0.401   6.565   4.725  0.9017 -0.4850 -0.7110
 3947TIP3   OH233255   2.008   0.532   2.005  0.0456  0.0024  0.1813
 3947TIP3    H133256   2.076   0.466   1.990 -1.5185 -1.6378 -0.0780
 3947TIP3    H233257   2.042   0.587   2.076  1.6454 -0.7039  0.0034
 3948TIP3   OH233258   1.459   6.604  13.080  0.2563 -0.6901  0.1204
 3948TIP3    H133259   1.505   6.558  13.010  0.0039 -1.5492  0.5128
 3948TIP3    H233260   1.371   6.618  13.046  0.2596 -0.7258  0.0971
 3949TIP3   OH233261   3.197   4.294  16.197 -0.1920 -0.4288  0.0572
 3949TIP3    H133262   3.229   4.216  16.243 -0.1463  0.6482  1.9356
 3949TIP3    H233263   3.214   4.275  16.105 -1.1250 -3.0625  0.3329
 3950TIP3   OH233264   0.235   4.298   3.128  0.5168 -0.0449  0.3325
 3950TIP3    H133265   0.291   4.264   3.058  0.0592  1.7288 -0.9759
 3950TIP3    H233266   0.294   4.352   3.181  0.3324  0.8571 -0.3493
 3951TIP3   OH233267   6.347   1.964  17.149  0.0346 -0.2064  0.0702
 3951TIP3    H133268   6.264   2.004  17.174  0.2449  1.3969 -1.6028
 3951TIP3    H233269   6.413   2.032  17.163  1.2404 -1.6722  2.0390
 3952TIP3   OH233270   4.099   0.992  14.902  0.0911  0.5852  0.1768
 3952TIP3    H133271   4.039   0.919  14.914  2.3331 -1.6583 -1.1626
 3952TIP3    H233272   4.044   1.070  14.909 -2.2836 -1.1328  2.5370
 3953TIP3   OH233273   6.514   1.526  12.698  1.0450  0.9710 -0.4399
 3953TIP3    H133274   6.429   1.486  12.720  0.8640  1.5421 -0.0854
 3953TIP3    H233275   6.568   1.510  12.776  1.4365  0.1497 -0.8677
 3954TIP3   OH233276   3.811   6.629   6.536 -0.4130  0.1721  0.3928
 3954TIP3    H133277   3.738   6.569   6.522 -1.8754  2.4869 -3.2157
 3954TIP3    H233278   3.889   6.576   6.521 -1.5330 -1.2977 -0.4852
 3955TIP3   OH233279   0.077   0.890  13.641 -0.0659 -0.3817  0.0386
 3955TIP3    H133280   0.024   0.969  13.639  0.6926  0.1346 -0.6042
 3955TIP3    H233281   0.024   0.824  13.596  0.5911  0.6563 -2.4543
 3956TIP3   OH233282   6.381   6.372  14.109 -0.3852 -0.1177 -0.4732
 3956TIP3    H133283   6.337   6.397  14.028  0.8724  1.2053 -0.7853
 3956TIP3    H233284   6.457   6.322  14.081  1.8167  2.8932 -0.4362
 3957TIP3   OH233285   1.084   1.830  11.915  0.4361 -0.5833 -0.4368
 3957TIP3    H133286   1.075   1.880  11.997 -1.6983 -1.6586  0.0442
 3957TIP3    H233287   1.081   1.897  11.846  0.4258  0.1846  0.2886
 3958TIP3   OH233288   0.595   3.613   1.134 -0.0433 -0.0479  0.1634
 3958TIP3    H133289   0.558   3.681   1.189  0.8323  1.8683 -1.4873
 3958TIP3    H233290   0.521   3.579   1.084 -0.1024  1.7096 -1.0118
 3959TIP3   OH233291   1.947   4.662  15.367 -0.1450  0.2079  0.4701
 3959TIP3    H133292   1.885   4.631  15.433 -2.7367  0.2554 -1.7566
 3959TIP3    H233293   2.009   4.590  15.358 -1.5442 -1.1120  0.8026
 3960TIP3   OH233294   5.463   1.445   1.020 -0.3945 -0.0930 -0.3738
 3960TIP3    H133295   5.548   1.422   1.058  0.4217 -1.5753 -2.8256
 3960TIP3    H233296   5.406   1.371   1.043 -1.5523  1.5125  2.4340
 3961TIP3   OH233297   2.344   3.761  13.047  0.4476  0.1593 -0.0839
 3961TIP3    H133298   2.346   3.724  13.136  0.0682  1.2748  0.4068
 3961TIP3    H233299   2.334   3.685  12.990  0.8080 -0.5883  0.8185
 3962TIP3   OH233300   3.964   4.519   3.437  0.2783  0.2348 -0.2711
 3962TIP3    H133301   3.998   4.535   3.525  0.7282  1.8684 -0.7276
 3962TIP3    H233302   3.869   4.513   3.450  0.1792  2.1615  0.1206
 3963TIP3   OH233303   4.082   2.098  14.621  0.6488  0.5199 -0.3774
 3963TIP3    H133304   4.175   2.075  14.618  0.7669  0.2243  2.5741
 3963TIP3    H233305   4.038   2.016  14.642  0.0669  1.1308  0.9183
 3964TIP3   OH233306   2.344   5.081  10.688  0.2674  0.3630 -0.2132
 3964TIP3    H133307   2.369   5.160  10.640  1.8781 -0.2066 -0.3661
 3964TIP3    H233308   2.252   5.095  10.710 -0.2389  1.1091 -2.5253
 3965TIP3   OH233309   2.282   0.892  15.178 -0.5515 -0.5158 -0.4291
 3965TIP3    H133310   2.239   0.969  15.140  1.7188  1.2422  0.2853
 3965TIP3    H233311   2.332   0.854  15.106 -0.0333 -0.0361 -0.3338
 3966TIP3   OH233312   5.661   1.649   6.195 -0.5550  0.0006  0.5697
 3966TIP3    H133313   5.575   1.690   6.185  0.1913  1.1818 -1.9287
 3966TIP3    H233314   5.662   1.618   6.285 -3.1928  0.8532  0.9986
 3967TIP3   OH233315   2.628   0.409   2.031  0.3136 -0.2506  0.1862
 3967TIP3    H133316   2.698   0.347   2.053  0.0366 -0.4895  0.4028
 3967TIP3    H233317   2.585   0.428   2.114  0.5004  0.3673  0.1480
 3968TIP3   OH233318   2.551   3.241  11.689  0.0283 -0.0130  0.3180
 3968TIP3    H133319   2.514   3.178  11.627 -0.6014  0.0699  0.5975
 3968TIP3    H233320   2.633   3.268  11.650  0.4211 -1.1775  0.2879
 3969TIP3   OH233321   1.926   6.738   2.390 -0.4405 -0.3882  0.5276
 3969TIP3    H133322   1.972   6.822   2.399 -1.7667  0.2873  1.4457
 3969TIP3    H233323   1.971   6.693   2.320  2.0858 -0.0835  1.8489
 3970TIP3   OH233324   6.726   2.863  12.083 -0.2864  0.0193 -0.6613
 3970TIP3    H133325   6.640   2.866  12.126 -0.3934 -0.4010 -0.8354
 3970TIP3    H233326   6.730   2.775  12.044 -0.1482  0.3526 -1.4214
 3971TIP3   OH233327   4.996   2.969   5.602 -0.1316 -0.0731 -0.0446
 3971TIP3    H133328   5.005   3.043   5.542 -0.3955  0.8261  0.9976
 3971TIP3    H233329   4.955   2.900   5.549 -1.2508  1.0274 -0.6565
 3972TIP3   OH233330   6.085   1.116   1.210 -0.4122  0.2392  0.2455
 3972TIP3    H133331   6.020   1.060   1.169 -0.0417  0.2662 -0.4056
 3972TIP3    H233332   6.136   1.058   1.267 -1.4370  0.3527  1.3043
 3973TIP3   OH233333   1.517   0.900  14.156  0.0366 -0.0912 -0.2595
 3973TIP3    H133334   1.604   0.876  14.123  0.8526 -0.9778  2.2536
 3973TIP3    H233335   1.531   0.916  14.250 -2.7583 -1.8394  0.5760
 3974TIP3   OH233336   2.025   4.730  16.134 -0.1474 -0.0704 -0.2756
 3974TIP3    H133337   2.116   4.743  16.160 -0.0772  0.9116 -0.9561
 3974TIP3    H233338   2.013   4.635  16.134  0.9539 -0.2166 -0.4421
 3975TIP3   OH233339   4.193   2.674  15.307 -0.3048 -0.4151 -0.3531
 3975TIP3    H133340   4.113   2.647  15.264  0.5415 -0.7752 -1.7554
 3975TIP3    H233341   4.203   2.612  15.380 -1.4385 -0.1641  0.0417
 3976TIP3   OH233342   5.362   4.653  15.051 -0.4394 -0.0142 -0.8665
 3976TIP3    H133343   5.451   4.680  15.073 -0.7908  0.4162  0.0882
 3976TIP3    H233344   5.373   4.594  14.976  0.8262 -1.4868  0.4014
 3977TIP3   OH233345   1.981   4.885   3.279  0.6850 -0.1334  0.2110
 3977TIP3    H133346   1.923   4.840   3.217  0.8019 -0.6600  0.4753
 3977TIP3    H233347   2.069   4.857   3.254  0.6636 -1.2592  1.3137
 3978TIP3   OH233348   5.417   3.362  10.501  0.0332  0.0431 -0.5823
 3978TIP3    H133349   5.420   3.309  10.422  1.1134 -1.2035  0.2412
 3978TIP3    H233350   5.418   3.299  10.573 -0.3202  1.1466  0.4434
 3979TIP3   OH233351   2.837   3.535   3.722  0.1637  0.3754  0.2994
 3979TIP3    H133352   2.771   3.563   3.784 -1.0468 -0.5600 -0.5234
 3979TIP3    H233353   2.790   3.523   3.639  1.4878  0.3900 -0.4962
 3980TIP3   OH233354   5.794   4.089  13.688  0.0706 -0.0283  0.1186
 3980TIP3    H133355   5.844   4.090  13.770 -0.4940 -1.5397  0.5223
 3980TIP3    H233356   5.855   4.055  13.623  0.5215  1.1789 -0.1106
 3981TIP3   OH233357   6.568   6.469  16.828 -0.4740 -0.0738 -0.1302
 3981TIP3    H133358   6.504   6.471  16.757 -0.5616 -0.0744 -0.0512
 3981TIP3    H233359   6.554   6.551  16.875  1.1090  1.0168 -1.4564
 3982TIP3   OH233360   3.120   3.868   5.443 -0.2958  0.2630  0.7614
 3982TIP3    H133361   3.208   3.842   5.413 -1.3928 -0.1804 -2.4351
 3982TIP3    H233362   3.106   3.817   5.523  1.2918 -1.8471 -0.2074
 3983TIP3   OH233363   5.994   4.367  14.093 -0.2982 -0.4154  0.1105
 3983TIP3    H133364   6.066   4.305  14.105 -2.4427 -3.1286 -0.0633
 3983TIP3    H233365   5.952   4.340  14.011 -1.0479  1.6230 -0.2306
 3984TIP3   OH233366   2.479   1.310  14.963  0.5398 -0.5881  0.2178
 3984TIP3    H133367   2.524   1.372  14.905 -0.2489 -0.2250 -0.0123
 3984TIP3    H233368   2.455   1.362  15.040  0.9881 -0.9111  0.5807
 3985TIP3   OH233369   5.786   6.663   0.176  0.1509  0.3077  0.0814
 3985TIP3    H133370   5.882   6.663   0.169  0.0450  0.3954 -2.3650
 3985TIP3    H233371   5.762   6.756   0.168 -0.1654  0.1777 -0.5712
 3986TIP3   OH233372   3.681   3.385  15.461 -0.5927 -0.1694  0.5045
 3986TIP3    H133373   3.720   3.403  15.547 -0.1641  0.8000  0.1253
 3986TIP3    H233374   3.754   3.356  15.407 -0.8966 -0.9634  0.5052
 3987TIP3   OH233375   1.467   2.027   4.127 -0.0600 -0.7370  0.2329
 3987TIP3    H133376   1.484   2.109   4.173  0.1134 -0.7821  0.2500
 3987TIP3    H233377   1.477   1.959   4.193  1.8789 -0.9492 -0.2084
 3988TIP3   OH233378   1.953   2.830  15.081 -0.2123  0.4035 -0.7282
 3988TIP3    H133379   1.897   2.852  15.155  1.0292 -0.8040  0.6268
 3988TIP3    H233380   2.040   2.819  15.119  0.3068 -1.1202 -2.2270
 3989TIP3   OH233381   5.812   3.647  14.440  0.9304  0.0440 -0.3412
 3989TIP3    H133382   5.822   3.622  14.531  0.5531  1.6320  0.1623
 3989TIP3    H233383   5.719   3.635  14.422  0.8932  0.3166 -0.3333
 3990TIP3   OH233384   1.148   4.583  12.482  0.3493 -0.2594 -0.7896
 3990TIP3    H133385   1.111   4.626  12.404 -2.4868 -0.2278  0.4401
 3990TIP3    H233386   1.094   4.505  12.494  1.2556 -0.6992  0.6853
 3991TIP3   OH233387   2.064   2.800  12.946  0.2812  0.0481  0.0661
 3991TIP3    H133388   2.038   2.892  12.945  1.8878  0.6394  2.5676
 3991TIP3    H233389   1.989   2.754  12.983  0.2270  0.6991  0.7943
 3992TIP3   OH233390   2.094   1.927   0.307  0.1611  0.0029  0.4440
 3992TIP3    H133391   2.179   1.969   0.321 -0.5624  1.6525  0.1341
 3992TIP3    H233392   2.059   1.915   0.395  0.4785 -0.1841  0.5476
 3993TIP3   OH233393   1.126   5.736   3.471  0.2128 -0.7220  0.1471
 3993TIP3    H133394   1.162   5.669   3.413 -1.7885 -1.6482 -0.1387
 3993TIP3    H233395   1.034   5.744   3.444  0.5381  2.7400 -0.3415
 3994TIP3   OH233396   1.581   5.316   3.083  0.0659  0.8075  0.1467
 3994TIP3    H133397   1.575   5.386   3.148  0.2856  0.9141  0.0561
 3994TIP3    H233398   1.663   5.271   3.105 -0.4879  0.0646  0.7086
 3995TIP3   OH233399   6.100   2.116  11.525  0.2414  0.1531 -0.0232
 3995TIP3    H133400   6.181   2.108  11.576 -1.3219 -1.1011  2.4870
 3995TIP3    H233401   6.071   2.206  11.539  1.0897  0.5576 -0.8004
 3996TIP3   OH233402   6.225   4.148   2.737 -0.1205 -0.0892 -0.3138
 3996TIP3    H133403   6.293   4.141   2.804  1.0332 -0.5831 -1.4655
 3996TIP3    H233404   6.185   4.233   2.751  2.7031  1.5293 -1.3318
 3997TIP3   OH233405   4.022   2.931  15.014  0.1103  0.0919 -0.0325
 3997TIP3    H133406   4.044   2.840  14.997 -0.7009  0.0900 -1.2081
 3997TIP3    H233407   3.931   2.929  15.043 -0.0682  0.5640 -0.5427
 3998TIP3   OH233408   3.515   2.492  11.471 -0.3658 -0.1507 -0.0803
 3998TIP3    H133409   3.499   2.569  11.416  0.6345 -1.0254 -1.6933
 3998TIP3    H233410   3.427   2.464  11.498 -0.7900  1.1112 -0.0961
 3999TIP3   OH233411   3.422   3.183   5.687  0.1229  0.3653  0.1097
 3999TIP3    H133412   3.369   3.107   5.665 -0.1276  0.2840  0.9755
 3999TIP3    H233413   3.458   3.164   5.773  1.3261  0.5523 -0.3310
 4000TIP3   OH233414   5.535   6.164   2.383  0.5517 -0.1814 -0.2778
 4000TIP3    H133415   5.573   6.251   2.372  0.7979 -0.3061 -0.4277
 4000TIP3    H233416   5.442   6.180   2.402  0.7227  0.1306  0.2944
 4001TIP3   OH233417   1.123   1.618  13.258 -0.7064  0.4657 -0.6081
 4001TIP3    H133418   1.041   1.637  13.303  0.0764  1.0682  0.6212
 4001TIP3    H233419   1.153   1.703  13.226 -0.5050  0.2629 -0.9587
 4002TIP3   OH233420   6.613   0.597  15.943  0.5580  0.7529 -0.2517
 4002TIP3    H133421   6.556   0.674  15.934  0.6511  0.6588 -2.1020
 4002TIP3    H233422   6.699   0.634  15.965  0.5550  1.1860 -0.9182
 4003TIP3   OH233423   6.043   5.779  14.900 -0.3535  0.1556 -0.1093
 4003TIP3    H133424   6.111   5.766  14.833  0.0449  0.4496  0.2319
 4003TIP3    H233425   6.071   5.725  14.974 -0.9666 -0.4261 -0.2944
 4004TIP3   OH233426   4.097   5.907  11.368 -0.3507 -0.0469 -0.0713
 4004TIP3    H133427   4.054   5.933  11.450  1.3044 -0.7257  1.0851
 4004TIP3    H233428   4.176   5.961  11.366  0.0120 -0.6021 -0.8198
 4005TIP3   OH233429   5.590   4.907   5.725  0.3518 -0.4201 -0.0361
 4005TIP3    H133430   5.567   5.000   5.736  0.2020 -0.5622  1.0377
 4005TIP3    H233431   5.530   4.861   5.783 -0.1829 -1.2875 -1.2503
 4006TIP3   OH233432   6.140   2.999   3.120 -0.0818  0.2720 -0.2338
 4006TIP3    H133433   6.070   2.964   3.175  0.0627 -1.1736 -0.9034
 4006TIP3    H233434   6.168   3.079   3.164  0.3832 -1.0663  2.0797
 4007TIP3   OH233435   6.504   6.000  16.301 -0.1054  0.0055  0.6034
 4007TIP3    H133436   6.536   5.910  16.301 -0.9975 -0.3182  0.7651
 4007TIP3    H233437   6.580   6.053  16.326  0.0289 -0.8411  2.0551
 4008TIP3   OH233438   5.953   5.475   2.174  0.3213  0.6889  0.2667
 4008TIP3    H133439   5.907   5.391   2.173  1.2284  0.1830 -0.4885
 4008TIP3    H233440   5.909   5.525   2.242  1.5646 -1.3984  2.7589
 4009TIP3   OH233441   6.316   1.142  16.692  0.8586  0.4635 -0.3960
 4009TIP3    H133442   6.396   1.188  16.715 -0.1611  1.7504  0.7888
 4009TIP3    H233443   6.305   1.158  16.598  1.8221  0.5354 -0.4994
 4010TIP3   OH233444   0.857   0.845   3.425  0.4136  0.4509  0.1888
 4010TIP3    H133445   0.800   0.792   3.370  1.5679 -1.2134  0.4964
 4010TIP3    H233446   0.855   0.801   3.511  1.6500  0.6908  0.3692
 4011TIP3   OH233447   4.369   1.543  16.106 -0.0677  0.0037 -0.3676
 4011TIP3    H133448   4.411   1.598  16.041  1.6531  0.1299  0.7799
 4011TIP3    H233449   4.428   1.545  16.182 -0.3748 -2.6494  0.0642
 4012TIP3   OH233450   4.281   1.200  16.021 -0.0350  0.0039 -0.4785
 4012TIP3    H133451   4.195   1.181  15.983 -1.0033  3.0947 -0.1250
 4012TIP3    H233452   4.302   1.288  15.990  1.7194  0.4389  1.6495
 4013TIP3   OH233453   2.937   6.347  16.137  0.1764  0.0976 -0.0833
 4013TIP3    H133454   2.916   6.274  16.079  1.3286  0.3514 -0.8622
 4013TIP3    H233455   2.863   6.406  16.128 -0.0479 -0.2583 -0.6721
 4014TIP3   OH233456   1.005   0.291   4.001  0.2168  0.2931 -0.5259
 4014TIP3    H133457   1.026   0.203   4.033 -1.1870  0.3472  0.6534
 4014TIP3    H233458   1.073   0.310   3.937  1.3165 -1.1168  0.1658
 4015TIP3   OH233459   4.213   5.220  12.323 -0.4913  1.0693 -0.5023
 4015TIP3    H133460   4.228   5.305  12.282 -1.2283  0.6176 -1.7509
 4015TIP3    H233461   4.187   5.162  12.251 -0.8188 -0.0079  0.4507
 4016TIP3   OH233462   1.188   3.969  16.772 -0.6167  0.0433 -0.4714
 4016TIP3    H133463   1.150   3.981  16.859  0.3449 -0.3990  0.0173
 4016TIP3    H233464   1.281   3.987  16.783 -0.2800 -1.1552 -1.1548
 4017TIP3   OH233465   0.044   5.964   0.410  0.3323  0.3940  1.0095
 4017TIP3    H133466   0.002   5.993   0.490  0.9408 -0.2494  1.5811
 4017TIP3    H233467   0.132   6.002   0.414  0.1562  0.8870  0.3284
 4018TIP3   OH233468   4.613   0.637  12.243 -0.0344  0.3565 -0.3861
 4018TIP3    H133469   4.562   0.643  12.162  0.1390 -1.4908 -0.6686
 4018TIP3    H233470   4.656   0.552  12.238 -0.4421 -0.0472  1.8827
 4019TIP3   OH233471   0.293   6.704  14.252  0.1228  0.1414 -0.0383
 4019TIP3    H133472   0.379   6.744  14.259  0.8966 -1.5299  0.4025
 4019TIP3    H233473   0.271   6.710  14.159  1.8101 -1.5365 -0.6005
 4020TIP3   OH233474   5.102   5.435   1.877 -0.0542  0.3587 -0.1365
 4020TIP3    H133475   5.132   5.514   1.921  0.0049  0.3637 -0.1860
 4020TIP3    H233476   5.077   5.376   1.948  0.5846  0.1518 -0.0851
 4021TIP3   OH233477   2.611   0.135  13.103  0.0189 -0.1123  0.4202
 4021TIP3    H133478   2.704   0.118  13.087  0.1116 -0.1746  1.0004
 4021TIP3    H233479   2.598   0.225  13.073  0.2591 -0.1166  0.3013
 4022TIP3   OH233480   4.719   5.685   4.734 -0.4748 -0.4790 -0.3334
 4022TIP3    H133481   4.766   5.756   4.690 -0.0335 -0.1098  0.6971
 4022TIP3    H233482   4.755   5.605   4.695  0.8971 -0.2015  0.2997
 4023TIP3   OH233483   5.485   0.956  17.277  0.0437 -0.2713  0.1002
 4023TIP3    H133484   5.531   0.872  17.273 -0.8973 -0.8377  0.5980
 4023TIP3    H233485   5.541   1.012  17.330  1.5119 -0.0081 -1.6446
 4024TIP3   OH233486   4.523   0.207   4.286  0.2668 -0.0033 -0.3209
 4024TIP3    H133487   4.534   0.295   4.321 -0.2625  0.0435 -0.2570
 4024TIP3    H233488   4.587   0.154   4.333  1.0344  0.4688 -0.8255
 4025TIP3   OH233489   1.573   5.228   3.640  0.2751 -0.3025  0.0116
 4025TIP3    H133490   1.486   5.214   3.678 -0.6617  0.1127 -1.8787
 4025TIP3    H233491   1.597   5.317   3.668  0.5963 -0.7970  1.4037
 4026TIP3   OH233492   4.037   6.561   0.760  0.1911  0.3107  0.0767
 4026TIP3    H133493   3.980   6.633   0.785 -0.0133  0.7152 -1.4681
 4026TIP3    H233494   4.067   6.583   0.672 -0.3975 -1.8026 -0.7178
 4027TIP3   OH233495   3.598   1.881   0.713 -0.3711  0.3546  0.0489
 4027TIP3    H133496   3.640   1.904   0.796 -1.8480  0.1677  0.8876
 4027TIP3    H233497   3.576   1.788   0.722  0.4587  0.0331 -1.0240
 4028TIP3   OH233498   4.736   2.649   4.226 -0.1556  0.1448  0.4135
 4028TIP3    H133499   4.798   2.584   4.192 -1.4143 -0.5269 -0.7006
 4028TIP3    H233500   4.666   2.652   4.160  0.1095  3.0584  0.1406
 4029TIP3   OH233501   3.481   3.736   3.750  0.1566  0.1012  0.6655
 4029TIP3    H133502   3.454   3.713   3.661  1.2371 -0.2789  0.4179
 4029TIP3    H233503   3.534   3.662   3.778  1.4128  1.0574  0.9048
 4030TIP3   OH233504   3.965   1.569   5.025 -0.0787 -0.4506 -0.3495
 4030TIP3    H133505   4.048   1.543   4.985  1.0390  1.5846  0.5145
 4030TIP3    H233506   3.903   1.572   4.952  0.0733 -3.6938 -0.7614
 4031TIP3   OH233507   3.291   1.162   3.016 -0.3474 -0.3401 -0.1666
 4031TIP3    H133508   3.304   1.157   3.111 -0.3503 -0.3439 -0.1664
 4031TIP3    H233509   3.300   1.255   2.995 -0.6518 -0.2989 -0.1180
 4032TIP3   OH233510   3.151   5.233   4.935  0.2351  0.2438  0.0332
 4032TIP3    H133511   3.101   5.315   4.938  2.3592  1.6033  2.5476
 4032TIP3    H233512   3.107   5.176   4.998 -1.9209 -1.1689 -2.5066
 4033TIP3   OH233513   5.743   2.437   5.243 -0.6437 -0.1412 -0.3897
 4033TIP3    H133514   5.797   2.481   5.309 -0.7378 -1.1625  0.3899
 4033TIP3    H233515   5.735   2.501   5.173  2.0694 -0.1248 -0.8131
 4034TIP3   OH233516   1.730   1.343   2.403  0.4227  0.1571  0.0157
 4034TIP3    H133517   1.781   1.338   2.323 -0.3927  0.1579 -0.5120
 4034TIP3    H233518   1.666   1.413   2.387 -0.6857 -0.7901  0.0996
 4035TIP3   OH233519   0.746   1.326   1.749  0.0723 -0.1779  0.1089
 4035TIP3    H133520   0.654   1.343   1.768 -0.2380 -1.2963 -0.3278
 4035TIP3    H233521   0.783   1.296   1.833  0.4824  1.8795  0.7296
 4036TIP3   OH233522   4.449   0.708  11.653 -0.0316  0.9054 -0.0747
 4036TIP3    H133523   4.383   0.644  11.679  0.7202  0.4216  0.7594
 4036TIP3    H233524   4.421   0.739  11.568 -1.5502  1.0307  0.4358
 4037TIP3   OH233525   0.629   2.846   2.823  0.7269  0.0041 -0.0574
 4037TIP3    H133526   0.668   2.771   2.779  1.1465 -0.6035  1.3060
 4037TIP3    H233527   0.604   2.813   2.909  2.0946  1.7098  1.0642
 4038TIP3   OH233528   0.226   3.299   4.168 -0.3512 -0.1506 -0.3300
 4038TIP3    H133529   0.143   3.278   4.212 -0.2479 -0.2090 -0.1604
 4038TIP3    H233530   0.203   3.311   4.076 -0.6322  0.3262 -0.2027
 4039TIP3   OH233531   6.571   0.475   1.586 -0.3589  0.3457 -0.2517
 4039TIP3    H133532   6.659   0.444   1.567 -0.4993  0.5694 -1.3430
 4039TIP3    H233533   6.560   0.461   1.680  1.2709  1.4300  0.1357
 4040TIP3   OH233534   4.471   0.294  13.267 -0.2039  0.5720 -0.0758
 4040TIP3    H133535   4.475   0.230  13.337 -2.4832  3.1278  2.6620
 4040TIP3    H233536   4.553   0.342  13.273  0.5630 -0.6083 -0.7082
 4041TIP3   OH233537   3.265   2.289   5.972  0.3462  0.1604 -0.4317
 4041TIP3    H133538   3.205   2.281   6.046  1.6206 -0.5643  0.5646
 4041TIP3    H233539   3.212   2.267   5.896 -1.8571  3.8817 -0.2394
 4042TIP3   OH233540   5.659   5.153   3.107  0.1747 -0.3910  0.0356
 4042TIP3    H133541   5.690   5.229   3.058 -0.3844 -0.5236 -0.5425
 4042TIP3    H233542   5.729   5.134   3.170  0.7452  0.0091 -0.4677
 4043TIP3   OH233543   3.196   3.506  14.574 -0.3089  0.2684  0.1275
 4043TIP3    H133544   3.104   3.482  14.589 -0.3692 -0.8517 -1.7470
 4043TIP3    H233545   3.192   3.592  14.532 -0.7009 -0.7452 -2.0550
 4044TIP3   OH233546   1.031   3.511   0.035 -0.0504 -0.3523 -0.1029
 4044TIP3    H133547   1.118   3.472   0.038  0.5894  1.0907  1.4850
 4044TIP3    H233548   1.034   3.569  -0.041  0.0062 -1.0548 -0.6506
 4045TIP3   OH233549   2.019   4.289  14.372  0.3448 -0.3642 -0.8811
 4045TIP3    H133550   2.067   4.351  14.318 -0.3970 -0.4213 -1.6242
 4045TIP3    H233551   1.980   4.228  14.309  0.1572 -0.9312 -0.2289
 4046TIP3   OH233552   1.643   3.535  12.110 -0.2163 -0.2242  0.3103
 4046TIP3    H133553   1.625   3.568  12.022 -0.4698  2.0622  1.1471
 4046TIP3    H233554   1.646   3.440  12.100 -1.0888 -0.0708 -1.9955
 4047TIP3   OH233555   1.125   3.960   0.638  0.0922 -0.0191  0.0789
 4047TIP3    H133556   1.098   4.052   0.643  2.1652  0.5569  2.1838
 4047TIP3    H233557   1.075   3.917   0.708  0.9604  0.0508  0.7556
 4048TIP3   OH233558   5.381   1.678   3.640 -0.8057 -0.2975  0.0884
 4048TIP3    H133559   5.346   1.619   3.573  1.2589 -2.2777  0.6434
 4048TIP3    H233560   5.334   1.760   3.626 -2.7178 -1.5948 -1.7090
 4049TIP3   OH233561   5.561   2.651   1.041 -0.1991 -0.1697 -0.6590
 4049TIP3    H133562   5.591   2.741   1.055  0.8748 -0.2717 -1.9918
 4049TIP3    H233563   5.587   2.632   0.950  0.1404 -2.0232 -0.2087
 4050TIP3   OH233564   0.974   2.806  15.619 -0.2510  0.1538 -0.6732
 4050TIP3    H133565   0.996   2.826  15.710 -1.3583 -1.8999  0.1118
 4050TIP3    H233566   1.045   2.846  15.568  1.9768 -1.0491  1.2879
 4051TIP3   OH233567   1.145   1.819   5.839 -0.1139  0.3524  0.0966
 4051TIP3    H133568   1.187   1.900   5.867  1.4026 -0.1142 -0.7199
 4051TIP3    H233569   1.052   1.841   5.832 -0.3372  1.0154  3.5086
 4052TIP3   OH233570   6.314   4.748   2.143 -0.1442  0.4233  0.5792
 4052TIP3    H133571   6.313   4.666   2.095 -1.2378  1.2276 -0.8771
 4052TIP3    H233572   6.288   4.814   2.078  1.6836  2.0795  1.4300
 4053TIP3   OH233573   2.470   4.874   4.785 -0.4135 -0.5001 -0.3380
 4053TIP3    H133574   2.492   4.798   4.839 -1.0839  0.7330  1.7779
 4053TIP3    H233575   2.554   4.916   4.769 -0.2653 -0.5184  0.3357
 4054TIP3   OH233576   6.362   6.550   0.910  0.1348  0.3429  0.2519
 4054TIP3    H133577   6.419   6.520   0.981  1.0598 -1.6940 -1.2241
 4054TIP3    H233578   6.389   6.640   0.893  0.4691  0.5764  1.9002
 4055TIP3   OH233579   4.789   2.065  13.369 -0.6677  0.0577 -0.0364
 4055TIP3    H133580   4.746   2.022  13.296 -0.6323 -1.4324  0.7911
 4055TIP3    H233581   4.881   2.044  13.359 -0.4565  1.0495 -0.3352
 4056TIP3   OH233582   3.669   0.902   0.550 -0.8221 -0.0397  0.2377
 4056TIP3    H133583   3.671   0.988   0.593 -1.9845  0.1104  0.0362
 4056TIP3    H233584   3.686   0.921   0.458  2.2935 -0.4283  0.6291
 4057TIP3   OH233585   6.323   3.035  13.254  0.0014 -0.1969  0.0245
 4057TIP3    H133586   6.362   3.034  13.341 -0.6999  0.4959  0.3639
 4057TIP3    H233587   6.360   3.113  13.213 -0.0167 -0.2716 -0.1340
 4058TIP3   OH233588   5.718   2.748   3.546  0.1643  0.1471  0.3675
 4058TIP3    H133589   5.639   2.703   3.576  0.2978 -0.5985 -0.3549
 4058TIP3    H233590   5.688   2.802   3.473  0.7537 -2.3285 -1.8374
 4059TIP3   OH233591   3.457   5.334   1.654 -0.0824 -0.0404  0.1072
 4059TIP3    H133592   3.431   5.272   1.586  0.5425  0.5478 -0.6915
 4059TIP3    H233593   3.529   5.291   1.700  0.1945 -0.0139 -0.2932
 4060TIP3   OH233594   1.662   6.592   5.186 -0.2612 -0.1180 -1.2047
 4060TIP3    H133595   1.701   6.662   5.133  2.4345 -0.2290  0.4661
 4060TIP3    H233596   1.718   6.516   5.171 -0.0916 -0.4591  0.9305
 4061TIP3   OH233597   3.226   1.432  15.751  0.3245  0.0707 -0.2214
 4061TIP3    H133598   3.200   1.503  15.809 -0.8397 -0.1169 -0.4826
 4061TIP3    H233599   3.320   1.442  15.740  0.1899  1.5028 -0.1703
 4062TIP3   OH233600   3.325   2.981  16.896 -0.2127  0.5438  0.5615
 4062TIP3    H133601   3.325   3.049  16.963 -2.3185  0.3883  0.7916
 4062TIP3    H233602   3.358   3.024  16.818  1.3941  0.9709  1.4327
 4063TIP3   OH233603   3.254   5.022  17.104  0.1414 -0.2075  0.0516
 4063TIP3    H133604   3.185   5.015  17.038  0.4729  0.5458 -0.3918
 4063TIP3    H233605   3.229   5.099  17.156 -0.7275 -1.4636  1.5575
 4064TIP3   OH233606   6.709   4.925   6.016 -0.5263 -0.2346 -0.3969
 4064TIP3    H133607   6.669   4.854   6.065  1.0361 -2.0410 -1.5879
 4064TIP3    H233608   6.727   4.992   6.082 -0.3515 -1.7152  1.1397
 4065TIP3   OH233609   1.546   0.193   1.111 -0.3865  0.1424  0.1511
 4065TIP3    H133610   1.565   0.233   1.026  1.5019 -1.6548 -0.3458
 4065TIP3    H233611   1.450   0.187   1.113 -0.5218  1.0255 -1.4483
 4066TIP3   OH233612   2.509   5.591  16.235 -0.1599 -0.6682 -0.0828
 4066TIP3    H133613   2.501   5.625  16.146 -1.4551  2.0519  0.9601
 4066TIP3    H233614   2.561   5.657  16.282 -0.0818 -1.6933  1.3492
 4067TIP3   OH233615   4.633   0.920   0.606 -0.3416  0.0469  0.2422
 4067TIP3    H133616   4.621   0.990   0.542 -1.1544 -1.3458 -1.2056
 4067TIP3    H233617   4.600   0.956   0.688  2.1481  2.4432  0.3594
 4068TIP3   OH233618   5.193   2.371   0.161  0.0489 -0.1690 -0.1934
 4068TIP3    H133619   5.202   2.466   0.170 -1.0169 -0.0658 -0.1181
 4068TIP3    H233620   5.200   2.338   0.251  0.2541 -0.1522 -0.2018
 4069TIP3   OH233621   3.731   5.938  15.510 -0.1672 -0.6420  0.2693
 4069TIP3    H133622   3.737   6.020  15.461 -2.6020  0.0317  0.9611
 4069TIP3    H233623   3.786   5.877  15.461  1.1824  1.1907 -0.6409
 4070TIP3   OH233624   4.423   4.893   0.904  0.0303  0.1061 -0.1318
 4070TIP3    H133625   4.383   4.840   0.836 -0.4861 -0.2699  0.4532
 4070TIP3    H233626   4.512   4.861   0.911 -1.2390 -3.4572  2.8587
 4071TIP3   OH233627   0.497   6.052  11.014 -0.3051  0.6283  0.5391
 4071TIP3    H133628   0.487   6.041  11.109 -0.9944 -0.8854  0.3188
 4071TIP3    H233629   0.409   6.075  10.984 -0.1850  0.6465  0.2051
 4072TIP3   OH233630   0.754   3.243  17.181 -0.4439 -0.0041 -0.0483
 4072TIP3    H133631   0.828   3.253  17.121 -0.3193 -1.8887 -0.2723
 4072TIP3    H233632   0.791   3.258  17.268 -0.1656  0.6560 -0.2744
 4073TIP3   OH233633   3.884   5.224  10.856  0.3637 -0.7185  0.4232
 4073TIP3    H133634   3.803   5.274  10.849 -0.4118 -1.9184  0.7064
 4073TIP3    H233635   3.946   5.286  10.896 -0.6257 -0.0423  0.9641
 4074TIP3   OH233636   1.737   1.622  15.289 -0.1576  0.4347  0.6720
 4074TIP3    H133637   1.803   1.592  15.227  2.2302  1.8594  2.3292
 4074TIP3    H233638   1.726   1.550  15.351 -1.0809 -0.2534 -0.2790
 4075TIP3   OH233639   4.378   5.835  11.592  0.1015 -0.1629 -0.0181
 4075TIP3    H133640   4.362   5.929  11.593  0.0180 -0.1798  0.8570
 4075TIP3    H233641   4.412   5.817  11.504  0.1568  0.6876 -0.1739
 4076TIP3   OH233642   0.040   3.203   3.181  0.2322 -0.1310  0.3006
 4076TIP3    H133643  -0.048   3.211   3.217  0.2339  1.5970  0.0201
 4076TIP3    H233644   0.040   3.119   3.136 -1.6064  0.2792 -0.5539
 4077TIP3   OH233645   2.746   3.013   1.870  0.3429 -0.0525  0.6812
 4077TIP3    H133646   2.792   3.036   1.790  2.3536  0.9135  2.0567
 4077TIP3    H233647   2.676   3.078   1.877 -0.5569 -0.7935 -0.7802
 4078TIP3   OH233648   4.999   0.982   3.344 -0.3157 -0.2774 -0.1847
 4078TIP3    H133649   4.918   1.024   3.315  0.6420  0.9345 -1.2179
 4078TIP3    H233650   5.068   1.031   3.300  1.0872 -0.1980  1.9968
 4079TIP3   OH233651   5.099   0.142  17.126 -0.7237  0.0478 -0.1991
 4079TIP3    H133652   5.018   0.128  17.076 -0.1569  0.6008 -1.2879
 4079TIP3    H233653   5.116   0.236  17.118  0.1940 -0.1195 -0.2227
 4080TIP3   OH233654   4.272   4.804  12.698  0.9961  0.8489 -0.2673
 4080TIP3    H133655   4.214   4.729  12.682  1.3162  1.0740 -2.8514
 4080TIP3    H233656   4.235   4.846  12.776 -0.3448 -0.8772  0.1003
 4081TIP3   OH233657   4.600   4.048   1.656 -0.8411  0.3018 -0.5065
 4081TIP3    H133658   4.592   4.073   1.748 -0.0655 -0.0218 -0.3421
 4081TIP3    H233659   4.517   4.074   1.617 -1.3824 -0.0265  0.3964
 4082TIP3   OH233660   0.858   5.413  11.441  0.1290  0.1301  0.1017
 4082TIP3    H133661   0.766   5.406  11.416  0.1872  0.3540 -0.1850
 4082TIP3    H233662   0.874   5.336  11.495  0.5874 -1.7113 -2.4567
 4083TIP3   OH233663   5.811   1.987   1.948  0.1701 -0.1292 -0.0331
 4083TIP3    H133664   5.777   1.966   2.035  0.6752  0.5673  0.3434
 4083TIP3    H233665   5.733   2.006   1.896 -0.0648  1.9096  0.9325
 4084TIP3   OH233666   2.833   4.406   4.341 -0.3595  0.1562  0.4792
 4084TIP3    H133667   2.923   4.437   4.338 -0.2993 -0.0200  0.4671
 4084TIP3    H233668   2.780   4.485   4.352 -0.2385  0.3018 -0.0024
 4085TIP3   OH233669   1.869   3.174   0.681  0.0323  0.2913  0.1905
 4085TIP3    H133670   1.889   3.230   0.606  1.3664  1.2708  1.2315
 4085TIP3    H233671   1.885   3.229   0.758  0.8481 -1.3281  1.2573
 4086TIP3   OH233672   5.078   5.560   3.169  0.3603 -0.8133 -0.3513
 4086TIP3    H133673   5.171   5.542   3.184 -0.1362 -3.8317 -0.1789
 4086TIP3    H233674   5.075   5.607   3.086  2.0348 -0.6437 -0.3413
 4087TIP3   OH233675   3.368   3.484   0.687  0.1812  0.0008  0.3088
 4087TIP3    H133676   3.388   3.478   0.594 -1.9482  1.5334 -0.3224
 4087TIP3    H233677   3.396   3.572   0.712  0.7004 -0.3826  1.1469
 4088TIP3   OH233678   0.583   0.684  14.431  0.0022 -0.1822 -0.1490
 4088TIP3    H133679   0.489   0.683  14.447  0.1660 -3.0083  1.1589
 4088TIP3    H233680   0.592   0.666  14.337 -0.7516 -1.4749  0.0151
 4089TIP3   OH233681   2.261   2.940   0.023  0.2321  0.0363 -0.7423
 4089TIP3    H133682   2.250   3.013  -0.037  0.9633  0.9081  0.1441
 4089TIP3    H233683   2.172   2.914   0.046 -0.0508 -0.0464 -1.8644
 4090TIP3   OH233684   0.044   2.182   1.480 -0.4281 -0.0670  0.1745
 4090TIP3    H133685   0.064   2.165   1.388 -0.0212  1.9256 -0.1364
 4090TIP3    H233686   0.075   2.104   1.526 -1.4761 -1.5015 -1.4387
 4091TIP3   OH233687   0.241   2.808  12.849 -0.2381 -0.4843  0.3554
 4091TIP3    H133688   0.321   2.776  12.807  0.4171  1.6042 -0.0951
 4091TIP3    H233689   0.170   2.780  12.790  0.3782 -0.3404 -0.4677
 4092TIP3   OH233690   4.218   5.439   6.346  0.4353 -0.1773 -0.0088
 4092TIP3    H133691   4.141   5.455   6.400  0.4102  0.3675 -0.2005
 4092TIP3    H233692   4.229   5.344   6.347 -1.3952 -0.4564 -1.5961
 4093TIP3   OH233693   3.877   5.834  16.739 -0.3775 -0.0282 -0.5298
 4093TIP3    H133694   3.966   5.830  16.703 -0.0282  0.0346  0.3010
 4093TIP3    H233695   3.889   5.815  16.832 -1.3031 -0.5532 -0.5104
 4094TIP3   OH233696   1.257   5.489   2.914  0.2768 -0.0110 -0.1174
 4094TIP3    H133697   1.312   5.533   2.978 -0.4460  0.2399  0.3371
 4094TIP3    H233698   1.316   5.471   2.840  0.8757  0.5754  0.2106
 4095TIP3   OH233699   0.553   4.745  17.356  0.3598  0.2622 -0.6430
 4095TIP3    H133700   0.578   4.785  17.440 -0.8296  0.7681 -0.5174
 4095TIP3    H233701   0.589   4.804  17.290  0.9897  0.0531 -0.4939
 4096TIP3   OH233702   5.424   1.134  13.866  0.1861 -0.1100  0.0141
 4096TIP3    H133703   5.347   1.189  13.884  0.3898 -0.2351  1.3729
 4096TIP3    H233704   5.449   1.156  13.776 -1.2899  0.1096 -0.3663
 4097TIP3   OH233705   2.686   2.730   0.669  0.3111  0.4070  0.1706
 4097TIP3    H133706   2.689   2.825   0.675 -0.4053  0.4687 -0.3338
 4097TIP3    H233707   2.778   2.703   0.671  0.4930  1.0555  1.0325
 4098TIP3   OH233708   5.837   0.699  10.782 -0.0359 -0.1114  0.4822
 4098TIP3    H133709   5.830   0.639  10.707  0.3295 -0.3987  0.6712
 4098TIP3    H233710   5.909   0.757  10.759  1.3755 -1.4115  1.4196
 4099TIP3   OH233711   0.865   2.632  10.883 -0.0480  0.8358 -0.2770
 4099TIP3    H133712   0.776   2.641  10.916 -0.3480 -0.7147 -0.5928
 4099TIP3    H233713   0.879   2.711  10.831 -1.9230  0.3041 -1.7233
 4100TIP3   OH233714   6.165   4.582  15.309 -0.2721 -0.1400 -0.6386
 4100TIP3    H133715   6.073   4.605  15.319  0.3172  1.7592  1.0735
 4100TIP3    H233716   6.186   4.533  15.388  0.5882  0.9815 -0.1434
 4101TIP3   OH233717   0.431   4.688   5.650  0.0730 -0.2940 -0.9146
 4101TIP3    H133718   0.508   4.720   5.604  0.3399 -0.1998 -0.3986
 4101TIP3    H233719   0.435   4.728   5.737 -0.0735 -0.9963 -0.5777
 4102TIP3   OH233720   1.738   1.481   3.539  0.5012 -0.2544  0.1231
 4102TIP3    H133721   1.723   1.433   3.620  1.3513 -0.9549 -0.1193
 4102TIP3    H233722   1.811   1.540   3.559  0.6799 -0.3927 -0.1177
 4103TIP3   OH233723   1.477   5.558   1.370 -0.0310 -0.0348 -0.2511
 4103TIP3    H133724   1.460   5.465   1.356 -0.4863 -0.0972  0.6159
 4103TIP3    H233725   1.445   5.575   1.459  0.2637  0.8964 -0.3105
 4104TIP3   OH233726   6.002   3.492   4.196 -0.2421 -0.1703  0.0191
 4104TIP3    H133727   5.912   3.487   4.163  0.0085  0.4839 -0.8013
 4104TIP3    H233728   6.044   3.557   4.140  0.4587  0.3058  1.0690
 4105TIP3   OH233729   3.782   3.824   1.477  0.8047  0.6762 -0.3112
 4105TIP3    H133730   3.808   3.735   1.497 -0.9303  0.5021  1.5117
 4105TIP3    H233731   3.832   3.847   1.398  0.0676 -2.4821 -1.8622
 4106TIP3   OH233732   2.526   3.490  12.420 -0.0814  0.1187 -0.3053
 4106TIP3    H133733   2.467   3.469  12.348  0.1197  0.6142 -0.6235
 4106TIP3    H233734   2.570   3.570  12.391  0.5261 -0.0835  0.0565
 4107TIP3   OH233735   5.388   0.890  16.224  0.2555  0.2931 -0.0843
 4107TIP3    H133736   5.346   0.807  16.202  1.0511 -0.3516  0.7239
 4107TIP3    H233737   5.428   0.919  16.142  0.8841 -0.6747 -0.1376
 4108TIP3   OH233738   5.127   4.970   1.803 -0.1609 -0.0498 -0.0551
 4108TIP3    H133739   5.145   4.984   1.896  0.0719  1.2181 -0.2662
 4108TIP3    H233740   5.068   4.895   1.800 -0.1382 -0.1281  1.1098
 4109TIP3   OH233741   4.701   1.079   1.936 -0.1006 -0.3090 -0.1574
 4109TIP3    H133742   4.678   0.987   1.950  2.7741 -0.9044  1.3455
 4109TIP3    H233743   4.749   1.104   2.015  2.7573  1.2503 -2.2245
 4110TIP3   OH233744   4.090   1.566  16.943  0.0514 -0.3674  0.4152
 4110TIP3    H133745   4.035   1.560  16.865  0.9238  0.5331 -0.2965
 4110TIP3    H233746   4.156   1.632  16.921  1.8880 -1.9263  0.9476
 4111TIP3   OH233747   3.789   3.209  12.152 -0.1862  0.6637  0.4547
 4111TIP3    H133748   3.867   3.239  12.199 -0.6634  0.0860  1.6718
 4111TIP3    H233749   3.822   3.143  12.090  0.0338 -2.2272  3.3465
 4112TIP3   OH233750   1.258   6.646   5.887 -0.7842 -0.1759  0.0345
 4112TIP3    H133751   1.193   6.689   5.942 -0.6167 -0.9548  0.8621
 4112TIP3    H233752   1.270   6.560   5.927 -3.6045 -2.4539 -3.3776
 4113TIP3   OH233753   6.286   0.022   1.479 -0.2377 -0.0719 -0.1759
 4113TIP3    H133754   6.368  -0.027   1.480  0.4460  1.0303  0.4159
 4113TIP3    H233755   6.300   0.091   1.415 -1.2401 -0.7023 -1.1050
 4114TIP3   OH233756   0.595   3.100   3.434 -0.5252  0.3166  0.1199
 4114TIP3    H133757   0.518   3.087   3.379 -0.1817 -1.1103 -0.0821
 4114TIP3    H233758   0.625   3.011   3.454  0.6624  0.8350  0.7577
 4115TIP3   OH233759   6.379   2.278   5.385  0.2817 -0.1538 -0.4389
 4115TIP3    H133760   6.401   2.185   5.383  0.8050 -0.0807  0.9263
 4115TIP3    H233761   6.455   2.322   5.345  0.1749 -0.2896 -0.7912
 4116TIP3   OH233762   5.060   3.139   2.542  0.2444 -0.2194 -0.3356
 4116TIP3    H133763   5.034   3.047   2.538 -0.8094 -0.0451  1.4908
 4116TIP3    H233764   5.028   3.170   2.627 -1.2263  2.3721 -1.6973
 4117TIP3   OH233765   5.485   0.701  13.149  0.6249 -0.6463 -0.4063
 4117TIP3    H133766   5.564   0.744  13.118  0.1555  1.2783  0.9383
 4117TIP3    H233767   5.508   0.666  13.235  0.3494 -1.1867 -0.5437
 4118TIP3   OH233768   3.793   0.326   5.989 -0.6500  0.5060 -0.0873
 4118TIP3    H133769   3.811   0.402   6.045 -1.0797 -0.1768  1.0026
 4118TIP3    H233770   3.854   0.259   6.018  0.4421  0.7300 -1.7455
 4119TIP3   OH233771   3.737   4.638   1.703 -0.4357 -0.0947 -0.0081
 4119TIP3    H133772   3.745   4.722   1.657 -0.6702  0.6378  1.2469
 4119TIP3    H233773   3.766   4.573   1.639  0.3913  1.0006 -0.7955
 4120TIP3   OH233774   6.000   2.472  12.772 -0.7107 -0.2547  0.1775
 4120TIP3    H133775   6.046   2.547  12.808  0.4652  0.5550 -2.7117
 4120TIP3    H233776   5.907   2.494  12.781 -0.7052 -1.1770  4.5742
 4121TIP3   OH233777   0.763   6.036   2.047 -0.2952  0.5971  0.2941
 4121TIP3    H133778   0.680   6.020   2.093  0.0003 -2.4700  0.0015
 4121TIP3    H233779   0.737   6.078   1.964 -1.2529  2.0055  1.2634
 4122TIP3   OH233780   0.678   5.574   1.268  0.5140  0.0423  0.0606
 4122TIP3    H133781   0.730   5.590   1.189 -1.0751 -0.3393 -1.1067
 4122TIP3    H233782   0.720   5.499   1.310  1.9389  0.8319  0.1275
 4123TIP3   OH233783   3.079   2.069  14.788 -0.4343  0.0007 -0.0215
 4123TIP3    H133784   3.141   2.140  14.770  0.9632 -1.2978 -0.6442
 4123TIP3    H233785   3.048   2.084  14.877  0.0059  1.2543 -0.0727
 4124TIP3   OH233786   0.364   2.498   0.244  0.6877  0.3242 -0.1729
 4124TIP3    H133787   0.432   2.565   0.251 -0.8416  2.0000 -0.6849
 4124TIP3    H233788   0.291   2.542   0.199 -0.3703 -1.6962 -0.5545
 4125TIP3   OH233789   1.230   2.706   3.060  0.7978  0.5359 -0.4817
 4125TIP3    H133790   1.142   2.710   3.096 -0.0983  0.6947 -2.6117
 4125TIP3    H233791   1.248   2.612   3.050  0.4699  0.5295 -1.0014
 4126TIP3   OH233792   0.418   4.215  14.960 -0.3275 -0.7341  0.3768
 4126TIP3    H133793   0.460   4.132  14.936 -0.4458 -0.5765 -0.4027
 4126TIP3    H233794   0.349   4.226  14.894 -0.4344 -0.1100  0.5925
 4127TIP3   OH233795   3.721   1.492  12.894 -0.4754 -0.1649  0.6007
 4127TIP3    H133796   3.768   1.415  12.927 -1.0037 -0.7545  0.0039
 4127TIP3    H233797   3.789   1.558  12.882 -0.0543 -0.4339  1.4067
 4128TIP3   OH233798   4.752   1.397  16.705 -0.0958 -0.0838 -0.4579
 4128TIP3    H133799   4.668   1.442  16.712  0.5942  1.3507 -0.8347
 4128TIP3    H233800   4.795   1.413  16.789 -0.4337 -1.3592 -0.0221
 4129TIP3   OH233801   3.470   2.938   3.255 -0.1679  0.2982 -0.1338
 4129TIP3    H133802   3.508   2.942   3.343 -1.2573  0.1587  0.3617
 4129TIP3    H233803   3.438   3.026   3.239 -0.3977  0.2047 -0.1923
 4130TIP3   OH233804   0.297   0.569  15.297 -0.1818  0.2772 -0.0358
 4130TIP3    H133805   0.376   0.609  15.261 -0.4931 -0.1012 -1.1915
 4130TIP3    H233806   0.329   0.495  15.349  0.2677  0.7088  0.3109
 4131TIP3   OH233807   6.549   1.538  11.736 -0.2560 -0.1241  0.3490
 4131TIP3    H133808   6.556   1.513  11.644  1.3545 -0.8418  0.6207
 4131TIP3    H233809   6.522   1.630  11.735  0.5499  0.1195 -0.8736
 4132TIP3   OH233810   3.489   5.977  11.851  0.2292  0.0675 -0.4023
 4132TIP3    H133811   3.576   5.938  11.853  0.4175  0.5030  0.1225
 4132TIP3    H233812   3.429   5.902  11.853  0.5794 -0.2027  0.8428
 4133TIP3   OH233813   5.264   3.037  13.034  0.3762  0.0290 -0.2244
 4133TIP3    H133814   5.262   2.959  13.090  0.2742  0.0596 -0.1851
 4133TIP3    H233815   5.271   3.002  12.945  0.1302 -0.0301 -0.2204
 4134TIP3   OH233816   0.535   2.019  13.190  0.2478 -0.5816  0.2887
 4134TIP3    H133817   0.627   2.046  13.183  0.6084 -1.3561  1.5982
 4134TIP3    H233818   0.510   2.045  13.279 -0.9535  0.0319 -0.2064
 4135TIP3   OH233819   5.315   3.244  12.279  0.4667  0.1190  0.0673
 4135TIP3    H133820   5.248   3.281  12.222  2.0949  1.4177 -1.1022
 4135TIP3    H233821   5.314   3.299  12.357  2.4405  2.4064 -1.3982
 4136TIP3   OH233822   3.197   4.556   5.135  0.1143  0.3088  0.2643
 4136TIP3    H133823   3.251   4.612   5.190  0.6548 -0.1433  0.2105
 4136TIP3    H233824   3.243   4.472   5.135 -0.7910 -0.2037  0.5241
 4137TIP3   OH233825   5.553   2.629  10.890 -0.4691 -0.4743 -0.1761
 4137TIP3    H133826   5.624   2.693  10.880  0.1939 -1.1380  0.2137
 4137TIP3    H233827   5.479   2.669  10.844  0.3313 -0.0539 -1.1427
 4138TIP3   OH233828   0.682   0.614  17.143  0.5595  0.1639 -0.5134
 4138TIP3    H133829   0.629   0.675  17.093 -0.9840 -1.0455 -0.4243
 4138TIP3    H233830   0.724   0.558  17.078 -3.2675 -2.9428 -0.6658
 4139TIP3   OH233831   2.609   3.813  15.762 -0.6161 -1.0758 -0.3953
 4139TIP3    H133832   2.547   3.764  15.817 -0.2585  0.2937  1.3191
 4139TIP3    H233833   2.667   3.745  15.726 -1.6136 -2.1386 -0.0629
 4140TIP3   OH233834   1.251   2.461  14.441 -0.4086  0.4320 -0.2636
 4140TIP3    H133835   1.165   2.456  14.399 -0.2109 -0.4188 -0.5984
 4140TIP3    H233836   1.234   2.495  14.528 -0.9793  1.0872 -0.6224
 4141TIP3   OH233837   4.279   4.552  13.654  0.5073  0.8685  0.1216
 4141TIP3    H133838   4.310   4.608  13.725  1.3688  0.2443  0.2618
 4141TIP3    H233839   4.346   4.562  13.586 -0.0540  1.0786 -0.4010
 4142TIP3   OH233840   2.387   2.273  12.572 -0.5242  0.2495  0.3239
 4142TIP3    H133841   2.479   2.275  12.547 -0.3962 -1.0133  0.6201
 4142TIP3    H233842   2.388   2.267  12.668 -0.9501  1.4824  0.4281
 4143TIP3   OH233843   6.319   2.592  12.370  0.1768  0.8565 -0.3737
 4143TIP3    H133844   6.358   2.565  12.287 -0.5664 -0.1534 -0.4259
 4143TIP3    H233845   6.378   2.558  12.437  0.1776  0.6535 -0.4761
 4144TIP3   OH233846   4.046   6.274   3.636  0.1285 -0.3020 -0.5018
 4144TIP3    H133847   4.016   6.353   3.591  0.8348 -0.6266 -1.6015
 4144TIP3    H233848   4.008   6.280   3.723 -0.2844  0.9747 -0.7425
 4145TIP3   OH233849   6.635   5.207   4.140  0.0786 -0.4377  0.1784
 4145TIP3    H133850   6.731   5.211   4.139  0.0559  0.2768 -0.0503
 4145TIP3    H233851   6.608   5.298   4.129 -0.6274 -0.5563  0.8879
 4146TIP3   OH233852   4.109   5.817  13.960 -0.4631  0.1897 -0.4245
 4146TIP3    H133853   4.094   5.747  14.025 -0.1105 -0.7212 -1.2948
 4146TIP3    H233854   4.204   5.831  13.963 -0.4378  0.0993 -0.7757
 4147TIP3   OH233855   2.840   3.389  12.288 -0.2061 -0.6593  0.1409
 4147TIP3    H133856   2.881   3.316  12.335  1.0347 -0.6735 -0.9305
 4147TIP3    H233857   2.750   3.360  12.273 -0.0774 -1.4512  0.8033
 4148TIP3   OH233858   0.299   2.535   5.317  0.9604 -0.2351  0.3196
 4148TIP3    H133859   0.347   2.601   5.269 -0.4148  0.7802  0.2783
 4148TIP3    H233860   0.330   2.542   5.407  1.6187 -0.3157  0.1018
 4149TIP3   OH233861   3.798   3.378  16.266 -0.1605  0.1022 -0.3416
 4149TIP3    H133862   3.870   3.421  16.312  0.2829 -0.4366 -0.5189
 4149TIP3    H233863   3.724   3.438  16.276  0.2812  0.6120 -0.0675
 4150TIP3   OH233864   5.106   0.300   5.338  0.1261  0.8007 -0.0219
 4150TIP3    H133865   5.031   0.333   5.388  1.8714  0.4269  3.0291
 4150TIP3    H233866   5.183   0.325   5.389  1.9915 -0.9335 -1.7722
 4151TIP3   OH233867   0.083   3.980  14.650  0.2081  0.0961  0.4162
 4151TIP3    H133868   0.079   3.888  14.622 -1.1056  0.2833 -0.0557
 4151TIP3    H233869   0.023   3.985  14.724  0.7737  0.4442  0.8564
 4152TIP3   OH233870   3.133   0.975  10.983  0.1555 -0.3163  0.6392
 4152TIP3    H133871   3.070   1.038  11.018 -0.6875 -0.9476  0.2810
 4152TIP3    H233872   3.213   0.991  11.033  0.4590  2.0867 -0.4545
 4153TIP3   OH233873   2.655   5.095   0.398  0.4584 -0.6177  0.0763
 4153TIP3    H133874   2.574   5.073   0.444 -0.3791 -0.6676 -1.3362
 4153TIP3    H233875   2.628   5.162   0.334  1.4311 -0.9795 -0.7373
 4154TIP3   OH233876   4.178   2.815  14.727 -0.1513  0.4685  0.0686
 4154TIP3    H133877   4.247   2.788  14.668 -0.7408 -0.8595 -0.0562
 4154TIP3    H233878   4.184   2.910  14.730  1.8277  0.3811  0.2760
 4155TIP3   OH233879   6.033   2.420  16.076 -0.3359 -0.4536 -0.0382
 4155TIP3    H133880   6.074   2.422  16.162  1.0504 -1.3496 -0.6564
 4155TIP3    H233881   6.024   2.327  16.055  0.8786 -0.2756 -1.5479
 4156TIP3   OH233882   4.296   1.180  13.595  0.1317 -0.5019 -0.0659
 4156TIP3    H133883   4.257   1.267  13.585  0.4841 -0.4051 -0.6260
 4156TIP3    H233884   4.294   1.143  13.507 -0.3591 -1.2143  0.2367
 4157TIP3   OH233885   6.715   4.813   6.608  0.3065 -0.1023  0.1187
 4157TIP3    H133886   6.753   4.769   6.685 -2.0521  0.0588  1.4748
 4157TIP3    H233887   6.782   4.876   6.582  1.1941 -0.1662  2.0432
 4158TIP3   OH233888   4.026   2.010   0.722  0.4949  0.4396  0.4424
 4158TIP3    H133889   4.100   2.038   0.669  0.9528 -2.3654 -0.5793
 4158TIP3    H233890   3.950   2.020   0.665  0.2000  2.2995  1.1174
 4159TIP3   OH233891   6.158   0.027  12.239  0.3100  0.0555 -0.2901
 4159TIP3    H133892   6.136   0.116  12.211  0.0418 -0.2899 -1.2394
 4159TIP3    H233893   6.208  -0.008  12.166  1.4761 -0.1753  0.5933
 4160TIP3   OH233894   5.023   1.718   4.867 -0.4001 -0.4464  0.0139
 4160TIP3    H133895   5.040   1.759   4.782  2.8643 -1.6036 -0.0386
 4160TIP3    H233896   5.062   1.779   4.930  1.6589 -1.8130  0.1743
 4161TIP3   OH233897   4.118   0.228   1.606  0.1109  0.3109 -0.4827
 4161TIP3    H133898   4.037   0.270   1.634 -0.0764  0.7542 -1.6503
 4161TIP3    H233899   4.089   0.147   1.564  0.1548  1.0740 -2.0441
 4162TIP3   OH233900   3.357   4.420  14.573 -0.1450 -0.2091  0.9368
 4162TIP3    H133901   3.283   4.441  14.516 -1.2097  1.0601  2.6923
 4162TIP3    H233902   3.422   4.489  14.554 -0.6335  0.4082  1.4459
 4163TIP3   OH233903   2.931   5.717  13.113 -0.0996 -0.2210  0.6524
 4163TIP3    H133904   2.983   5.786  13.153 -0.7508 -0.2840  1.6654
 4163TIP3    H233905   2.903   5.663  13.187 -1.8410 -0.0166  0.1808
 4164TIP3   OH233906   1.871   3.539   2.805  0.7527 -0.1703 -0.1998
 4164TIP3    H133907   1.823   3.460   2.780 -0.6179  0.3301  0.7421
 4164TIP3    H233908   1.951   3.506   2.845  0.0631 -1.1149  0.4712
 4165TIP3   OH233909   0.202   2.112   2.159 -0.2531 -0.3083 -0.6611
 4165TIP3    H133910   0.139   2.042   2.138  0.8365 -1.3876 -0.4453
 4165TIP3    H233911   0.267   2.108   2.088 -0.9624  1.5267 -1.4882
 4166TIP3   OH233912   6.154   6.407  14.533  0.3035  0.1714 -0.5495
 4166TIP3    H133913   6.097   6.371  14.602  2.0314  0.7152  1.2558
 4166TIP3    H233914   6.116   6.492  14.513 -0.3910 -0.1211 -0.5078
 4167TIP3   OH233915   6.753   1.053  11.607 -0.2914 -0.0408 -0.7693
 4167TIP3    H133916   6.677   1.112  11.612  0.0373  0.3166  0.4563
 4167TIP3    H233917   6.801   1.082  11.529 -0.6238  0.7191 -0.6995
 4168TIP3   OH233918   0.519   6.211  12.229 -0.0684  0.2781 -0.6800
 4168TIP3    H133919   0.578   6.265  12.177  1.2052 -1.8957 -1.6464
 4168TIP3    H233920   0.468   6.162  12.164 -0.5610 -0.3389  0.1437
 4169TIP3   OH233921   6.547   0.197   4.432 -0.5845 -0.0968 -0.2690
 4169TIP3    H133922   6.500   0.150   4.501 -1.1091  0.2739 -0.3728
 4169TIP3    H233923   6.637   0.166   4.440 -0.5086  0.3942  0.9767
 4170TIP3   OH233924   6.166   2.957   4.285  0.5794 -0.4838  0.1556
 4170TIP3    H133925   6.156   2.864   4.263  0.1517 -0.5071  0.4324
 4170TIP3    H233926   6.158   3.002   4.201 -0.5485 -0.6070  0.1776
 4171TIP3   OH233927   2.644   3.340   4.087 -0.0026  0.4767  0.1555
 4171TIP3    H133928   2.661   3.431   4.109 -1.2365  0.3412  1.8752
 4171TIP3    H233929   2.549   3.330   4.098  0.0646 -0.9324 -0.3270
 4172TIP3   OH233930   2.269   0.025   5.298 -0.2434 -0.2469 -0.2232
 4172TIP3    H133931   2.306  -0.017   5.220  1.3515 -0.8095  0.7767
 4172TIP3    H233932   2.178   0.040   5.276  0.2541 -0.0399 -2.3315
 4173TIP3   OH233933   5.977   4.312  15.775  0.0168 -0.3025  0.1320
 4173TIP3    H133934   5.935   4.348  15.854 -1.7032 -0.5502 -0.6196
 4173TIP3    H233935   5.967   4.382  15.710 -0.9828 -1.0944 -0.5928
 4174TIP3   OH233936   2.840   3.985  13.115 -0.1336 -0.4785 -0.9657
 4174TIP3    H133937   2.798   4.047  13.057 -1.4113 -1.7344 -1.4397
 4174TIP3    H233938   2.807   3.899  13.087  0.7803 -1.2900  0.3126
 4175TIP3   OH233939   2.026   2.859   1.291 -0.2424  0.0083  0.0193
 4175TIP3    H133940   2.091   2.919   1.327 -0.2135 -0.5796  1.0064
 4175TIP3    H233941   2.041   2.859   1.197  0.5499  0.6192  0.1401
 4176TIP3   OH233942   3.383   4.276   6.357  0.0617  0.5484  0.3288
 4176TIP3    H133943   3.443   4.344   6.387 -0.6720  1.0438  0.7201
 4176TIP3    H233944   3.439   4.205   6.327  0.8864  1.7274 -1.0734
 4177TIP3   OH233945   0.009   6.597   0.395 -0.4517 -0.2567 -0.0328
 4177TIP3    H133946  -0.013   6.504   0.388  0.4858 -0.5173  0.2953
 4177TIP3    H233947  -0.041   6.627   0.471  0.1432 -0.7846  0.5802
 4178TIP3   OH233948   2.401   2.102   4.577 -0.2879 -0.6331  0.4382
 4178TIP3    H133949   2.370   2.187   4.545  0.3193 -0.6104 -0.1053
 4178TIP3    H233950   2.436   2.058   4.499 -1.5091 -1.8034  0.5217
 4179TIP3   OH233951   2.159   4.641  12.378 -0.5038 -0.1154 -0.1325
 4179TIP3    H133952   2.141   4.734  12.363 -1.1239 -0.3017 -0.6228
 4179TIP3    H233953   2.233   4.640  12.438  0.0526  0.6937 -0.7678
 4180TIP3   OH233954   5.544   5.729  12.530  0.2395 -0.0954  0.0618
 4180TIP3    H133955   5.613   5.691  12.476  2.4580 -0.6155  3.0113
 4180TIP3    H233956   5.532   5.666  12.601 -1.5534  1.1753  0.9775
 4181TIP3   OH233957   4.304   3.248  16.710 -0.4837 -0.6591 -0.8762
 4181TIP3    H133958   4.209   3.243  16.707 -0.4465 -0.9181 -2.3272
 4181TIP3    H233959   4.324   3.338  16.685 -0.3661 -0.1004  1.0472
 4182TIP3   OH233960   5.970   6.636   2.307  0.0195 -0.1176  0.1148
 4182TIP3    H133961   6.045   6.577   2.299  0.9275  0.9230  0.5951
 4182TIP3    H233962   5.939   6.648   2.217  0.4683 -0.5190 -0.0967
 4183TIP3   OH233963   3.944   3.939   3.174 -0.0084  0.7002  0.2169
 4183TIP3    H133964   3.889   4.009   3.139 -0.8512  0.0738  0.2523
 4183TIP3    H233965   3.899   3.858   3.151  0.6500  0.1829  0.6752
 4184TIP3   OH233966   5.083   1.805  14.906  0.0014  0.5171 -0.0945
 4184TIP3    H133967   5.164   1.782  14.953 -1.2733  0.0924  2.0110
 4184TIP3    H233968   5.015   1.753  14.949 -1.7620  2.5105 -0.3184
 4185TIP3   OH233969   1.752   4.327  17.168  0.0405 -0.0266 -0.2602
 4185TIP3    H133970   1.776   4.410  17.211  0.5995 -0.3477  0.0564
 4185TIP3    H233971   1.686   4.352  17.103 -1.0451  0.4255  0.9807
 4186TIP3   OH233972   6.190   3.324  14.615 -0.6428  0.1375  0.3985
 4186TIP3    H133973   6.105   3.355  14.584 -0.5814 -1.1254 -1.1657
 4186TIP3    H233974   6.214   3.254  14.554  0.4736 -1.0957  2.1362
 4187TIP3   OH233975   0.479   2.791   3.290 -0.2846  0.7274  0.2518
 4187TIP3    H133976   0.404   2.746   3.329  0.4754  1.4894  2.8015
 4187TIP3    H233977   0.441   2.869   3.250 -1.0772  0.0335 -0.4013
 4188TIP3   OH233978   0.224   1.827  11.090 -0.1578 -0.3475 -0.2609
 4188TIP3    H133979   0.283   1.757  11.117  0.5237 -0.1152 -1.0830
 4188TIP3    H233980   0.280   1.889  11.044 -0.6114  1.1444  1.1141
 4189TIP3   OH233981   3.095   3.809   4.249 -0.6281  0.7633 -0.1509
 4189TIP3    H133982   3.094   3.754   4.327  1.2985  3.0720  1.6935
 4189TIP3    H233983   3.160   3.769   4.192  0.8735  1.1290  1.2330
 4190TIP3   OH233984   4.997   4.978   0.616 -0.0654  0.0628  0.5579
 4190TIP3    H133985   5.093   4.974   0.612 -0.1263 -1.0572 -0.4938
 4190TIP3    H233986   4.974   4.932   0.697  0.3008  1.2029  1.3377
 4191TIP3   OH233987   1.451   4.981  10.403 -0.0605  0.5860 -0.0932
 4191TIP3    H133988   1.519   5.029  10.450  0.2497  0.3870 -0.3396
 4191TIP3    H233989   1.369   5.017  10.437  0.1514  2.3113 -1.2638
 4192TIP3   OH233990   4.538   3.172   5.411 -0.2594  0.3915  0.4946
 4192TIP3    H133991   4.555   3.112   5.483  1.3841  1.2489  0.8657
 4192TIP3    H233992   4.622   3.182   5.367 -1.2137 -0.1440 -1.6187
 4193TIP3   OH233993   2.228   1.832  12.643 -0.2917 -0.1982  0.1552
 4193TIP3    H133994   2.259   1.744  12.662  0.2582 -0.7361 -2.8566
 4193TIP3    H233995   2.307   1.882  12.622 -0.8497  0.2348 -0.9729
 4194TIP3   OH233996   4.531   3.691  16.570 -0.1455  0.2389  0.1849
 4194TIP3    H133997   4.539   3.764  16.632  1.9902 -0.9631  1.4208
 4194TIP3    H233998   4.553   3.730  16.485 -0.0045  1.2351  0.6637
 4195TIP3   OH233999   3.306   0.752  11.008 -0.0714 -0.4664 -0.4751
 4195TIP3    H134000   3.361   0.715  10.939  0.1911  0.5672 -0.8483
 4195TIP3    H234001   3.220   0.712  10.995  0.3509 -1.3932 -0.4730
 4196TIP3   OH234002   4.246   0.827  15.096  0.0259 -0.0756  0.0878
 4196TIP3    H134003   4.179   0.861  15.038  1.4683  1.3393 -0.8241
 4196TIP3    H234004   4.224   0.863  15.182 -0.8845 -0.4030  0.0048
 4197TIP3   OH234005   2.943   6.369   1.738 -0.5498 -0.1476 -0.1785
 4197TIP3    H134006   2.963   6.435   1.805  0.2581  0.0866 -0.6385
 4197TIP3    H234007   2.939   6.419   1.656 -0.1079 -0.6359 -0.5075
 4198TIP3   OH234008   1.156   5.301  11.440  0.1559  0.4308  0.0718
 4198TIP3    H134009   1.213   5.290  11.516 -0.1189  0.4692  0.2881
 4198TIP3    H234010   1.187   5.236  11.377 -0.4900 -0.5737  0.7577
 4199TIP3   OH234011   1.583   0.180   3.001 -0.0797  0.2667 -0.3113
 4199TIP3    H134012   1.498   0.136   3.009 -0.7509  1.7103  1.3132
 4199TIP3    H234013   1.565   0.255   2.944 -0.4311  1.6405  1.5112
 4200TIP3   OH234014   5.459   0.089   0.853  0.4391 -0.1136 -0.0398
 4200TIP3    H134015   5.514   0.109   0.778  1.9205  1.2379  1.3175
 4200TIP3    H234016   5.516   0.102   0.929 -1.4170  0.1347  1.4020
 4201TIP3   OH234017   0.459   3.814   0.804 -0.3831  0.3009 -0.3969
 4201TIP3    H134018   0.524   3.846   0.865 -0.5045 -0.6206  0.2446
 4201TIP3    H234019   0.389   3.779   0.859 -1.0933  0.6118 -1.0669
 4202TIP3   OH234020   3.055   1.562  11.749 -0.6532  0.3364  0.0731
 4202TIP3    H134021   2.985   1.498  11.763 -2.1393  1.9918  0.4163
 4202TIP3    H234022   3.010   1.644  11.731  1.2066  1.5165  0.5554
 4203TIP3   OH234023   4.632   2.958  12.202  0.2037 -0.0348  0.6537
 4203TIP3    H134024   4.560   2.962  12.139  0.5254 -1.5720  0.1349
 4203TIP3    H234025   4.598   2.903  12.273 -0.2493  1.8871  2.0045
 4204TIP3   OH234026   1.701   5.647  14.885  0.3452 -0.2228 -0.4072
 4204TIP3    H134027   1.670   5.620  14.799  0.1701 -0.4038 -0.2888
 4204TIP3    H234028   1.704   5.566  14.936 -0.0678 -0.0355 -0.0826
 4205TIP3   OH234029   0.921   0.446   2.736 -0.1637  0.2376 -0.1164
 4205TIP3    H134030   0.926   0.430   2.642 -0.3847  1.2551 -0.3121
 4205TIP3    H234031   0.841   0.498   2.748  0.0779  0.4692  0.5703
 4206TIP3   OH234032   4.533   4.712  14.863  0.3189  0.2572  0.8748
 4206TIP3    H134033   4.566   4.637  14.813  0.6030  1.6982 -1.2717
 4206TIP3    H234034   4.438   4.704  14.858  0.3463  0.3059  0.1781
 4207TIP3   OH234035   5.451   1.769  12.169 -0.3759 -0.1872 -0.3082
 4207TIP3    H134036   5.484   1.704  12.107  1.5462  0.5836 -0.1639
 4207TIP3    H234037   5.478   1.735  12.255  1.0140  0.9753 -0.2630
 4208TIP3   OH234038   1.096   6.166   5.259  0.2233  0.5623 -0.1053
 4208TIP3    H134039   1.142   6.082   5.267  0.2566  0.6812  1.1354
 4208TIP3    H234040   1.075   6.191   5.349  0.4893  2.0409 -0.4176
 4209TIP3   OH234041   3.053   5.191   3.860  0.3474 -0.5534  0.4912
 4209TIP3    H134042   3.070   5.221   3.771  0.2659 -1.1448  0.2723
 4209TIP3    H234043   3.120   5.233   3.913  0.2325  0.0174  0.1980
 4210TIP3   OH234044   3.705   5.794   3.645  0.0517 -0.0797  0.2809
 4210TIP3    H134045   3.723   5.792   3.551  0.0647  0.5192  0.2615
 4210TIP3    H234046   3.612   5.771   3.651  0.3976 -1.5541  0.2489
 4211TIP3   OH234047   2.389   0.794   0.808  0.0026  0.1771  0.3787
 4211TIP3    H134048   2.455   0.778   0.875 -0.8165  1.4268  1.5287
 4211TIP3    H234049   2.440   0.804   0.727  1.1228  0.0578  1.0420
 4212TIP3   OH234050   3.207   3.960  16.228  0.4094  0.3051  0.0318
 4212TIP3    H134051   3.302   3.973  16.236  0.3257  0.9939 -0.0406
 4212TIP3    H234052   3.193   3.942  16.136  0.2720  2.0632 -0.3247
 4213TIP3   OH234053   6.711   6.292  14.201  0.6094  0.1385 -0.4407
 4213TIP3    H134054   6.712   6.297  14.106 -0.6136 -3.5311 -0.7837
 4213TIP3    H234055   6.758   6.211  14.222 -0.1662  0.2279  1.9982
 4214TIP3   OH234056   3.378   6.683  14.834  0.4491 -0.2876  0.0318
 4214TIP3    H134057   3.370   6.703  14.927  1.4087 -2.6674  0.6969
 4214TIP3    H234058   3.459   6.725  14.807 -0.4181  1.4042 -0.0761
 4215TIP3   OH234059   2.048   4.117   4.458 -0.4043 -0.2496 -0.1898
 4215TIP3    H134060   2.090   4.186   4.407 -0.8300 -1.0804 -1.7088
 4215TIP3    H234061   2.117   4.053   4.474 -0.6394 -0.7571 -1.1401
 4216TIP3   OH234062   4.041   2.790   4.764  0.0348  0.2601  0.4064
 4216TIP3    H134063   3.991   2.728   4.711  1.9055 -0.0235 -1.1270
 4216TIP3    H234064   3.983   2.810   4.838 -2.8796  1.0236 -1.9180
 4217TIP3   OH234065   1.787   5.237   1.828 -0.1111  0.2663 -0.2080
 4217TIP3    H134066   1.873   5.228   1.787 -0.0532 -0.1884  0.0065
 4217TIP3    H234067   1.802   5.219   1.920  0.7774  6.3027  1.2288
 4218TIP3   OH234068   2.078   2.449   2.998  0.3304  0.3557  0.2209
 4218TIP3    H134069   2.073   2.420   2.907  1.9819 -0.6019  0.4162
 4218TIP3    H234070   2.114   2.538   2.992 -0.3631  0.6321 -0.0805
 4219TIP3   OH234071   2.313   4.358  11.342  0.0246 -0.6397 -0.0558
 4219TIP3    H134072   2.235   4.370  11.396  1.3616 -0.7133  2.0255
 4219TIP3    H234073   2.294   4.281  11.289 -1.1625 -0.9168  0.7279
 4220TIP3   OH234074   3.679   2.597   6.028 -0.0146 -0.1825 -0.7172
 4220TIP3    H134075   3.693   2.682   5.985 -0.9216 -0.9301 -2.5826
 4220TIP3    H234076   3.761   2.549   6.012  1.0309  0.7391  1.4792
 4221TIP3   OH234077   2.540   6.467  12.202  0.5480  0.0642  0.6764
 4221TIP3    H134078   2.622   6.508  12.178 -1.1849  2.7446 -1.2215
 4221TIP3    H234079   2.547   6.378  12.169  2.7940  0.0891  0.9405
 4222TIP3   OH234080   1.545   3.823  12.603 -0.5625 -0.1134  0.5405
 4222TIP3    H134081   1.517   3.894  12.661 -1.4868 -0.3375  0.3847
 4222TIP3    H234082   1.594   3.866  12.534  0.3169  0.1896  1.3326
 4223TIP3   OH234083   5.127   4.815  14.443 -0.6339  0.7697 -0.4831
 4223TIP3    H134084   5.215   4.793  14.472 -0.4587  1.4519 -0.4897
 4223TIP3    H234085   5.070   4.755  14.492 -0.1785  0.3993 -0.4000
 4224TIP3   OH234086   3.785   6.101  16.127 -0.2352 -0.2358  0.5109
 4224TIP3    H134087   3.739   6.019  16.143 -0.8137 -0.8697 -3.3710
 4224TIP3    H234088   3.716   6.166  16.115 -0.1452 -0.5345 -2.2530
 4225TIP3   OH234089   6.088   2.399  17.134 -0.2276  0.1755  0.5153
 4225TIP3    H134090   6.184   2.404  17.141 -0.1268 -1.5163  0.8359
 4225TIP3    H234091   6.059   2.379  17.223 -0.7127 -1.1003  0.0891
 4226TIP3   OH234092   4.463   5.298   0.890 -0.1878 -0.2771  0.0525
 4226TIP3    H134093   4.555   5.322   0.891 -0.3014  0.3527 -1.5432
 4226TIP3    H234094   4.456   5.233   0.820 -0.8386 -0.8818  0.6628
 4227TIP3   OH234095   3.276   4.232  14.800 -0.5326 -0.0317 -0.1456
 4227TIP3    H134096   3.264   4.304  14.738  1.2127 -0.8058 -1.4752
 4227TIP3    H234097   3.370   4.216  14.801 -0.6830 -1.1368  1.4984
 4228TIP3   OH234098   0.677   2.367  15.433  0.0111 -0.2550  0.1189
 4228TIP3    H134099   0.744   2.428  15.463  0.9396 -0.9241 -0.5438
 4228TIP3    H234100   0.726   2.298  15.387 -1.1549 -0.6142 -0.6137
 4229TIP3   OH234101   0.778   4.099  17.275  0.7053 -0.8639 -0.2199
 4229TIP3    H134102   0.775   4.192  17.255 -1.7859 -0.7640  0.2395
 4229TIP3    H234103   0.846   4.091  17.342  0.6117  0.7159  0.1071
 4230TIP3   OH234104   4.868   3.894   0.195 -0.3681 -0.8325 -0.1273
 4230TIP3    H134105   4.923   3.910   0.118 -0.8108  0.9320 -0.1107
 4230TIP3    H234106   4.800   3.834   0.165 -0.4252 -0.3040 -1.0725
 4231TIP3   OH234107   6.511   4.504   2.239  0.4663  0.4722 -0.5719
 4231TIP3    H134108   6.598   4.500   2.199  0.7002  4.0688 -0.8173
 4231TIP3    H234109   6.455   4.539   2.170 -0.3743  1.4278  0.5436
 4232TIP3   OH234110   5.856   5.579  15.939 -0.1391 -0.2245  0.1220
 4232TIP3    H134111   5.885   5.609  16.025  0.2204  0.4871 -0.2417
 4232TIP3    H234112   5.862   5.656  15.883 -1.3404 -0.4196 -0.3157
 4233TIP3   OH234113   0.206   1.179  13.241  0.0128  0.2193 -0.1089
 4233TIP3    H134114   0.229   1.108  13.301 -1.5776 -1.2504 -1.1416
 4233TIP3    H234115   0.200   1.256  13.296  0.5628 -0.6918  1.2794
 4234TIP3   OH234116   5.850   1.865  11.831  0.0171  0.6039  0.2145
 4234TIP3    H134117   5.945   1.859  11.824 -0.0918 -0.3128 -0.8217
 4234TIP3    H234118   5.828   1.947  11.787  0.1938 -0.1774 -1.4246
 4235TIP3   OH234119   5.859   4.701  12.702  0.0042  0.4478  0.5247
 4235TIP3    H134120   5.841   4.793  12.721 -0.4625  0.8604 -1.6253
 4235TIP3    H234121   5.773   4.664  12.679  0.2965 -0.3450  0.6695
 4236TIP3   OH234122   6.640   3.540   4.252 -0.3702 -0.0101 -0.2198
 4236TIP3    H134123   6.551   3.575   4.243 -0.8030 -0.9611  0.2391
 4236TIP3    H234124   6.697   3.616   4.245 -1.0872  0.3974 -2.7061
 4237TIP3   OH234125   3.312   5.938  16.566 -0.3032  0.2580  0.6117
 4237TIP3    H134126   3.283   6.010  16.622  0.3067  0.5887  0.5154
 4237TIP3    H234127   3.302   5.971  16.477 -0.0978  0.1990  0.5651
 4238TIP3   OH234128   1.500   2.865  16.709  0.1638  0.1534 -0.0198
 4238TIP3    H134129   1.553   2.785  16.712 -0.0058  0.0547  2.6382
 4238TIP3    H234130   1.540   2.922  16.775 -0.8843  1.5086 -0.5282
 4239TIP3   OH234131   3.520   2.173   1.057  0.0619 -0.2111 -0.0774
 4239TIP3    H134132   3.584   2.107   1.083  0.2164  0.2817  0.8462
 4239TIP3    H234133   3.537   2.247   1.115  0.7053  1.1281 -1.8828
 4240TIP3   OH234134   4.132   6.293   4.963  0.5364  0.1350  0.6011
 4240TIP3    H134135   4.192   6.221   4.983 -1.2677 -1.2652  1.1415
 4240TIP3    H234136   4.134   6.299   4.867 -0.5222 -1.7957  0.4043
 4241TIP3   OH234137   5.737   6.102   5.954  0.0543 -0.1210 -0.6933
 4241TIP3    H134138   5.689   6.100   5.871 -1.4832 -1.0035  0.1833
 4241TIP3    H234139   5.721   6.189   5.989 -0.1889 -0.1166 -0.8162
 4242TIP3   OH234140   1.487   0.061   5.227  0.2739 -0.0598 -0.1154
 4242TIP3    H134141   1.547  -0.005   5.261  0.2215 -1.0852 -1.8659
 4242TIP3    H234142   1.519   0.079   5.138 -0.2700  1.6021 -0.0190
 4243TIP3   OH234143   5.457   1.059   2.124 -0.2067  0.2634  0.0582
 4243TIP3    H134144   5.399   1.003   2.072 -0.5773 -1.3216  2.0655
 4243TIP3    H234145   5.534   1.004   2.141  1.4422  1.9128 -1.5394
 4244TIP3   OH234146   3.300   2.720   3.293 -0.5210 -0.2508 -0.0523
 4244TIP3    H134147   3.344   2.635   3.288  0.1649  0.1562 -2.1039
 4244TIP3    H234148   3.370   2.783   3.276 -1.4361  0.5562 -0.9491
 4245TIP3   OH234149   0.793   5.763  11.322 -0.4927 -0.1713 -0.6679
 4245TIP3    H134150   0.883   5.743  11.296  0.3602  0.1640  1.7878
 4245TIP3    H234151   0.742   5.689  11.289  1.0030 -1.3483 -0.4547
 4246TIP3   OH234152   3.870   0.653   4.784 -0.5013  0.2178  0.1252
 4246TIP3    H134153   3.897   0.562   4.774 -1.3762 -0.0118 -0.2692
 4246TIP3    H234154   3.911   0.682   4.865  1.2704  0.0300 -0.6563
 4247TIP3   OH234155   1.014   4.782  13.077 -0.0425 -0.0217  0.0809
 4247TIP3    H134156   1.020   4.821  13.164  1.7920  2.5671 -1.0768
 4247TIP3    H234157   1.024   4.688  13.092  2.0314  0.4674  2.5355
 4248TIP3   OH234158   3.024   3.814   2.373  0.1429 -0.2505  0.0619
 4248TIP3    H134159   3.105   3.819   2.424 -0.3211  1.0594  0.7232
 4248TIP3    H234160   3.035   3.880   2.304 -0.0557 -0.6160 -0.3242
 4249TIP3   OH234161   5.525   4.680  11.392  0.0244  0.0929  0.0062
 4249TIP3    H134162   5.535   4.587  11.415 -1.8755 -0.1642 -0.0376
 4249TIP3    H234163   5.613   4.708  11.368  0.9488 -1.2537  1.6184
 4250TIP3   OH234164   3.499   1.283  17.320 -0.5054 -0.0922  0.3485
 4250TIP3    H134165   3.481   1.219  17.389 -2.0782 -0.4043 -0.3118
 4250TIP3    H234166   3.553   1.350  17.363 -0.7898 -0.6824  1.6681
 4251TIP3   OH234167   4.857   4.521   0.016  0.0706 -0.5964 -0.0862
 4251TIP3    H134168   4.811   4.582   0.074  1.0922 -1.2268  1.4786
 4251TIP3    H234169   4.791   4.492  -0.046 -1.0072  0.3364  0.5825
 4252TIP3   OH234170   0.529   3.956   5.825 -0.3018 -0.1516  0.1779
 4252TIP3    H134171   0.450   3.984   5.871  0.8319  1.5776  1.1783
 4252TIP3    H234172   0.572   3.895   5.886 -0.2283 -0.0730  0.2062
 4253TIP3   OH234173   2.642   5.069  15.767 -0.0476  0.3660  0.4828
 4253TIP3    H134174   2.601   5.032  15.689  0.7113 -0.2093  0.3405
 4253TIP3    H234175   2.588   5.144  15.790 -1.0592 -0.2577  0.1941
 4254TIP3   OH234176   1.441   3.528   5.497 -0.1998  0.3625 -0.0828
 4254TIP3    H134177   1.416   3.618   5.518 -1.3458  0.1718 -0.5065
 4254TIP3    H234178   1.513   3.508   5.557  0.8330  1.9252 -0.7581
 4255TIP3   OH234179   4.116   3.502   0.398  0.7295 -0.4898 -0.4271
 4255TIP3    H134180   4.134   3.440   0.327  1.0153 -0.9353  0.0236
 4255TIP3    H234181   4.147   3.457   0.477 -0.2904 -0.3270  0.0830
 4256TIP3   OH234182   6.308   5.963  13.974  0.4005 -0.4419 -0.4366
 4256TIP3    H134183   6.349   6.000  14.052 -2.7093  1.9539  0.2587
 4256TIP3    H234184   6.217   5.949  13.999 -0.6282  0.0416 -3.4931
 4257TIP3   OH234185   6.395   5.278  16.258 -0.6839 -0.3699  0.0412
 4257TIP3    H134186   6.363   5.215  16.193 -1.1340  0.5925 -0.7112
 4257TIP3    H234187   6.320   5.336  16.273 -0.3603 -0.1651  0.9162
 4258TIP3   OH234188   5.545   6.319   4.297 -0.3286  0.0854 -0.4211
 4258TIP3    H134189   5.458   6.282   4.278 -1.3519  1.2886  1.6354
 4258TIP3    H234190   5.546   6.402   4.249 -0.6611  0.4550  0.1980
 4259TIP3   OH234191   5.745   4.869   1.266  0.5172 -0.8347 -0.3239
 4259TIP3    H134192   5.761   4.811   1.340  2.0316 -2.7769 -2.0306
 4259TIP3    H234193   5.832   4.894   1.236  0.1716 -2.5731 -3.1776
 4260TIP3   OH234194   5.271   5.670  12.460 -0.2584  0.3669  0.3953
 4260TIP3    H134195   5.290   5.639  12.372  0.8391  2.0600  0.0015
 4260TIP3    H234196   5.350   5.716  12.488 -1.4315  1.9385  1.3079
 4261TIP3   OH234197   5.137   5.911   0.989 -0.1270  0.7134  0.5545
 4261TIP3    H134198   5.164   5.967   1.061 -1.3151  1.4032  0.4914
 4261TIP3    H234199   5.131   5.823   1.026  0.9656  0.7534  0.8517
 4262TIP3   OH234200   1.175   0.181   5.323 -0.3538  0.1069  0.3954
 4262TIP3    H134201   1.216   0.229   5.395 -0.5932  1.4320 -0.3231
 4262TIP3    H234202   1.088   0.220   5.314 -1.0465 -1.3024  0.5720
 4263TIP3   OH234203   3.841   1.434  13.381  0.3014 -0.0387  0.2913
 4263TIP3    H134204   3.826   1.476  13.466  1.1666  1.6766 -0.3490
 4263TIP3    H234205   3.851   1.508  13.320  1.3098 -1.1996 -1.0055
 4264TIP3   OH234206   1.972   5.578   0.165 -0.3840  0.0758 -0.4596
 4264TIP3    H134207   2.036   5.630   0.118  0.2362 -0.4000 -0.1621
 4264TIP3    H234208   1.888   5.614   0.139  0.0471  2.1989  0.8423
 4265TIP3   OH234209   0.382   6.173  11.973 -0.0114 -1.0201 -0.3992
 4265TIP3    H134210   0.412   6.203  11.888 -0.1504 -0.1309 -0.1529
 4265TIP3    H234211   0.308   6.230  11.994  0.8122 -0.3492  0.8676
 4266TIP3   OH234212   1.552   2.667   0.720  0.6037  0.0343  0.6615
 4266TIP3    H134213   1.557   2.720   0.799 -1.3596  1.5068 -0.1382
 4266TIP3    H234214   1.482   2.604   0.737  0.0697  0.4555  0.0404
 4267TIP3   OH234215   3.874   4.969   4.800  0.1525  0.2481 -0.5014
 4267TIP3    H134216   3.826   4.887   4.790  0.3807  0.0662 -0.1062
 4267TIP3    H234217   3.945   4.963   4.737  0.2278  0.0985 -0.4029
 4268TIP3   OH234218   5.640   2.401   4.216 -0.6129  0.0046 -0.2093
 4268TIP3    H134219   5.690   2.471   4.174 -0.1728 -0.3312 -0.2431
 4268TIP3    H234220   5.578   2.372   4.148 -1.2012  0.7547 -0.0074
 4269TIP3   OH234221   3.048   0.579  12.293  0.4209  0.2431 -0.0573
 4269TIP3    H134222   3.035   0.547  12.204 -1.3180  0.4601  0.0951
 4269TIP3    H234223   3.059   0.674  12.284  0.3333  0.2539 -0.0527
 4270TIP3   OH234224   2.312   5.460  10.340  0.6163 -0.3171  0.4991
 4270TIP3    H134225   2.266   5.534  10.380 -0.0446 -0.0678 -0.6588
 4270TIP3    H234226   2.264   5.444  10.259  3.3693  0.8871 -1.5417
 4271TIP3   OH234227   0.689   2.303   1.379 -0.0309 -0.1944 -0.2104
 4271TIP3    H134228   0.593   2.308   1.379 -0.0191  0.1128  0.1615
 4271TIP3    H234229   0.712   2.283   1.288 -0.4209  0.3113 -0.4257
 4272TIP3   OH234230   6.392   3.538  14.738 -0.0785  0.3392 -0.0806
 4272TIP3    H134231   6.476   3.512  14.701 -0.8018 -3.6505  0.5566
 4272TIP3    H234232   6.329   3.526  14.667 -0.7344 -2.1316  0.8063
 4273TIP3   OH234233   6.410   2.980  14.817  0.0221  0.8940  0.1244
 4273TIP3    H134234   6.498   2.983  14.856  0.2080 -2.6385  0.2847
 4273TIP3    H234235   6.357   3.036  14.874  1.4264  0.2046  2.2299
 4274TIP3   OH234236   1.966   4.920   1.000 -0.3252  0.3393  0.0614
 4274TIP3    H134237   1.903   4.937   1.070  1.0439 -1.8484  1.9548
 4274TIP3    H234238   2.052   4.924   1.043  0.8453  2.0259 -2.1815
 4275TIP3   OH234239   1.742   1.204   2.935 -0.1633  0.0883 -0.2243
 4275TIP3    H134240   1.818   1.242   2.978 -0.9552  1.8857 -0.3316
 4275TIP3    H234241   1.696   1.156   3.005 -0.0473  0.7633  0.3204
 4276TIP3   OH234242   6.479   3.130  11.477  0.5368  0.1744 -0.0110
 4276TIP3    H134243   6.416   3.195  11.447 -0.1576 -0.2775  0.4325
 4276TIP3    H234244   6.564   3.161  11.444  0.1527  1.0457 -0.1970
 4277TIP3   OH234245   5.799   1.523  12.377  0.1580  0.1321 -0.3080
 4277TIP3    H134246   5.715   1.559  12.403  0.1113  0.0626 -0.3642
 4277TIP3    H234247   5.857   1.600  12.371  0.2802  0.0970  0.4286
 4278TIP3   OH234248   4.478   3.067   5.926  0.2302 -0.3733  0.1243
 4278TIP3    H134249   4.388   3.077   5.895  0.4082  0.3776 -0.1877
 4278TIP3    H234250   4.474   3.083   6.020 -0.1315 -1.4694  0.3044
 4279TIP3   OH234251   3.668   3.105   0.678 -0.5313 -0.0845  0.6663
 4279TIP3    H134252   3.634   3.105   0.588 -1.3899  0.8102  0.9847
 4279TIP3    H234253   3.762   3.118   0.667 -0.7824  1.3190 -0.0608
 4280TIP3   OH234254   1.770   6.532   0.807 -0.4340 -0.2111  0.4862
 4280TIP3    H134255   1.747   6.451   0.851 -2.0446 -0.6109 -0.9591
 4280TIP3    H234256   1.801   6.504   0.720 -2.0000  0.7043 -0.4216
 4281TIP3   OH234257   1.996   1.332   0.242 -0.1160  0.3964 -0.5903
 4281TIP3    H134258   1.916   1.280   0.254  0.9421 -1.2385 -0.3113
 4281TIP3    H234259   2.020   1.359   0.331  0.3638 -0.2756 -0.5058
 4282TIP3   OH234260   3.210   5.476   6.152 -0.3473  0.4974 -0.7517
 4282TIP3    H134261   3.260   5.530   6.091 -0.1249  1.1543  0.0049
 4282TIP3    H234262   3.118   5.496   6.132 -0.2658  1.9294  0.1776
 4283TIP3   OH234263   3.925   6.430  14.631  0.0186 -0.0334  0.2905
 4283TIP3    H134264   4.005   6.420  14.579 -0.8588 -1.0227 -0.9579
 4283TIP3    H234265   3.942   6.381  14.711  1.5880  1.9289  1.2180
 4284TIP3   OH234266   4.298   4.578  11.308 -0.0754 -0.2211  0.4367
 4284TIP3    H134267   4.262   4.579  11.219  0.6321  1.3492  0.1222
 4284TIP3    H234268   4.389   4.549  11.297 -0.2657 -0.9658  0.7850
 4285TIP3   OH234269   2.347   0.883  11.188 -0.0230  0.1249 -0.2982
 4285TIP3    H134270   2.396   0.953  11.145 -1.5767  1.0376 -0.6212
 4285TIP3    H234271   2.304   0.837  11.116  1.0479 -1.2597 -0.1021
 4286TIP3   OH234272   6.390   2.361   5.646 -0.6862 -0.8747  0.5161
 4286TIP3    H134273   6.318   2.321   5.694 -1.2476 -0.6350 -0.0980
 4286TIP3    H234274   6.383   2.325   5.557 -0.1473 -0.7226  0.4050
 4287TIP3   OH234275   4.332   2.184   1.440 -0.0542 -0.1997  0.4240
 4287TIP3    H134276   4.363   2.094   1.445  1.2371  0.2402  0.7134
 4287TIP3    H234277   4.296   2.193   1.352 -1.3578 -1.3388  0.8122
 4288TIP3   OH234278   5.836   0.873  17.196  0.2715  0.4515 -0.2070
 4288TIP3    H134279   5.888   0.817  17.139 -0.5554  0.3470 -0.8795
 4288TIP3    H234280   5.778   0.813  17.243  1.8232  0.3762  1.7825
 4289TIP3   OH234281   4.015   0.474  12.633 -0.2389  0.3528 -0.1879
 4289TIP3    H134282   4.068   0.548  12.604 -1.3735  1.4448  0.4395
 4289TIP3    H234283   4.059   0.442  12.711 -1.2494  2.2524  1.2711
 4290TIP3   OH234284   3.805   1.018  11.542  0.1392 -0.1154  0.1777
 4290TIP3    H134285   3.746   1.056  11.608 -0.8191 -1.9045  0.4046
 4290TIP3    H234286   3.762   0.937  11.516  0.4925  0.5046 -2.6698
 4291TIP3   OH234287   5.868   6.330   1.708  0.1161 -0.0400  0.1991
 4291TIP3    H134288   5.910   6.285   1.781  0.8245 -1.5519 -1.0803
 4291TIP3    H234289   5.831   6.260   1.654  0.1049  0.9769 -1.1800
 4292TIP3   OH234290   3.044   6.229   0.912  0.4299  0.1219  0.4020
 4292TIP3    H134291   3.023   6.287   0.839  0.4509 -1.0505 -0.5783
 4292TIP3    H234292   3.062   6.287   0.985  0.0737  1.3260 -0.4412
 4293TIP3   OH234293   4.328   5.769   4.501 -0.3962  0.0827  0.1151
 4293TIP3    H134294   4.372   5.777   4.585 -0.8527  2.2897  0.2125
 4293TIP3    H234295   4.366   5.838   4.447 -1.4386 -0.0698 -0.8584
 4294TIP3   OH234296   5.187   6.068   3.924  0.3897  0.2738 -0.0026
 4294TIP3    H134297   5.222   6.137   3.868 -0.0032 -1.0540 -2.0050
 4294TIP3    H234298   5.246   5.994   3.910  0.2186 -0.1178  1.2952
 4295TIP3   OH234299   2.234   0.229  11.574  0.7173  0.0811 -0.3056
 4295TIP3    H134300   2.299   0.294  11.549 -0.5109  0.8656 -1.5824
 4295TIP3    H234301   2.211   0.185  11.491  0.1968 -0.7275  0.2528
 4296TIP3   OH234302   4.332   6.705   3.695 -0.0560 -0.7513  0.4742
 4296TIP3    H134303   4.299   6.637   3.636 -1.3626 -0.2248  0.5762
 4296TIP3    H234304   4.269   6.709   3.766  2.8533 -3.2670  3.4949
 4297TIP3   OH234305   1.542   4.725   4.312 -0.6597 -0.4335  0.2777
 4297TIP3    H134306   1.586   4.641   4.314 -0.8763 -0.5392  0.9256
 4297TIP3    H234307   1.544   4.755   4.403 -2.8836 -0.9660  0.5638
 4298TIP3   OH234308   0.997   0.740  10.811  0.6175 -0.3979  0.0371
 4298TIP3    H134309   0.968   0.807  10.872  1.9391 -0.4957  0.8177
 4298TIP3    H234310   0.984   0.779  10.724 -0.4613  0.0832  0.4032
 4299TIP3   OH234311   5.231   1.301  11.417 -0.3253  0.1312  0.8302
 4299TIP3    H134312   5.239   1.352  11.498 -0.1164  0.0612  0.8544
 4299TIP3    H234313   5.222   1.367  11.348 -1.6807  0.1861  1.0225
 4300TIP3   OH234314   1.190   1.299  11.911  0.1755 -0.2488  0.1348
 4300TIP3    H134315   1.104   1.281  11.949  0.4600  0.5066  1.1724
 4300TIP3    H234316   1.222   1.213  11.883 -1.3566 -0.4010 -1.2616
 4301TIP3   OH234317   4.983   4.632   4.132 -0.0197 -0.2703 -0.3375
 4301TIP3    H134318   5.034   4.633   4.051 -0.0677 -0.0167 -0.3635
 4301TIP3    H234319   5.045   4.600   4.199 -0.2526 -1.4493 -0.6570
 4302TIP3   OH234320   2.763   4.825  14.546  0.6725 -0.0311  0.1801
 4302TIP3    H134321   2.801   4.744  14.580 -0.1950  0.1199  1.6216
 4302TIP3    H234322   2.838   4.877  14.517  1.2151 -1.5387 -1.2937
 4303TIP3   OH234323   2.747   0.027  16.377  0.1524 -0.1127 -0.1191
 4303TIP3    H134324   2.689   0.072  16.440  1.9188  0.8612  0.8840
 4303TIP3    H234325   2.716  -0.063  16.377 -0.4491  0.0492  1.5103
 4304TIP3   OH234326   1.586   6.440   5.778 -0.6274 -0.8714 -0.2687
 4304TIP3    H134327   1.563   6.499   5.849 -1.7612 -1.2233 -0.3165
 4304TIP3    H234328   1.680   6.452   5.766 -0.9311  1.4773 -0.7857
 4305TIP3   OH234329   1.763   1.386   1.190 -0.2115 -0.3815  0.5068
 4305TIP3    H134330   1.711   1.390   1.270  2.0126 -0.4097  2.0622
 4305TIP3    H234331   1.793   1.294   1.186 -1.2561 -0.6859 -1.0449
 4306TIP3   OH234332   0.518   0.653   3.671  0.4142 -0.2770  0.0627
 4306TIP3    H134333   0.477   0.608   3.745  0.7707 -0.5796  0.0784
 4306TIP3    H234334   0.452   0.715   3.641  0.2296 -0.2316  0.5661
 4307TIP3   OH234335   4.810   1.547  17.254  0.0923 -0.0328  0.1021
 4307TIP3    H134336   4.873   1.486  17.294 -0.4224 -0.9192 -0.4040
 4307TIP3    H234337   4.850   1.633  17.266  1.2208 -0.5345  0.1394
 4308TIP3   OH234338   0.491   4.692  16.178  0.2739 -0.1936  0.2734
 4308TIP3    H134339   0.530   4.626  16.235 -0.1015 -0.3335  0.3714
 4308TIP3    H234340   0.469   4.644  16.098 -0.7287 -0.3684  0.6429
 4309TIP3   OH234341   3.977   0.161   2.987  0.0526 -0.9516  0.3379
 4309TIP3    H134342   3.968   0.229   3.054  0.2989 -1.1822  0.6067
 4309TIP3    H234343   3.891   0.119   2.984  0.2457 -1.4223  1.0374
 4310TIP3   OH234344   5.058   3.924  13.669 -0.2069 -0.7264  0.0338
 4310TIP3    H134345   5.126   3.931  13.602 -0.6200 -0.3050 -0.3446
 4310TIP3    H234346   5.044   4.013  13.700 -3.2594 -0.1053 -2.5801
 4311TIP3   OH234347   4.416   1.590   0.119  0.1689 -0.3027  0.3163
 4311TIP3    H134348   4.366   1.530   0.063  1.7882 -1.0160 -0.4154
 4311TIP3    H234349   4.504   1.552   0.124  0.6870  0.9581  1.5012
 4312TIP3   OH234350   3.395   2.550   2.725 -0.8732  0.4519 -0.5126
 4312TIP3    H134351   3.348   2.579   2.804  0.3365  0.3474  0.2695
 4312TIP3    H234352   3.486   2.544   2.753 -0.5648 -0.5069 -1.6820
 4313TIP3   OH234353   5.236   0.284  11.631  0.8367  0.1000  0.5696
 4313TIP3    H134354   5.223   0.191  11.646  1.0342  0.2453  1.7146
 4313TIP3    H234355   5.232   0.324  11.718 -0.1735  1.2856  0.0146
 4314TIP3   OH234356   5.867   1.048   5.994 -0.3920 -0.5260  0.0742
 4314TIP3    H134357   5.795   1.075   6.051  0.6459  0.1418  1.1093
 4314TIP3    H234358   5.926   0.998   6.051 -0.2660 -1.4743 -0.8675
 4315TIP3   OH234359   1.094   4.193  14.315 -0.4710  0.2308  0.7014
 4315TIP3    H134360   1.021   4.217  14.257 -0.1961 -2.8713 -1.1812
 4315TIP3    H234361   1.160   4.260  14.300 -1.6675  1.2811 -0.0978
 4316TIP3   OH234362   1.983   5.318   4.579 -1.1775 -0.4250 -0.6893
 4316TIP3    H134363   1.927   5.241   4.569  0.8777 -1.9037 -1.4219
 4316TIP3    H234364   2.067   5.283   4.608 -0.5130  1.6855  0.1177
 4317TIP3   OH234365   5.251   3.750  10.607 -0.3340  0.0926  0.1784
 4317TIP3    H134366   5.189   3.740  10.534  2.3902 -1.0316 -2.1671
 4317TIP3    H234367   5.303   3.827  10.583 -0.8954  1.1916  2.2510
 4318TIP3   OH234368   5.187   0.545  16.505  0.4701 -0.6791 -0.2872
 4318TIP3    H134369   5.278   0.524  16.523  0.7741  0.3127 -0.6396
 4318TIP3    H234370   5.161   0.485  16.435 -0.4296 -3.9187  2.5212
 4319TIP3   OH234371   2.421   4.554  14.020  0.4433 -0.0810  0.1684
 4319TIP3    H134372   2.361   4.533  13.948 -0.9088  0.8434  0.9764
 4319TIP3    H234373   2.371   4.613  14.076  1.8497  0.0763  1.3121
 4320TIP3   OH234374   3.186   2.542  12.665 -0.0880  0.0268 -0.5068
 4320TIP3    H134375   3.143   2.615  12.622  2.0319  1.4363 -0.3735
 4320TIP3    H234376   3.256   2.582  12.716 -2.4958 -1.4531  4.6413
 4321TIP3   OH234377   3.853   2.507  12.715 -0.1955  0.4287 -0.0127
 4321TIP3    H134378   3.860   2.587  12.768 -0.5905 -0.2457  1.0960
 4321TIP3    H234379   3.876   2.437  12.776 -1.9734 -0.5038 -0.3507
 4322TIP3   OH234380   4.125   5.100  14.911 -0.4508 -0.1205 -0.0631
 4322TIP3    H134381   4.178   5.052  14.848 -0.8246  0.1963 -0.6207
 4322TIP3    H234382   4.051   5.134  14.861 -0.7942  0.0697  0.5575
 4323TIP3   OH234383   0.883   2.464  12.606  0.1954 -0.0801 -0.2421
 4323TIP3    H134384   0.917   2.526  12.670 -0.6746 -1.5396  1.7550
 4323TIP3    H234385   0.810   2.510  12.564  0.6834  0.8440 -0.1010
 4324TIP3   OH234386   4.475   2.227   3.805 -0.3880 -0.5189  0.0769
 4324TIP3    H134387   4.415   2.291   3.766 -1.2464 -0.4735  1.4104
 4324TIP3    H234388   4.482   2.253   3.897 -0.3490 -2.0294  0.5337
 4325TIP3   OH234389   2.316   2.058   0.437  0.2502  0.2045 -0.2229
 4325TIP3    H134390   2.411   2.070   0.426  0.1584  0.0662 -1.2808
 4325TIP3    H234391   2.289   2.132   0.491  1.0368 -0.0288  0.5193
 4326TIP3   OH234392   6.516   1.716   3.549 -0.2016  0.5721 -0.3288
 4326TIP3    H134393   6.475   1.649   3.495 -0.5521  0.9535 -0.5296
 4326TIP3    H234394   6.555   1.777   3.487  1.2989 -0.1571 -0.1538
 4327TIP3   OH234395   2.008   5.550  14.910 -0.4754 -0.0528 -0.7173
 4327TIP3    H134396   1.948   5.524  14.840  0.3175 -0.9278 -1.1025
 4327TIP3    H234397   2.085   5.583  14.864 -0.9030  1.7145 -0.2249
 4328TIP3   OH234398   5.515   2.129   5.340  0.3150 -0.2389 -0.0760
 4328TIP3    H134399   5.608   2.120   5.317  0.5060 -0.3251  0.7031
 4328TIP3    H234400   5.510   2.104   5.432 -0.2112  1.2690  0.3364
 4329TIP3   OH234401   1.642   1.207  14.994 -0.2253  0.0020  0.0022
 4329TIP3    H134402   1.732   1.230  15.017 -0.2789  0.3028 -0.0837
 4329TIP3    H234403   1.638   1.220  14.899 -0.3222 -0.1414 -0.0135
 4330TIP3   OH234404   5.056   0.912  15.045 -0.3316 -0.1483  0.1317
 4330TIP3    H134405   4.979   0.916  15.101 -0.2438  1.0009  0.2034
 4330TIP3    H234406   5.096   0.999  15.054  1.0257 -0.7614  0.1770
 4331TIP3   OH234407   3.179   2.818  15.807  0.0264 -0.1244 -0.2331
 4331TIP3    H134408   3.266   2.818  15.768  0.0077  0.0058 -0.2746
 4331TIP3    H234409   3.162   2.909  15.829 -0.0985 -0.1492 -0.2234
 4332TIP3   OH234410   0.281   3.374   5.281  0.0754  0.2664  0.2974
 4332TIP3    H134411   0.350   3.437   5.299  0.4128  0.2152 -0.7942
 4332TIP3    H234412   0.206   3.426   5.253  0.4257  0.1835 -0.8271
 4333TIP3   OH234413   5.603   2.749   4.320 -0.6221 -0.1315  0.1720
 4333TIP3    H134414   5.529   2.708   4.275 -1.1522 -0.1270  1.0266
 4333TIP3    H234415   5.662   2.676   4.341 -0.7383 -0.2306  0.1552
 4334TIP3   OH234416   6.158   4.450  13.567 -0.0161  0.0019  0.0018
 4334TIP3    H134417   6.152   4.368  13.518 -1.4111 -0.8852  1.5410
 4334TIP3    H234418   6.144   4.518  13.502 -3.0446 -1.1516 -0.7369
 4335TIP3   OH234419   0.778   1.974  17.012  0.0954 -0.0157  0.0886
 4335TIP3    H134420   0.774   1.972  16.916  0.2936  0.3025  0.0739
 4335TIP3    H234421   0.870   1.988  17.032 -0.0543  0.7100  0.3120
 4336TIP3   OH234422   4.762   6.023  16.524  0.7397  0.0637 -0.7730
 4336TIP3    H134423   4.731   6.069  16.446  0.7202 -0.0063 -0.8064
 4336TIP3    H234424   4.854   6.005  16.506  0.8222  0.3440 -0.6409
 4337TIP3   OH234425   1.808   0.206  15.703  0.0244  0.3067  0.0379
 4337TIP3    H134426   1.719   0.238  15.686 -0.2940 -0.4292  0.2452
 4337TIP3    H234427   1.858   0.284  15.726 -0.4120  0.8146 -0.7207
 4338TIP3   OH234428   4.057   5.738   4.561 -0.3218  0.1165 -0.1699
 4338TIP3    H134429   4.147   5.747   4.531 -0.2216  1.2138  0.4165
 4338TIP3    H234430   4.065   5.706   4.651 -0.5886 -1.7818 -0.7709
 4339TIP3   OH234431   2.724   0.720  17.253 -0.3806  0.8644  0.3208
 4339TIP3    H134432   2.658   0.661  17.216  1.1523 -0.1794 -0.8216
 4339TIP3    H234433   2.767   0.759  17.177  1.8389 -0.2009  0.9543
 4340TIP3   OH234434   0.145   6.051  12.158 -0.3829 -0.6436 -0.6343
 4340TIP3    H134435   0.146   6.142  12.188  3.1514 -0.5347 -0.6632
 4340TIP3    H234436   0.138   6.056  12.063  1.4740 -0.2320 -0.7855
 4341TIP3   OH234437   6.383   2.509  10.676  0.4927  0.0849 -0.2008
 4341TIP3    H134438   6.476   2.491  10.667  0.9115  1.9486  0.1827
 4341TIP3    H234439   6.351   2.514  10.586  0.9449  0.3384 -0.3503
 4342TIP3   OH234440   0.614   3.175   0.266  0.1242 -0.2646  0.1528
 4342TIP3    H134441   0.526   3.169   0.303  0.4847 -1.8400  0.8365
 4342TIP3    H234442   0.607   3.243   0.198 -1.1229  1.0077  1.4950
 4343TIP3   OH234443   4.453   5.266   2.827  0.1042  0.1233 -0.0331
 4343TIP3    H134444   4.378   5.288   2.771 -1.6695  0.9902  2.4759
 4343TIP3    H234445   4.452   5.171   2.832 -1.2943  0.1497  0.5203
 4344TIP3   OH234446   2.762   6.282  16.390  0.5333  0.0295 -0.4458
 4344TIP3    H134447   2.718   6.214  16.440  2.7073 -0.5933  0.7607
 4344TIP3    H234448   2.741   6.262  16.298 -1.0941 -0.5879  0.0312
 4345TIP3   OH234449   6.319   3.227   4.580 -0.0077  0.9055 -0.0443
 4345TIP3    H134450   6.288   3.158   4.639 -1.0729 -0.6819 -2.3188
 4345TIP3    H234451   6.290   3.308   4.621 -0.9093 -0.1402  1.4867
 4346TIP3   OH234452   5.351   4.375  17.286 -0.4648 -0.0559 -0.8676
 4346TIP3    H134453   5.278   4.433  17.265  0.4736  1.0370 -1.2157
 4346TIP3    H234454   5.408   4.428  17.342 -0.4729 -1.2691  0.3451
 4347TIP3   OH234455   2.914   4.927   3.837  0.2106 -0.6205  0.3724
 4347TIP3    H134456   2.916   5.021   3.852  0.3588 -0.3332 -1.2726
 4347TIP3    H234457   3.005   4.899   3.843 -0.0171 -1.0662  2.9173
 4348TIP3   OH234458   2.971   2.119  15.053 -0.5999  0.3226 -0.8076
 4348TIP3    H134459   2.903   2.184  15.072 -2.9472 -2.4591  1.3007
 4348TIP3    H234460   3.040   2.135  15.117  0.1421  2.2584 -2.0077
 4349TIP3   OH234461   5.178   3.116   1.337 -0.6393  0.3233 -0.1438
 4349TIP3    H134462   5.146   3.170   1.265  2.1130  2.5371  0.1563
 4349TIP3    H234463   5.159   3.166   1.416  1.8861  0.9466  0.1491
 4350TIP3   OH234464   4.754   4.179  11.313  0.0415  0.0670  0.1240
 4350TIP3    H134465   4.819   4.151  11.249 -0.1947 -0.3409  0.0644
 4350TIP3    H234466   4.797   4.168  11.398 -0.0057 -0.3607  0.0942
 4351TIP3   OH234467   4.451   0.004  11.314 -0.4198 -0.0904 -1.0187
 4351TIP3    H134468   4.461   0.063  11.240  2.1853  1.2551  0.2586
 4351TIP3    H234469   4.362   0.019  11.345 -0.6232  1.3720 -2.2082
 4352TIP3   OH234470   5.035   1.714   5.216 -0.1188 -0.2648 -0.0520
 4352TIP3    H134471   5.105   1.669   5.263 -0.1109  0.0684  0.2588
 4352TIP3    H234472   5.081   1.779   5.163 -0.1941 -0.0283  0.1723
 4353TIP3   OH234473   4.814   5.182  12.055  0.1265  0.0070 -0.2069
 4353TIP3    H134474   4.770   5.171  12.139 -0.3336 -0.5575 -0.5124
 4353TIP3    H234475   4.745   5.213  11.996  0.5041  0.6532 -0.3150
 4354TIP3   OH234476   4.118   5.575  17.233 -0.0524  0.1874 -0.4823
 4354TIP3    H134477   4.138   5.485  17.207  0.6963  0.3950 -0.6688
 4354TIP3    H234478   4.195   5.625  17.206 -0.2733  0.8143  0.0159
 4355TIP3   OH234479   1.442   5.975   4.816  0.0551 -0.2747 -0.0423
 4355TIP3    H134480   1.352   6.006   4.807  0.8957  2.4264  0.0855
 4355TIP3    H234481   1.434   5.888   4.855 -2.4349  0.8502  2.2650
 4356TIP3   OH234482   4.196   6.613   5.622  0.2119  0.2619  0.3980
 4356TIP3    H134483   4.281   6.582   5.591  0.0685  0.5537 -0.3185
 4356TIP3    H234484   4.136   6.540   5.605 -0.2941  1.1528 -2.0720
 4357TIP3   OH234485   0.705   2.011   3.608 -0.0672 -0.1135 -0.3806
 4357TIP3    H134486   0.692   2.094   3.653 -0.1319 -0.4156  0.1637
 4357TIP3    H234487   0.789   1.979   3.640  0.0185 -0.2035 -0.6846
 4358TIP3   OH234488   1.529   4.023   2.004 -0.7690 -0.1790 -0.1329
 4358TIP3    H134489   1.591   4.046   1.934 -0.5591  0.8758  0.3755
 4358TIP3    H234490   1.444   4.019   1.960 -0.7870  1.4252 -0.3134
 4359TIP3   OH234491   2.468   1.130  12.985 -0.0941  0.0347 -0.1734
 4359TIP3    H134492   2.524   1.112  12.909  0.8902  0.0872  0.5201
 4359TIP3    H234493   2.460   1.045  13.029 -0.4412  0.0613 -0.1857
 4360TIP3   OH234494   5.248   2.530   6.108 -0.2776  0.3747  0.2798
 4360TIP3    H134495   5.280   2.440   6.105 -0.8270  0.1935 -0.6233
 4360TIP3    H234496   5.303   2.573   6.173 -0.0511 -0.6299  0.7680
 4361TIP3   OH234497   6.098   1.819   6.078 -0.1877 -0.4150 -0.0432
 4361TIP3    H134498   6.138   1.756   6.138 -0.5492 -1.5668 -0.9751
 4361TIP3    H234499   6.159   1.892   6.077 -0.2759 -0.2405  1.8852
 4362TIP3   OH234500   3.289   3.512   3.218 -0.1265  0.3519  0.2276
 4362TIP3    H134501   3.378   3.478   3.218 -0.3107 -0.1896 -1.2443
 4362TIP3    H234502   3.241   3.455   3.279  0.4082  0.3489  0.6515
 4363TIP3   OH234503   0.016   1.257   0.417  0.4581 -0.0799 -0.1992
 4363TIP3    H134504   0.008   1.332   0.358 -2.4475 -1.5452 -1.8912
 4363TIP3    H234505   0.019   1.295   0.504 -0.8654  2.0417 -1.0017
 4364TIP3   OH234506   2.826   4.027  10.698 -0.5705  0.1108 -0.3571
 4364TIP3    H134507   2.748   4.029  10.753 -0.4983 -1.4777 -0.1494
 4364TIP3    H234508   2.796   4.052  10.611 -1.4316 -0.9407 -0.3811
 4365TIP3   OH234509   1.785   2.135   3.986  0.1210  0.0614 -0.0303
 4365TIP3    H134510   1.731   2.212   4.006 -0.2456 -0.5246  1.3539
 4365TIP3    H234511   1.769   2.075   4.059  0.9751 -1.0282 -0.7118
 4366TIP3   OH234512   6.082   6.044  11.583 -0.0951  0.4464  0.1250
 4366TIP3    H134513   6.011   6.058  11.521  0.2466 -1.3747 -0.7444
 4366TIP3    H234514   6.127   5.966  11.551  0.3272 -0.3391  2.4301
 4367TIP3   OH234515   3.778   2.099  14.629  0.0012  0.1614  0.4695
 4367TIP3    H134516   3.683   2.090  14.637 -0.1642  0.2450 -1.1060
 4367TIP3    H234517   3.808   2.121  14.718 -1.5456  1.0169  0.8120
 4368TIP3   OH234518   3.952   5.530   3.645  0.3717  0.2609 -0.3908
 4368TIP3    H134519   4.017   5.482   3.595  0.4665 -0.0330  0.0083
 4368TIP3    H234520   3.894   5.568   3.579  0.4445 -0.1876 -0.7182
 4369TIP3   OH234521   0.312   3.255  12.004 -0.0444 -0.3516  0.4735
 4369TIP3    H134522   0.334   3.200  11.929  0.5226 -0.0314  0.3968
 4369TIP3    H234523   0.240   3.310  11.973  0.4853  0.0954  0.0057
 4370TIP3   OH234524   5.687   2.327  11.593 -0.0423  0.4664  0.0099
 4370TIP3    H134525   5.730   2.410  11.573  1.3701  0.0156  1.0336
 4370TIP3    H234526   5.624   2.348  11.662 -0.7084  0.9242 -0.7184
 4371TIP3   OH234527   3.645   4.626  13.024 -0.0506  0.1607  0.2992
 4371TIP3    H134528   3.713   4.657  12.963  1.2747 -0.8877  1.1734
 4371TIP3    H234529   3.694   4.596  13.100 -1.3376 -2.4375  0.2046
 4372TIP3   OH234530   2.562   0.242  14.627  0.8781  0.1416 -0.7475
 4372TIP3    H134531   2.584   0.189  14.551  0.3976 -2.0308  0.5345
 4372TIP3    H234532   2.608   0.200  14.700 -1.2872  0.0621  0.6942
 4373TIP3   OH234533   6.160   2.917  13.462 -0.2995 -0.0466  0.2238
 4373TIP3    H134534   6.064   2.912  13.464 -0.3128 -0.6443 -1.0300
 4373TIP3    H234535   6.179   2.993  13.407 -0.0394  0.2340  0.6927
 4374TIP3   OH234536   4.567   2.175   5.599 -0.6877 -0.2267  0.0859
 4374TIP3    H134537   4.657   2.196   5.624 -0.8829  0.7462  0.0053
 4374TIP3    H234538   4.545   2.097   5.651  0.1097 -0.3233  0.2904
 4375TIP3   OH234539   6.009   6.145   4.449 -0.5559  0.1614 -0.1667
 4375TIP3    H134540   5.933   6.102   4.488 -0.6031 -0.2936 -0.7475
 4375TIP3    H234541   6.024   6.098   4.367  0.0269  0.5914 -0.3146
 4376TIP3   OH234542   0.433   4.507   2.186 -0.5360  0.8906 -0.2014
 4376TIP3    H134543   0.455   4.583   2.132  0.3353  0.8717  0.1151
 4376TIP3    H234544   0.442   4.538   2.276  3.6805 -0.5219  0.0688
 4377TIP3   OH234545   4.899   5.448   5.715 -0.4071  0.6358 -0.2765
 4377TIP3    H134546   4.970   5.384   5.702  1.1548  2.0069  1.0633
 4377TIP3    H234547   4.838   5.431   5.643  1.3215 -0.5353 -1.5420
 4378TIP3   OH234548   1.571   0.644   3.786 -0.2537  0.2916  0.4841
 4378TIP3    H134549   1.495   0.653   3.843 -0.7795  0.6987 -0.2624
 4378TIP3    H234550   1.616   0.729   3.793  0.0404  0.1124  0.7916
 4379TIP3   OH234551   2.665   3.176  12.180 -0.0420 -0.3438  0.4511
 4379TIP3    H134552   2.718   3.097  12.166 -1.2504 -1.8224  3.3060
 4379TIP3    H234553   2.591   3.167  12.121  1.3156  0.2416 -1.4136
 4380TIP3   OH234554   6.554   1.263  10.884  0.9496  0.2490  0.0222
 4380TIP3    H134555   6.645   1.282  10.908  1.3057 -1.3386  0.0478
 4380TIP3    H234556   6.550   1.167  10.880 -0.3624  0.3316 -1.3986
 4381TIP3   OH234557   3.034   5.633  12.812 -0.7156 -0.5648  0.6794
 4381TIP3    H134558   2.939   5.641  12.821 -0.7518 -0.1905  0.0177
 4381TIP3    H234559   3.057   5.555  12.862 -1.4168 -0.8521  0.5545
 4382TIP3   OH234560   0.622   6.174  16.886 -0.4568  0.1365 -0.0182
 4382TIP3    H134561   0.648   6.085  16.862  1.5768  1.5641 -4.1738
 4382TIP3    H234562   0.531   6.181  16.857 -0.6063 -0.5712  0.2775
 4383TIP3   OH234563   3.167   6.528  12.830 -0.3254 -0.3044  0.0132
 4383TIP3    H134564   3.184   6.613  12.791  0.9238 -0.1606  0.8209
 4383TIP3    H234565   3.195   6.464  12.764  1.4026 -0.0653  0.4638
 4384TIP3   OH234566   2.769   3.122  15.821  0.2746 -0.4636 -0.1985
 4384TIP3    H134567   2.730   3.172  15.893 -0.3326  0.6360 -1.2589
 4384TIP3    H234568   2.786   3.035  15.858 -0.7573 -0.1607  1.0343
 4385TIP3   OH234569   4.515   0.117   3.576 -0.1610  0.1811  0.0755
 4385TIP3    H134570   4.596   0.069   3.592 -0.2385  0.6249  1.9600
 4385TIP3    H234571   4.446   0.059   3.607 -0.2774  1.3063  2.0919
 4386TIP3   OH234572   5.820   6.246  15.329 -0.3940  0.1420  0.0326
 4386TIP3    H134573   5.897   6.216  15.378 -0.5602  0.2667  0.3757
 4386TIP3    H234574   5.816   6.188  15.253  0.3465  0.4789 -0.2732
 4387TIP3   OH234575   6.260   4.994   2.966  0.0182  0.3610  0.1376
 4387TIP3    H134576   6.167   4.977   2.980  0.0110  0.9448  0.8926
 4387TIP3    H234577   6.264   5.033   2.878 -0.2791 -0.8868 -0.4479
 4388TIP3   OH234578   3.255   0.453  17.371  0.0352 -0.3711  0.0581
 4388TIP3    H134579   3.203   0.533  17.364  0.9968  0.2909  0.2383
 4388TIP3    H234580   3.269   0.441  17.465  2.2127  0.8562 -0.0150
 4389TIP3   OH234581   5.848   6.405  14.119 -0.4124  0.3349  0.6379
 4389TIP3    H134582   5.929   6.363  14.147 -0.3562  0.5395  0.7836
 4389TIP3    H234583   5.796   6.412  14.199  0.5523  2.7700  1.1603
 4390TIP3   OH234584   2.039   5.860  15.530  0.2834 -0.1095 -0.3275
 4390TIP3    H134585   1.996   5.784  15.489 -0.5460  0.3974 -0.4143
 4390TIP3    H234586   2.131   5.851  15.506  0.1488 -0.9408 -0.5734
 4391TIP3   OH234587   3.721   1.246  17.083  0.0088 -0.3161  0.3157
 4391TIP3    H134588   3.793   1.189  17.111  0.6554  0.3164 -0.0183
 4391TIP3    H234589   3.648   1.222  17.139  0.5967 -0.7093  0.9249
 4392TIP3   OH234590   1.140   2.984   2.409 -0.6163  0.2529  0.2014
 4392TIP3    H134591   1.063   2.971   2.353 -0.1596 -1.1591 -0.1594
 4392TIP3    H234592   1.212   2.947   2.358 -0.4328 -2.6814  2.3429
 4393TIP3   OH234593   4.273   0.587  14.079  0.0202 -0.6203 -0.6705
 4393TIP3    H134594   4.320   0.657  14.125 -2.1413 -0.0220  0.7828
 4393TIP3    H234595   4.206   0.633  14.027 -0.6672 -1.5438 -0.6249
 4394TIP3   OH234596   3.561   3.079   2.354 -0.4820 -0.2420  0.2409
 4394TIP3    H134597   3.582   2.988   2.374  0.9056 -0.1121 -0.5323
 4394TIP3    H234598   3.532   3.078   2.263  2.1410  0.4259 -0.6664
 4395TIP3   OH234599   4.485   1.976   3.303  0.0492 -0.0810 -0.1448
 4395TIP3    H134600   4.542   1.979   3.226  0.0105 -0.8036 -0.2047
 4395TIP3    H234601   4.534   2.021   3.372  0.5464 -0.4126 -0.2852
 4396TIP3   OH234602   5.871   6.407   6.697 -0.3805  0.2533  0.7065
 4396TIP3    H134603   5.895   6.315   6.713 -1.1222 -0.1667 -0.4611
 4396TIP3    H234604   5.927   6.457   6.757  0.2880 -0.9360  1.1138
 4397TIP3   OH234605   2.515   6.624   0.832  0.0130 -0.0859 -0.5203
 4397TIP3    H134606   2.526   6.551   0.893  1.2821  1.8797  1.7610
 4397TIP3    H234607   2.466   6.690   0.881 -0.5650  0.8854 -2.3028
 4398TIP3   OH234608   2.232   5.269  14.760  0.0384  0.2544 -0.7179
 4398TIP3    H134609   2.217   5.177  14.781 -0.0784  0.5079  0.3652
 4398TIP3    H234610   2.277   5.304  14.837  0.7576  0.9345 -1.4256
 4399TIP3   OH234611   1.918   3.412  12.203 -0.0580 -1.3055  0.7128
 4399TIP3    H134612   1.974   3.489  12.206  0.7698 -1.7767 -1.3358
 4399TIP3    H234613   1.834   3.445  12.170 -0.6324 -0.8365  2.5207
 4400TIP3   OH234614   3.429   5.348  16.265  0.1126 -0.4345  0.1063
 4400TIP3    H134615   3.357   5.351  16.328 -1.6244  1.9768 -1.7637
 4400TIP3    H234616   3.465   5.436  16.265 -0.2641 -0.1808 -2.4635
 4401TIP3   OH234617   1.149   1.478   2.760 -0.1053 -0.4993  0.7899
 4401TIP3    H134618   1.169   1.432   2.842  4.4153  3.3714  2.3104
 4401TIP3    H234619   1.218   1.448   2.700  1.2828  2.0671  0.9880
 4402TIP3   OH234620   4.186   2.264  14.028  0.6879 -0.3707  0.3261
 4402TIP3    H134621   4.214   2.274  14.119  0.7142  1.3944  0.1621
 4402TIP3    H234622   4.094   2.291  14.029  0.4179 -1.2255 -0.0402
 4403TIP3   OH234623   6.419   6.582   5.589  0.8331  0.2236  0.0662
 4403TIP3    H134624   6.422   6.528   5.668 -1.5006 -0.5026 -0.2614
 4403TIP3    H234625   6.508   6.616   5.580  2.2789 -2.9757  0.6963
 4404TIP3   OH234626   3.456   3.458   2.757 -0.1566 -0.6952  0.7147
 4404TIP3    H134627   3.434   3.434   2.847  0.2883 -0.2391  0.9480
 4404TIP3    H234628   3.384   3.514   2.728  0.7871  1.0221  1.5699
 4405TIP3   OH234629   4.176   5.433   2.326 -0.0165 -0.6227 -0.2214
 4405TIP3    H134630   4.264   5.462   2.301  0.2493 -1.0682  0.1765
 4405TIP3    H234631   4.118   5.501   2.292  0.6458  0.8555  1.4702
 4406TIP3   OH234632   6.508   3.074   0.302 -0.1749 -0.2059  0.7068
 4406TIP3    H134633   6.536   3.015   0.232  0.7289  1.0358 -0.0343
 4406TIP3    H234634   6.547   3.158   0.279 -2.9376  1.2038  0.6808
 4407TIP3   OH234635   1.935   1.557  12.809  0.3080  0.7131 -0.5598
 4407TIP3    H134636   1.933   1.639  12.760  2.2357  1.6309  0.7312
 4407TIP3    H234637   1.998   1.502  12.762 -0.2043  0.3737 -0.8512
 4408TIP3   OH234638   4.524   0.050   3.191 -0.3203  0.6688 -0.2512
 4408TIP3    H134639   4.441   0.075   3.232  0.2197  3.1434 -0.4967
 4408TIP3    H234640   4.548   0.126   3.137  2.9681  0.8399  1.1955
 4409TIP3   OH234641   4.343   2.045  12.855 -0.0753 -0.0310  0.2564
 4409TIP3    H134642   4.266   2.102  12.849 -0.5094 -0.5048  1.0766
 4409TIP3    H234643   4.400   2.089  12.918 -0.1649 -0.2178  0.4700
 4410TIP3   OH234644   4.454   5.858   0.563 -0.1127 -0.0219  0.2419
 4410TIP3    H134645   4.466   5.942   0.519  0.2447 -1.3719 -2.4859
 4410TIP3    H234646   4.412   5.880   0.646  3.0026  3.1255  1.2066
 4411TIP3   OH234647   3.395   0.647  11.778 -0.0053 -0.1357 -0.7908
 4411TIP3    H134648   3.432   0.574  11.729  1.8126  0.5515 -0.5263
 4411TIP3    H234649   3.339   0.606  11.844  0.2729 -1.2309 -1.2189
 4412TIP3   OH234650   4.494   3.068  15.034  0.3735 -0.3328  0.5903
 4412TIP3    H134651   4.401   3.087  15.050  0.7263  1.4776  0.7506
 4412TIP3    H234652   4.504   2.975  15.056 -1.0965 -0.2103  2.0102
 4413TIP3   OH234653   4.721   5.869  15.845 -0.3873  0.1322 -0.3944
 4413TIP3    H134654   4.726   5.945  15.786  1.6423  0.7838  0.5321
 4413TIP3    H234655   4.745   5.795  15.789 -0.0216  0.5199 -0.7652
 4414TIP3   OH234656   5.483   0.933  16.501 -0.0453 -0.3185 -0.5410
 4414TIP3    H134657   5.515   1.022  16.492 -0.1852 -0.1630  0.3687
 4414TIP3    H234658   5.464   0.904  16.412 -0.1224  0.6033 -0.8267
 4415TIP3   OH234659   6.544   2.029   0.146 -0.3683 -0.0916  0.1610
 4415TIP3    H134660   6.509   1.967   0.083  1.5741 -0.4390 -0.6332
 4415TIP3    H234661   6.638   2.010   0.150 -0.0617  1.4363  1.4289
 4416TIP3   OH234662   6.297   1.734   6.316  0.1617 -0.1139 -0.3369
 4416TIP3    H134663   6.390   1.730   6.294  0.4428  0.4783  0.6786
 4416TIP3    H234664   6.280   1.828   6.331 -0.7665 -0.1231 -1.2036
 4417TIP3   OH234665   5.398   3.807   2.274  0.4610  0.0842 -0.5617
 4417TIP3    H134666   5.452   3.728   2.274 -0.5525 -0.6283 -1.1094
 4417TIP3    H234667   5.461   3.879   2.284  1.4583 -0.7441 -0.7202
 4418TIP3   OH234668   2.677   6.636   4.744 -0.0649 -0.1158 -0.5026
 4418TIP3    H134669   2.700   6.718   4.789 -0.8501 -0.2001  0.0588
 4418TIP3    H234670   2.615   6.663   4.676 -0.6158 -0.2905 -0.0736
 4419TIP3   OH234671   3.896   1.261   0.130 -0.5400 -0.5079 -0.3375
 4419TIP3    H134672   3.956   1.244   0.202  0.6173  0.0177 -1.1423
 4419TIP3    H234673   3.872   1.174   0.098  0.2406 -0.7262 -0.3558
 4420TIP3   OH234674   3.316   6.278  16.418 -0.1833  0.0657 -0.0513
 4420TIP3    H134675   3.225   6.291  16.443  0.5052  3.7671  1.1294
 4420TIP3    H234676   3.365   6.286  16.500  1.2499 -3.5534 -0.3585
 4421TIP3   OH234677   1.493   5.075  11.353 -0.1741  0.2006  0.5716
 4421TIP3    H134678   1.541   5.093  11.272 -0.8662 -0.1269  0.0725
 4421TIP3    H234679   1.485   5.160  11.396 -3.2010  1.2125 -1.6321
 4422TIP3   OH234680   6.324   6.023   5.381  0.2336 -0.3283  0.1557
 4422TIP3    H134681   6.251   5.972   5.415 -0.9001  1.2607  0.1947
 4422TIP3    H234682   6.370   6.055   5.458 -0.0193  0.0571  0.1450
 4423TIP3   OH234683   2.509   5.115  12.292 -0.0932  0.1736 -0.2224
 4423TIP3    H134684   2.573   5.181  12.264 -0.1912  0.4490  0.1937
 4423TIP3    H234685   2.535   5.036  12.246  1.0957  0.0560  0.5988
 4424TIP3   OH234686   6.686   1.888   1.240 -0.1409 -0.0984  0.6125
 4424TIP3    H134687   6.753   1.836   1.284 -0.2872 -0.9793 -0.1629
 4424TIP3    H234688   6.722   1.902   1.152 -1.0978 -0.8554  0.0882
 4425TIP3   OH234689   1.845   1.942  11.754 -0.1250 -0.0959  0.6059
 4425TIP3    H134690   1.752   1.942  11.734 -0.4882 -3.0199  1.6562
 4425TIP3    H234691   1.889   1.941  11.669 -1.1507 -0.8175  0.0707
 4426TIP3   OH234692   6.308   0.828   0.984  0.4288 -0.5437 -0.1909
 4426TIP3    H134693   6.298   0.921   1.001  1.1802 -0.3072 -1.0029
 4426TIP3    H234694   6.402   0.812   0.990  0.2544 -1.3720  0.5395
 4427TIP3   OH234695   3.118   1.084  11.341 -0.3358  0.2193 -0.3600
 4427TIP3    H134696   3.057   1.095  11.269  1.7033  0.7245 -2.1111
 4427TIP3    H234697   3.189   1.032  11.305  0.8611  0.6688  1.2115
 4428TIP3   OH234698   2.490   0.738   6.222 -0.2114  0.1403  0.3704
 4428TIP3    H134699   2.423   0.794   6.183  0.9986  0.2130 -1.7344
 4428TIP3    H234700   2.493   0.765   6.314 -1.4473  1.7324 -0.0159
 4429TIP3   OH234701   1.210   3.154   0.151  0.0567  0.1928 -0.1459
 4429TIP3    H134702   1.218   3.242   0.113 -0.6651  0.3768  0.1219
 4429TIP3    H234703   1.137   3.161   0.213 -0.3972 -0.7597 -0.5627
 4430TIP3   OH234704   2.184   6.055   0.610  0.1445 -0.3832 -0.3717
 4430TIP3    H134705   2.174   5.964   0.580 -0.5470 -0.8554  1.2004
 4430TIP3    H234706   2.162   6.052   0.703  1.1481  1.2204 -0.0534
 4431TIP3   OH234707   4.265   3.022   3.503 -0.2503  0.2658 -0.0211
 4431TIP3    H134708   4.254   3.067   3.587 -1.6030 -0.5241  0.2355
 4431TIP3    H234709   4.264   2.929   3.525 -0.8365  0.0484 -0.9427
 4432TIP3   OH234710   4.298   1.330   0.147  0.1414 -0.0077  0.5404
 4432TIP3    H134711   4.240   1.259   0.119 -1.0612  0.0487  2.6468
 4432TIP3    H234712   4.249   1.410   0.130  0.3083  0.1455  0.7687
 4433TIP3   OH234713   2.072   2.843  17.178  0.6033 -0.5334  0.3021
 4433TIP3    H134714   2.106   2.767  17.130 -1.6063 -0.0020 -2.3651
 4433TIP3    H234715   2.029   2.804  17.254  1.5403 -1.7323  0.2629
 4434TIP3   OH234716   0.495   1.412   2.767  0.3565  0.0365 -0.2432
 4434TIP3    H134717   0.573   1.406   2.713  1.0730  1.7275  0.5294
 4434TIP3    H234718   0.515   1.480   2.832 -0.9585 -0.9775  1.3234
 4435TIP3   OH234719   2.080   3.022   5.084  0.3481 -0.4475  0.0965
 4435TIP3    H134720   2.099   3.019   4.990  0.6446  0.0419  0.1346
 4435TIP3    H234721   2.162   2.994   5.126  0.3994 -0.1138  0.2205
 4436TIP3   OH234722   3.528   4.956  12.453  0.3753  0.1429  0.5197
 4436TIP3    H134723   3.515   4.870  12.495 -0.2278 -0.2295 -0.4090
 4436TIP3    H234724   3.466   4.957  12.381  1.2283  0.8789 -0.2191
 4437TIP3   OH234725   6.184   1.662  11.960 -0.5671 -0.2707 -0.2691
 4437TIP3    H134726   6.124   1.616  12.019 -2.1152  0.7503 -1.0037
 4437TIP3    H234727   6.220   1.593  11.904 -2.2238 -0.7545 -0.8064
 4438TIP3   OH234728   0.845   1.226  13.629  0.1945 -0.2964  0.3273
 4438TIP3    H134729   0.779   1.253  13.693 -2.3195 -0.9931 -1.8238
 4438TIP3    H234730   0.842   1.131  13.630  1.5351 -0.3569  0.4960
 4439TIP3   OH234731   3.486   3.113  11.814  0.0691  0.3028  0.5308
 4439TIP3    H134732   3.579   3.093  11.807 -0.5258 -2.3747 -1.7102
 4439TIP3    H234733   3.479   3.204  11.785  1.7025 -0.5721 -3.1952
 4440TIP3   OH234734   4.940   3.185  17.353  0.0360 -0.0645  0.1830
 4440TIP3    H134735   4.940   3.251  17.423  0.3929  1.4318 -1.1508
 4440TIP3    H234736   4.848   3.174  17.329  0.0805  1.3801 -0.8054
 4441TIP3   OH234737   1.974   5.716  14.431 -0.1650 -0.6275 -0.4299
 4441TIP3    H134738   1.931   5.800  14.413 -3.2544 -2.3047 -1.7590
 4441TIP3    H234739   2.064   5.739  14.452 -1.2600  3.1260  0.9643
 4442TIP3   OH234740   4.241   4.518   0.306 -0.0319 -0.2938 -0.3714
 4442TIP3    H134741   4.256   4.428   0.333 -0.2580  0.0510  0.9546
 4442TIP3    H234742   4.150   4.536   0.327 -0.0606  0.1734 -0.8540
 4443TIP3   OH234743   4.042   2.041   1.348  0.6325 -0.7458  0.3675
 4443TIP3    H134744   4.056   2.029   1.254 -0.9439 -2.5821  0.2990
 4443TIP3    H234745   4.064   1.956   1.386 -0.6923 -0.6614  1.3801
 4444TIP3   OH234746   5.473   3.772  16.257 -0.2437  0.3750  0.3804
 4444TIP3    H134747   5.462   3.724  16.339  0.4266  1.7236  1.2848
 4444TIP3    H234748   5.425   3.854  16.270 -0.3983  0.4756 -0.7016
 4445TIP3   OH234749   5.459   5.562  11.364 -0.0033 -0.5669  0.3128
 4445TIP3    H134750   5.457   5.655  11.343  1.1844 -0.4990  0.4681
 4445TIP3    H234751   5.449   5.518  11.280 -0.3469 -0.3064  0.2155
 4446TIP3   OH234752   0.841   2.246  13.407  0.1646 -0.0882  0.0239
 4446TIP3    H134753   0.754   2.280  13.386  0.2951 -0.5709 -1.3864
 4446TIP3    H234754   0.844   2.246  13.502 -1.1282  0.5662  0.0907
 4447TIP3   OH234755   0.715   0.819   0.315  0.1654 -0.4680  0.4701
 4447TIP3    H134756   0.670   0.829   0.399 -0.3382  2.6913 -0.0447
 4447TIP3    H234757   0.801   0.858   0.329  0.1421 -0.0800 -0.3790
 4448TIP3   OH234758   0.634   5.252   0.669 -0.4762 -0.1402  0.0472
 4448TIP3    H134759   0.600   5.195   0.600  1.7346 -0.0685 -1.1886
 4448TIP3    H234760   0.603   5.212   0.751 -2.2422 -0.8418 -0.9101
 4449TIP3   OH234761   4.798   3.148  12.364  0.4792  0.1617  0.0157
 4449TIP3    H134762   4.744   3.124  12.289  0.5738  1.9788 -0.6878
 4449TIP3    H234763   4.879   3.099  12.353  0.0385 -0.4956 -0.3964
 4450TIP3   OH234764   2.164   3.967  17.149  0.1693 -0.5262  0.3396
 4450TIP3    H134765   2.101   4.026  17.191 -2.3200 -3.4563  1.0629
 4450TIP3    H234766   2.192   4.014  17.070 -0.2172  2.3175  1.7462
 4451TIP3   OH234767   2.958   5.582   2.881  0.6045 -0.3966  0.3634
 4451TIP3    H134768   2.941   5.532   2.800  0.2092  0.3719 -0.0390
 4451TIP3    H234769   3.013   5.655   2.853  0.1005  0.1203  0.7145
 4452TIP3   OH234770   0.474   5.751   1.141  0.0026  0.1344  0.0164
 4452TIP3    H134771   0.454   5.816   1.209  1.3258  0.3590  0.2037
 4452TIP3    H234772   0.569   5.749   1.137 -0.0520 -0.5685 -1.1858
 4453TIP3   OH234773   4.758   1.238   4.476  0.2125  0.3439 -0.0655
 4453TIP3    H134774   4.796   1.321   4.507 -1.7869  1.7374 -1.1196
 4453TIP3    H234775   4.817   1.211   4.405  1.6887  0.0544  1.2141
 4454TIP3   OH234776   4.829   0.724   0.677 -0.5162 -0.0190 -0.1686
 4454TIP3    H134777   4.790   0.673   0.747  0.5052  1.2084  1.3527
 4454TIP3    H234778   4.762   0.788   0.653 -0.6259 -0.0216  0.1325
 4455TIP3   OH234779   2.788   4.134  13.561  0.3906  0.2115 -0.6838
 4455TIP3    H134780   2.849   4.062  13.578 -0.2686 -0.1134  0.4257
 4455TIP3    H234781   2.789   4.144  13.466  1.4779 -0.3865 -0.7561
 4456TIP3   OH234782   6.061   4.211  16.755 -0.1036  0.8411 -0.0857
 4456TIP3    H134783   6.113   4.267  16.697 -0.0685 -0.5898 -1.5353
 4456TIP3    H234784   6.014   4.271  16.812  1.1070  2.2657 -0.5290
 4457TIP3   OH234785   1.319   4.181  12.933 -0.3185 -0.1434 -0.4667
 4457TIP3    H134786   1.351   4.204  13.020  0.8512 -0.1550 -0.8835
 4457TIP3    H234787   1.231   4.218  12.929 -0.5113 -0.4232  0.8363
 4458TIP3   OH234788   4.997   3.933  13.232 -0.0587  0.3288  0.0362
 4458TIP3    H134789   5.041   3.961  13.152  0.0296  1.5598  0.5002
 4458TIP3    H234790   4.912   3.977  13.230 -0.6862 -0.8485 -0.1153
 4459TIP3   OH234791   4.325   2.472  14.761  0.4324 -0.0346 -0.0499
 4459TIP3    H134792   4.414   2.442  14.779  0.5805 -0.0493 -0.7955
 4459TIP3    H234793   4.296   2.512  14.843 -0.2670 -3.3233  1.4693
 4460TIP3   OH234794   0.500   6.448  17.041  0.4206  0.0368 -0.2505
 4460TIP3    H134795   0.515   6.426  17.133  4.3215  2.2069 -0.1505
 4460TIP3    H234796   0.526   6.370  16.993  0.6742 -0.3040  0.4339
 4461TIP3   OH234797   4.044   6.086   2.662 -0.3522  0.5016 -0.5604
 4461TIP3    H134798   4.036   6.064   2.569 -1.0064  1.2250 -0.6824
 4461TIP3    H234799   4.125   6.135   2.669 -0.6273  0.9991 -0.8589
 4462TIP3   OH234800   3.411   2.459   2.389  0.5985  1.0229 -0.2312
 4462TIP3    H134801   3.439   2.545   2.422  1.4625  0.1161  1.4872
 4462TIP3    H234802   3.315   2.461   2.396  0.6100  1.8337 -0.1928
 4463TIP3   OH234803   4.602   1.962   4.369 -0.1997  0.2368  0.1237
 4463TIP3    H134804   4.559   1.941   4.286  0.0256 -0.6228  0.2153
 4463TIP3    H234805   4.672   1.898   4.377  0.9667  1.4709  0.1012
 4464TIP3   OH234806   1.038   0.336   5.846  0.4521 -0.3855  0.1421
 4464TIP3    H134807   1.042   0.430   5.865  0.3224 -0.2189 -0.6085
 4464TIP3    H234808   1.127   0.305   5.862 -0.0737 -0.7006  3.0318
 4465TIP3   OH234809   0.062   0.219  11.768  0.5767  0.1121 -0.2703
 4465TIP3    H134810   0.014   0.260  11.697  2.0560  0.1811 -1.2603
 4465TIP3    H234811   0.143   0.269  11.775  1.5836 -1.4609 -0.2651
 4466TIP3   OH234812   0.006   5.166  12.301 -0.4625  0.3855 -0.2066
 4466TIP3    H134813  -0.070   5.155  12.244 -1.2687 -0.0508  0.9266
 4466TIP3    H234814   0.061   5.090  12.281 -1.9662 -1.2201  1.4130
 4467TIP3   OH234815   5.401   2.826  14.334  0.1948  0.1368 -0.3993
 4467TIP3    H134816   5.448   2.760  14.283 -0.6909 -0.3836 -0.5768
 4467TIP3    H234817   5.386   2.783  14.419 -2.1921 -0.7450 -1.1851
 4468TIP3   OH234818   0.338   0.121   3.567 -0.4033 -0.5570  0.0264
 4468TIP3    H134819   0.325   0.213   3.590  0.1727 -0.6596  0.7570
 4468TIP3    H234820   0.392   0.124   3.488 -0.0387 -0.2833  0.2861
 4469TIP3   OH234821   1.214   0.062  13.584  0.2972  0.2119  0.2463
 4469TIP3    H134822   1.234   0.006  13.509 -0.7288 -0.2676  0.3056
 4469TIP3    H234823   1.230   0.151  13.553  0.3470 -0.0143 -0.3913
 4470TIP3   OH234824   3.559   4.713  13.781 -0.1259  0.1938 -0.3304
 4470TIP3    H134825   3.489   4.758  13.734  0.7950 -0.0814 -2.0664
 4470TIP3    H234826   3.637   4.767  13.766  0.5109 -0.7426 -0.4950
 4471TIP3   OH234827   1.521   4.369  14.298 -0.0785 -0.9221 -0.0926
 4471TIP3    H134828   1.440   4.375  14.248 -0.2627 -2.4772 -0.0315
 4471TIP3    H234829   1.588   4.404  14.240 -0.6186 -0.7143 -0.6008
 4472TIP3   OH234830   5.711   1.367   2.877 -0.1423  0.3303 -0.3422
 4472TIP3    H134831   5.723   1.273   2.888  2.0874  0.5772 -0.3427
 4472TIP3    H234832   5.626   1.375   2.833 -1.3586 -1.5375  1.4578
 4473TIP3   OH234833   6.518   0.431  12.840 -0.3002  0.8552  0.1639
 4473TIP3    H134834   6.569   0.351  12.857 -1.6368 -0.3919 -1.3135
 4473TIP3    H234835   6.506   0.470  12.927  1.1439 -0.0513  0.8245
 4474TIP3   OH234836   0.006   1.024   4.415  0.1780  0.2140 -0.0094
 4474TIP3    H134837   0.002   1.068   4.329  0.4586  0.0624 -0.1002
 4474TIP3    H234838  -0.078   1.045   4.456 -0.6664 -1.0756 -0.9950
 4475TIP3   OH234839   6.627   5.887  13.065 -0.5560  0.1046 -0.4587
 4475TIP3    H134840   6.674   5.880  12.982  0.8937 -0.0715  0.3338
 4475TIP3    H234841   6.687   5.936  13.122 -0.1076 -2.4213  1.4272
 4476TIP3   OH234842   4.622   3.193  15.442  0.8019  0.2518 -0.7183
 4476TIP3    H134843   4.597   3.276  15.484  1.4732 -0.1714  0.5587
 4476TIP3    H234844   4.541   3.162  15.401  0.2123  0.8737 -0.0518
 4477TIP3   OH234845   6.267   5.908   1.033 -0.5926 -0.5118 -0.3745
 4477TIP3    H134846   6.308   5.953   0.958 -0.5080 -1.1414 -0.7159
 4477TIP3    H234847   6.340   5.862   1.075 -0.6620 -0.2556  0.0258
 4478TIP3   OH234848   4.629   6.306  15.918  0.1344 -0.0702  0.0199
 4478TIP3    H134849   4.724   6.302  15.908  0.0975 -0.5033 -0.1523
 4478TIP3    H234850   4.595   6.277  15.834 -0.1495  1.3715 -0.3890
 4479TIP3   OH234851   0.921   2.139   3.441 -0.6618 -0.3180  0.6088
 4479TIP3    H134852   0.964   2.103   3.519 -0.5289 -1.6799 -0.0767
 4479TIP3    H234853   0.884   2.064   3.396  0.9380  0.1657 -1.6923
 4480TIP3   OH234854   5.816   3.556  10.512 -0.2760 -0.8598 -0.1346
 4480TIP3    H134855   5.852   3.643  10.494  0.2869 -1.1078 -0.2357
 4480TIP3    H234856   5.751   3.543  10.444 -1.5291  0.1370  0.8212
 4481TIP3   OH234857   4.533   2.853  15.880  0.1468 -0.2923  0.5351
 4481TIP3    H134858   4.565   2.851  15.790  1.2571 -1.0032  0.9279
 4481TIP3    H234859   4.464   2.786  15.883  1.1192 -1.3175  0.5614
 4482TIP3   OH234860   6.046   4.023   2.557  0.3435 -0.1087 -0.3034
 4482TIP3    H134861   6.062   4.073   2.637  1.7627  0.8483 -1.1464
 4482TIP3    H234862   6.072   3.934   2.578 -0.7268 -0.2098  0.7361
 4483TIP3   OH234863   0.533   3.393  11.504  0.6656 -0.2851 -0.6671
 4483TIP3    H134864   0.598   3.381  11.574 -1.5832 -3.4935  1.1134
 4483TIP3    H234865   0.520   3.305  11.468 -2.3190  0.2942 -1.2579
 4484TIP3   OH234866   2.659   3.978  11.943  0.6035  0.4098 -0.5959
 4484TIP3    H134867   2.752   3.987  11.923  0.6649  1.3770  0.0702
 4484TIP3    H234868   2.654   3.979  12.038  0.0787 -1.6826 -0.5528
 4485TIP3   OH234869   2.080   1.255  16.726  0.2966  0.0108 -0.1308
 4485TIP3    H134870   2.138   1.330  16.711 -0.4566  0.6797  0.2366
 4485TIP3    H234871   1.996   1.294  16.749  0.0443 -0.9505  0.6504
 4486TIP3   OH234872   0.234   1.514  15.419  0.1628 -0.1305 -0.4891
 4486TIP3    H134873   0.207   1.585  15.361  0.4125  0.7767  0.4651
 4486TIP3    H234874   0.281   1.558  15.490 -0.3586 -1.1771  0.5316
 4487TIP3   OH234875   0.645   6.738  11.302 -0.3301  0.0471 -0.2475
 4487TIP3    H134876   0.701   6.722  11.378 -0.2537 -3.7641 -0.9106
 4487TIP3    H234877   0.705   6.763  11.232  0.2963 -1.3364 -0.2498
 4488TIP3   OH234878   1.291   1.589  10.863 -0.6928  0.5233  0.5679
 4488TIP3    H134879   1.210   1.627  10.829  0.1865  1.0810 -0.9798
 4488TIP3    H234880   1.319   1.528  10.794  2.2731  3.2498 -0.8920
 4489TIP3   OH234881   6.461   4.135   2.046  0.3815  0.1023  0.0022
 4489TIP3    H134882   6.460   4.190   2.125 -0.2104 -0.9546  0.7557
 4489TIP3    H234883   6.540   4.161   2.000 -0.4905  2.4606 -0.3104
 4490TIP3   OH234884   4.268   1.742   3.511 -0.3621 -0.1084 -0.7126
 4490TIP3    H134885   4.216   1.748   3.431 -1.2564  2.0976 -0.0405
 4490TIP3    H234886   4.314   1.826   3.517  0.9071 -0.8293  0.3105
 4491TIP3   OH234887   1.078   5.347   0.477 -0.3462  0.1504  0.1957
 4491TIP3    H134888   1.020   5.317   0.547  0.6151  3.1165  2.5165
 4491TIP3    H234889   1.162   5.304   0.494 -0.3594  0.1720  0.3144
 4492TIP3   OH234890   1.261   0.251  13.962 -0.2095 -0.3569  0.0827
 4492TIP3    H134891   1.229   0.340  13.947 -0.5808 -0.6862 -1.2071
 4492TIP3    H234892   1.284   0.249  14.055 -1.4391  0.6905  0.4432
 4493TIP3   OH234893   3.411   3.873   2.973 -0.4584 -0.5809  0.0041
 4493TIP3    H134894   3.479   3.937   2.950 -0.7737 -0.2890 -0.1160
 4493TIP3    H234895   3.332   3.904   2.929 -0.7582 -0.7264  0.4327
 4494TIP3   OH234896   3.858   3.797  11.378  0.3931 -0.6536  0.8495
 4494TIP3    H134897   3.934   3.843  11.344  0.4948 -0.8275  0.8416
 4494TIP3    H234898   3.830   3.740  11.306 -1.8181  1.8621 -0.4790
 4495TIP3   OH234899   3.111   1.601   6.298 -0.3960  0.0154 -0.3035
 4495TIP3    H134900   3.173   1.583   6.228 -0.3641 -0.1878 -0.2245
 4495TIP3    H234901   3.165   1.611   6.376 -0.4859 -0.5151 -0.1681
 4496TIP3   OH234902   2.901   1.553  15.427 -0.4805  0.3461 -0.7159
 4496TIP3    H134903   2.845   1.616  15.383 -0.2146  0.3327 -1.0761
 4496TIP3    H234904   2.963   1.606  15.477 -0.6455  0.3626 -0.5269
 4497TIP3   OH234905   3.686   0.096   1.887  0.1779  0.3591 -0.1716
 4497TIP3    H134906   3.682   0.096   1.791 -1.9858 -1.7165 -0.1773
 4497TIP3    H234907   3.596   0.116   1.914  0.3854 -0.6640  1.3767
 4498TIP3   OH234908   3.460   6.078  11.507 -0.2219 -0.1157  0.0533
 4498TIP3    H134909   3.364   6.078  11.500 -0.3270  0.4347  1.2820
 4498TIP3    H234910   3.481   5.992  11.542 -0.3463  0.0563  0.5647
 4499TIP3   OH234911   1.788   4.703   3.395  0.6805 -0.2123  0.3402
 4499TIP3    H134912   1.863   4.751   3.358 -0.0333 -0.1703 -1.1187
 4499TIP3    H234913   1.715   4.764   3.386  0.0154 -1.0959 -0.3888
 4500TIP3   OH234914   2.216   4.845   2.384  0.0552  0.4762 -0.1141
 4500TIP3    H134915   2.218   4.767   2.439  0.0772  0.1896 -0.5232
 4500TIP3    H234916   2.205   4.917   2.447  1.9134  0.3229  0.4343
 4501TIP3   OH234917   6.572   3.648  17.290 -0.0075  0.1330 -0.2654
 4501TIP3    H134918   6.578   3.737  17.253 -0.7226 -0.3626 -1.6594
 4501TIP3    H234919   6.657   3.634  17.332  0.1178  1.4748 -0.0158
 4502TIP3   OH234920   3.404   3.015   0.295  0.0410  0.1192  0.1572
 4502TIP3    H134921   3.347   2.969   0.233  2.2513 -3.0397  0.1999
 4502TIP3    H234922   3.388   2.971   0.379  0.7874  0.8137  0.6787
 4503TIP3   OH234923   4.751   4.122  12.717 -0.0542  0.2388 -0.2717
 4503TIP3    H134924   4.702   4.059  12.664 -0.4749 -0.1226  0.5216
 4503TIP3    H234925   4.836   4.129  12.674  0.1941 -1.2892 -0.0770
 4504TIP3   OH234926   0.410   5.004   2.118  0.8306 -0.0636 -0.0268
 4504TIP3    H134927   0.499   4.991   2.084  1.6703  0.3454  1.9046
 4504TIP3    H234928   0.422   5.026   2.210 -1.3339 -1.0874  0.5774
 4505TIP3   OH234929   4.368   1.913   1.465 -0.2866 -0.2149 -0.3026
 4505TIP3    H134930   4.343   1.825   1.438  0.2390 -0.9780  1.5812
 4505TIP3    H234931   4.435   1.900   1.533 -0.0896  1.6364 -0.0849
 4506TIP3   OH234932   0.310   4.129   0.982  0.1552 -0.1218  0.4095
 4506TIP3    H134933   0.307   4.162   0.893 -1.1722 -0.6091  0.2589
 4506TIP3    H234934   0.368   4.190   1.028  0.0621  0.7063 -0.5371
 4507TIP3   OH234935   4.278   6.703   6.023  0.1979  0.6120  0.1554
 4507TIP3    H134936   4.208   6.661   5.974  0.6944 -0.2520  0.1798
 4507TIP3    H234937   4.355   6.696   5.967  0.2478  1.6902  0.0631
 4508TIP3   OH234938   5.986   5.651   0.682  0.1864 -0.1861 -0.6350
 4508TIP3    H134939   5.949   5.738   0.698 -0.7965 -1.1837  3.6489
 4508TIP3    H234940   6.079   5.660   0.703  0.2627  0.0001 -1.0450
 4509TIP3   OH234941   5.842   0.280   1.108 -0.3101 -0.0288  0.1021
 4509TIP3    H134942   5.905   0.234   1.165 -1.4345 -1.4198  0.2868
 4509TIP3    H234943   5.831   0.221   1.033  0.9169  1.6378 -1.4683
 4510TIP3   OH234944   1.393   6.063  14.357  0.0935  0.5061 -0.1806
 4510TIP3    H134945   1.361   6.120  14.287  0.1450  2.1006  1.0211
 4510TIP3    H234946   1.318   6.054  14.416  1.0123  2.2116  1.3786
 4511TIP3   OH234947   4.410   0.851  17.279  0.0521  0.6206 -0.2058
 4511TIP3    H134948   4.487   0.797  17.264  0.3163  1.3688 -1.7614
 4511TIP3    H234949   4.441   0.919  17.340  1.5437  2.5707 -2.8829
 4512TIP3   OH234950   2.144   0.771  15.983 -0.3671  0.3742  0.2433
 4512TIP3    H134951   2.098   0.705  16.034 -0.5333  0.6733  0.4817
 4512TIP3    H234952   2.085   0.846  15.981 -0.0048  0.6646  0.3290
 4513TIP3   OH234953   6.578   5.691   0.826  0.4091 -0.3433 -0.1888
 4513TIP3    H134954   6.558   5.782   0.845  0.6442 -0.4199  0.4282
 4513TIP3    H234955   6.661   5.694   0.779  0.8207 -0.2960  0.5389
 4514TIP3   OH234956   6.501   3.636   0.763  0.4818  0.9348 -0.1611
 4514TIP3    H134957   6.419   3.613   0.808 -0.6079  1.8918 -1.5442
 4514TIP3    H234958   6.492   3.730   0.745  1.4318  0.8367 -1.2310
 4515TIP3   OH234959   4.063   2.031  15.169 -0.8917 -0.6320 -0.3145
 4515TIP3    H134960   3.986   1.998  15.215  0.3539 -1.4400  1.2654
 4515TIP3    H234961   4.100   1.954  15.127 -1.0097 -0.2144 -1.2136
 4516TIP3   OH234962   1.848   5.125  13.008  1.0227 -0.1913 -0.0494
 4516TIP3    H134963   1.780   5.184  12.975  0.9737  0.1512  0.6371
 4516TIP3    H234964   1.875   5.074  12.931  0.7160  0.3797 -0.5474
 4517TIP3   OH234965   4.667   4.698   0.114  0.3235 -0.0534 -0.1706
 4517TIP3    H134966   4.578   4.683   0.082  0.1857  2.0551 -0.9323
 4517TIP3    H234967   4.655   4.750   0.194  0.8298 -1.9965  1.2643
 4518TIP3   OH234968   0.793   6.009  15.546 -0.3215  0.1110 -0.1501
 4518TIP3    H134969   0.792   5.929  15.493  1.1606 -0.1725  0.2092
 4518TIP3    H234970   0.845   6.071  15.495 -2.5709  1.3610 -1.0695
 4519TIP3   OH234971   1.492   4.480  13.826 -0.0329  0.1361 -0.2170
 4519TIP3    H134972   1.556   4.408  13.828  2.1092  1.9626  0.5848
 4519TIP3    H234973   1.424   4.452  13.887  0.2177 -1.6398 -0.6750
 4520TIP3   OH234974   6.282   6.489   1.209  0.4409 -0.2972 -0.3598
 4520TIP3    H134975   6.304   6.581   1.218  1.1744 -0.5875  1.1707
 4520TIP3    H234976   6.347   6.443   1.263 -1.2742 -1.5109  0.7943
 4521TIP3   OH234977   3.466   5.141   4.263 -0.0307 -0.5981 -0.3305
 4521TIP3    H134978   3.553   5.112   4.292 -1.1254 -1.5169  2.4224
 4521TIP3    H234979   3.463   5.234   4.286 -0.2544 -0.9166  1.0550
 4522TIP3   OH234980   2.188   2.491  12.787  0.5287 -0.7328  0.6493
 4522TIP3    H134981   2.094   2.509  12.778  0.0098 -3.2838  0.4425
 4522TIP3    H234982   2.211   2.525  12.874 -1.0947 -1.9067  1.5918
 4523TIP3   OH234983   4.497   1.259   1.866  0.1498 -0.1396  0.0721
 4523TIP3    H134984   4.513   1.312   1.944  1.2369  0.4298 -0.5199
 4523TIP3    H234985   4.571   1.199   1.862 -0.1155 -0.4512 -0.2993
 4524TIP3   OH234986   4.392   2.056  15.634 -0.6314 -0.2342 -0.1046
 4524TIP3    H134987   4.486   2.071  15.630 -0.5750 -0.3079  0.7130
 4524TIP3    H234988   4.360   2.075  15.546  0.0903  0.1703 -0.2831
 4525TIP3   OH234989   1.158   5.192  12.549 -0.2351 -0.1256  0.7210
 4525TIP3    H134990   1.082   5.199  12.606  0.7846 -0.5284  2.1810
 4525TIP3    H234991   1.207   5.273  12.563  0.0699 -0.2632  0.4817
 4526TIP3   OH234992   2.533   5.681  11.964  0.1478 -0.2330  0.0691
 4526TIP3    H134993   2.628   5.684  11.982  0.0895 -0.1442  0.3702
 4526TIP3    H234994   2.493   5.702  12.048 -0.1112  1.7042 -0.4800
 4527TIP3   OH234995   4.419   0.058   2.224  0.0596  0.6449 -0.5968
 4527TIP3    H134996   4.478   0.107   2.165 -1.3684  0.5193 -2.2204
 4527TIP3    H234997   4.356   0.016   2.165 -2.3514  1.6726  1.0951
 4528TIP3   OH234998   2.658   0.029   3.139 -0.0769 -0.2489 -0.3173
 4528TIP3    H134999   2.720   0.102   3.136 -0.7664  0.3256 -0.6042
 4528TIP3    H235000   2.574   0.066   3.112 -0.1945 -1.4148 -1.7015
 4529TIP3   OH235001   1.571   5.668  14.646  0.5312 -0.7108 -0.2032
 4529TIP3    H135002   1.493   5.613  14.651  0.5780 -0.6781  1.2257
 4529TIP3    H235003   1.550   5.735  14.581 -1.9830  1.3757  2.5577
 4530TIP3   OH235004   3.050   0.357  14.129  0.6011  0.2397 -0.6063
 4530TIP3    H135005   3.134   0.404  14.132  1.4239 -1.2022 -0.1554
 4530TIP3    H235006   3.054   0.306  14.049  0.7283 -0.8281  0.0615
 4531TIP3   OH235007   1.526   0.837   0.362 -0.2278  0.2213  0.0903
 4531TIP3    H135008   1.554   0.747   0.378  0.7250 -0.0528 -2.6968
 4531TIP3    H235009   1.517   0.875   0.450  1.5813 -1.9006  1.2946
 4532TIP3   OH235010   5.471   3.554   4.417  0.5607 -0.0686  0.1640
 4532TIP3    H135011   5.509   3.470   4.389  1.1248  0.0316  0.6023
 4532TIP3    H235012   5.506   3.567   4.505 -1.7166 -0.7412  1.2730
 4533TIP3   OH235013   3.593   1.128  11.690 -0.2644  0.4074 -0.4816
 4533TIP3    H135014   3.506   1.100  11.660 -0.7918  1.0892  0.3650
 4533TIP3    H235015   3.589   1.224  11.688  0.0177  0.4572  0.8140
 4534TIP3   OH235016   6.200   2.849  15.853 -0.8165 -0.2750 -0.1880
 4534TIP3    H135017   6.116   2.847  15.806  0.0332 -2.4068 -1.7826
 4534TIP3    H235018   6.190   2.785  15.923 -0.2883 -1.1247 -0.8732
 4535TIP3   OH235019   5.512   2.465  17.392  0.0718 -0.5134  0.3888
 4535TIP3    H135020   5.513   2.459  17.488 -1.4229 -0.8123  0.4020
 4535TIP3    H235021   5.420   2.459  17.368  0.3903 -0.0484 -1.0587
 4536TIP3   OH235022   3.776   0.370   3.071 -0.3484  0.0725  0.0669
 4536TIP3    H135023   3.777   0.461   3.043 -1.6580 -0.2674 -1.1935
 4536TIP3    H235024   3.683   0.346   3.073 -0.0403 -1.1843  0.5576
 4537TIP3   OH235025   3.328   1.146   5.290  0.2239 -0.1508 -0.0248
 4537TIP3    H135026   3.347   1.054   5.268  1.5307 -0.2975  1.5264
 4537TIP3    H235027   3.389   1.197   5.237  1.4211 -0.3585  1.0939
 4538TIP3   OH235028   6.047   1.278  15.360 -0.0496  0.4034 -0.1107
 4538TIP3    H135029   5.995   1.268  15.280  0.8454  0.5009 -0.7248
 4538TIP3    H235030   6.089   1.364  15.351  0.6375  0.1016  0.1114
 4539TIP3   OH235031   4.154   0.352  12.423 -0.0021  0.1853  0.2114
 4539TIP3    H135032   4.124   0.264  12.445  2.0519 -0.9973 -1.3630
 4539TIP3    H235033   4.102   0.410  12.479 -1.2164 -2.0185  1.4983
 4540TIP3   OH235034   2.056   0.187  13.942  0.2643 -0.3014  0.1822
 4540TIP3    H135035   2.027   0.138  13.865  1.2870 -0.0503 -0.3787
 4540TIP3    H235036   2.131   0.238  13.911  0.1298  0.4969  1.1224
 4541TIP3   OH235037   2.722   3.016   2.335  0.0177 -0.1200  0.0537
 4541TIP3    H135038   2.765   3.097   2.306 -0.8677  0.3718  0.0816
 4541TIP3    H235039   2.704   2.968   2.255 -1.7788  0.9086 -0.1962
 4542TIP3   OH235040   6.658   5.340  16.096 -0.5271  0.1289  0.8243
 4542TIP3    H135041   6.633   5.299  16.179 -1.1698  0.0772  0.6098
 4542TIP3    H235042   6.655   5.268  16.033 -0.4352  0.2547  0.6768
 4543TIP3   OH235043   6.180   1.036  16.238 -0.0336 -0.4338  0.1779
 4543TIP3    H135044   6.140   1.047  16.152  1.6939 -1.9350 -0.8963
 4543TIP3    H235045   6.128   1.092  16.296 -2.7713 -1.1927 -1.3455
 4544TIP3   OH235046   0.697   5.141   1.708  0.1196  0.3365 -0.4690
 4544TIP3    H135047   0.662   5.058   1.742 -0.0848  1.1913  1.5180
 4544TIP3    H235048   0.630   5.172   1.647  0.1111 -0.8404 -1.0955
 4545TIP3   OH235049   1.476   3.994  16.875  0.5618  0.3164  0.0650
 4545TIP3    H135050   1.487   3.905  16.841  0.4960 -0.1719  1.2774
 4545TIP3    H235051   1.553   4.007  16.931  0.2502  0.7877  0.3849
 4546TIP3   OH235052   3.407   5.766  14.365 -0.8035 -0.6510  0.4832
 4546TIP3    H135053   3.447   5.747  14.280  0.3072 -0.2473  0.8949
 4546TIP3    H235054   3.313   5.770  14.347 -0.5319  0.2326 -0.8892
 4547TIP3   OH235055   0.267   0.267  15.819  0.0915 -0.2757  0.7335
 4547TIP3    H135056   0.239   0.311  15.739 -0.4209  0.3085  1.2239
 4547TIP3    H235057   0.199   0.288  15.883 -0.2097 -1.8440  0.9762
 4548TIP3   OH235058   6.089   5.123  17.046  0.3645 -0.4006 -0.6034
 4548TIP3    H135059   6.158   5.129  16.980  0.7321  0.4704 -0.1564
 4548TIP3    H235060   6.111   5.191  17.110 -0.8460 -0.1799 -0.3976
 4549TIP3   OH235061   4.192   5.022   0.952  0.3018  0.1509 -0.2835
 4549TIP3    H135062   4.282   4.993   0.939  1.6962  2.8530  2.0678
 4549TIP3    H235063   4.176   5.084   0.881 -0.0070 -0.8741 -1.1236
 4550TIP3   OH235064   4.917   0.078  16.486  0.2349 -0.3475  0.2370
 4550TIP3    H135065   4.964   0.007  16.442  0.8133  0.4691 -0.4664
 4550TIP3    H235066   4.916   0.150  16.424 -0.8299  0.0934  0.7390
 4551TIP3   OH235067   0.509   0.388   2.563 -0.0237  0.0746 -0.3775
 4551TIP3    H135068   0.446   0.457   2.585  2.7939  2.5856  0.4444
 4551TIP3    H235069   0.558   0.423   2.489  2.2093 -0.4797  0.7488
 4552TIP3   OH235070   1.386   1.942  11.891 -0.3862 -0.3268 -0.7017
 4552TIP3    H135071   1.314   1.940  11.828  1.5915 -1.4021 -3.1003
 4552TIP3    H235072   1.402   1.850  11.912  1.3622 -0.2724 -1.6165
 4553TIP3   OH235073   5.863   2.777   2.806  0.0227 -0.2478 -0.0047
 4553TIP3    H135074   5.821   2.856   2.774  1.8774  0.3296 -1.1743
 4553TIP3    H235075   5.815   2.705   2.764 -0.1247  0.3585 -0.8957
 4554TIP3   OH235076   6.079   1.711   3.321  0.3029 -0.2625 -0.3223
 4554TIP3    H135077   6.055   1.803   3.328  2.4673  0.2469  1.5816
 4554TIP3    H235078   6.158   1.710   3.267  0.4160 -0.9595 -0.1584
 4555TIP3   OH235079   5.947   0.696  15.497 -0.7094 -0.4169  0.1702
 4555TIP3    H135080   6.013   0.629  15.516 -2.7958 -2.0103  2.4101
 4555TIP3    H235081   5.993   0.779  15.507  1.1353 -1.4595  0.7828
 4556TIP3   OH235082   3.226   6.544   4.373  0.1162  0.1210  0.4557
 4556TIP3    H135083   3.170   6.615   4.405  0.7515  1.5798 -1.4353
 4556TIP3    H235084   3.293   6.589   4.321  1.0593 -1.8166 -0.0933
 4557TIP3   OH235085   5.424   2.497   0.825 -0.3605  0.5026 -0.3083
 4557TIP3    H135086   5.396   2.432   0.760  0.4713 -0.4084  0.2072
 4557TIP3    H235087   5.349   2.556   0.835 -0.4079  0.8417 -2.3005
 4558TIP3   OH235088   6.134   2.123  11.821  0.1856  0.0250 -0.9126
 4558TIP3    H135089   6.061   2.135  11.760 -0.4757  1.0571  0.0366
 4558TIP3    H235090   6.108   2.173  11.898  1.3481 -0.6332 -0.0777
 4559TIP3   OH235091   3.109   5.358  11.705 -0.1810  0.2414  0.1311
 4559TIP3    H135092   3.154   5.440  11.723  0.9164 -0.5336  1.0574
 4559TIP3    H235093   3.017   5.382  11.699  0.1954  1.6570 -0.4378
 4560TIP3   OH235094   5.540   2.177  11.424 -0.5715  0.2064  0.1539
 4560TIP3    H135095   5.576   2.247  11.479 -1.2239  0.3459  0.4143
 4560TIP3    H235096   5.490   2.123  11.484 -0.6030 -0.1194 -0.1649
 4561TIP3   OH235097   6.492   0.282   1.828  0.3923 -0.1496  0.0533
 4561TIP3    H135098   6.470   0.217   1.894  0.4248  1.2655  1.5155
 4561TIP3    H235099   6.588   0.281   1.824  0.3681 -1.5051 -1.3551
 4562TIP3   OH235100   4.131   6.422  16.961  0.7837  0.4752 -0.1231
 4562TIP3    H135101   4.178   6.348  16.924 -0.1282 -1.1448  1.7743
 4562TIP3    H235102   4.200   6.485  16.984  1.7213 -0.4661 -0.2933
 4563TIP3   OH235103   0.827   6.322  13.188 -0.5660  0.1318 -0.1085
 4563TIP3    H135104   0.809   6.235  13.152 -1.3593 -1.1197  2.9901
 4563TIP3    H235105   0.919   6.319  13.214 -1.3379 -1.1346  2.9712
 4564TIP3   OH235106   2.739   5.449   2.442  0.2377  0.3603  0.0101
 4564TIP3    H135107   2.713   5.359   2.423  1.1716  0.0583  0.0774
 4564TIP3    H235108   2.794   5.473   2.367  0.7819  0.5194  0.4503
 4565TIP3   OH235109   3.284   5.518   3.438 -0.1991 -0.1361 -0.6201
 4565TIP3    H135110   3.345   5.590   3.420 -0.9564  1.0140  1.1299
 4565TIP3    H235111   3.309   5.486   3.525 -1.6854 -0.0062 -0.1011
 4566TIP3   OH235112   0.740   4.408  15.768  0.2760 -0.1502 -0.2561
 4566TIP3    H135113   0.684   4.462  15.713  0.4606  0.6732  0.3561
 4566TIP3    H235114   0.683   4.337  15.798 -0.7038  1.1039  1.0185
 4567TIP3   OH235115   3.113   6.349   4.642  0.3467  0.1345  0.9327
 4567TIP3    H135116   3.046   6.285   4.616  0.9350  0.2370 -0.9957
 4567TIP3    H235117   3.068   6.406   4.704 -0.8559 -0.8088  0.9702
 4568TIP3   OH235118   4.103   4.402   1.049 -0.1469 -0.6338  0.0043
 4568TIP3    H135119   4.030   4.352   1.087 -0.6172  0.9562  1.3019
 4568TIP3    H235120   4.078   4.416   0.958 -0.5000 -1.8182 -0.0992
 4569TIP3   OH235121   1.932   1.251  15.304  0.7848 -0.5378 -0.5175
 4569TIP3    H135122   1.888   1.182  15.254 -1.8564 -0.2161  1.1448
 4569TIP3    H235123   1.925   1.329  15.248 -0.2022 -0.6618 -0.5948
 4570TIP3   OH235124   5.494   2.593   3.623  0.3541  0.3779  0.8075
 4570TIP3    H135125   5.514   2.499   3.625  0.0323  0.2617 -0.4221
 4570TIP3    H235126   5.431   2.602   3.551  0.4256  1.5472  0.8743
 4571TIP3   OH235127   3.465   1.534  15.391 -0.2792  0.6691  0.0923
 4571TIP3    H135128   3.514   1.456  15.417 -3.2329 -0.9262  1.5342
 4571TIP3    H235129   3.480   1.597  15.461  0.8385  0.7921 -0.2469
 4572TIP3   OH235130   0.715   2.045   2.705 -0.0952  0.5236  0.1246
 4572TIP3    H135131   0.630   2.004   2.716 -1.3247  1.5712 -3.8276
 4572TIP3    H235132   0.700   2.137   2.728  0.0009  0.6601 -0.3455
 4573TIP3   OH235133   0.443   5.281   4.525  0.5244 -0.0285 -0.3510
 4573TIP3    H135134   0.538   5.271   4.523  0.7250  1.6856 -1.2458
 4573TIP3    H235135   0.413   5.217   4.590  2.0669 -2.1011 -1.5719
 4574TIP3   OH235136   6.709   6.486  11.999  0.3593 -0.7969 -0.0325
 4574TIP3    H135137   6.614   6.477  11.994  0.1909 -0.3923  1.8010
 4574TIP3    H235138   6.727   6.576  11.972  0.3556 -1.2286 -1.5284
 4575TIP3   OH235139   3.567   4.919   4.057 -0.0491 -0.0194  0.3812
 4575TIP3    H135140   3.545   4.927   4.149  0.4634  0.6448  0.4577
 4575TIP3    H235141   3.536   5.001   4.017  0.7036  0.1790  0.1806
 4576TIP3   OH235142   6.546   6.742  15.545 -0.0867 -0.0907 -0.4800
 4576TIP3    H135143   6.590   6.657  15.546 -1.1603 -0.6598  0.8713
 4576TIP3    H235144   6.480   6.734  15.476 -1.1830 -0.9142  0.6230
 4577TIP3   OH235145   5.618   0.884   6.518  0.4054  0.2070  0.1946
 4577TIP3    H135146   5.532   0.856   6.551 -0.5623 -0.0155 -2.2754
 4577TIP3    H235147   5.648   0.948   6.582 -2.8352  2.2561 -0.0723
 4578TIP3   OH235148   0.983   0.717  12.526  0.2996  0.5508  0.2746
 4578TIP3    H135149   1.019   0.669  12.451 -0.4052 -0.3581  0.5027
 4578TIP3    H235150   0.889   0.701  12.522 -0.0219  2.2402  0.1461
 4579TIP3   OH235151   3.495   0.372  11.281 -0.1875  0.7868 -0.7367
 4579TIP3    H135152   3.563   0.382  11.214 -0.8867  0.0267 -1.5799
 4579TIP3    H235153   3.544   0.360  11.362  0.7374 -0.7953 -1.4789
 4580TIP3   OH235154   6.512   6.296   5.168  0.2288 -0.2131  1.0535
 4580TIP3    H135155   6.479   6.323   5.083  1.4895 -0.8022  0.3478
 4580TIP3    H235156   6.601   6.266   5.151  0.2981 -0.9206  2.4851
 4581TIP3   OH235157   5.469   3.643  11.887  0.2437 -0.3048  0.5118
 4581TIP3    H135158   5.549   3.621  11.935  1.0487 -0.9402 -1.0456
 4581TIP3    H235159   5.401   3.647  11.954  1.4617 -0.3510  1.7953
 4582TIP3   OH235160   6.047   5.451   3.411 -0.6558  0.3115 -0.3119
 4582TIP3    H135161   6.086   5.364   3.421  0.4771  0.6638 -1.4411
 4582TIP3    H235162   6.077   5.500   3.488  0.8037  0.4377 -0.9346
 4583TIP3   OH235163   2.113   1.758   2.936 -0.7355 -0.0210 -0.1657
 4583TIP3    H135164   2.181   1.820   2.909 -1.0095  0.2271 -0.2979
 4583TIP3    H235165   2.108   1.769   3.031  2.4174 -3.1187  0.5637
 4584TIP3   OH235166   5.612   6.236  16.512 -0.3325  0.2769 -0.0684
 4584TIP3    H135167   5.641   6.314  16.559  0.2583 -0.0976  0.2143
 4584TIP3    H235168   5.516   6.240  16.514 -0.3238  0.2717  1.1940
 4585TIP3   OH235169   0.715   3.164   4.723  0.3983 -0.1872  0.2021
 4585TIP3    H135170   0.678   3.251   4.738  0.3364 -0.0450 -0.7279
 4585TIP3    H235171   0.720   3.156   4.627  3.5864  0.1454  0.2498
 4586TIP3   OH235172   5.493   5.503  14.702  0.5530  0.2427  0.2805
 4586TIP3    H135173   5.567   5.500  14.763 -0.5959  0.2820  1.7107
 4586TIP3    H235174   5.466   5.412  14.693  0.4767  0.2804  0.1212
 4587TIP3   OH235175   4.254   5.190   3.446  0.0495  0.2814  0.6513
 4587TIP3    H135176   4.200   5.262   3.414  0.1561 -0.4158 -1.1962
 4587TIP3    H235177   4.340   5.206   3.407  0.5554  0.0859  1.6498
 4588TIP3   OH235178   4.562   1.911  17.096 -0.8071  0.1015 -0.0386
 4588TIP3    H135179   4.488   1.932  17.039 -1.0170 -0.0296  0.1838
 4588TIP3    H235180   4.594   1.827  17.064 -3.3138 -1.9624  2.3611
 4589TIP3   OH235181   3.831   5.214  14.349 -0.1088 -0.3261  0.3990
 4589TIP3    H135182   3.897   5.152  14.379  0.9747  0.7925  0.3992
 4589TIP3    H235183   3.856   5.234  14.259  0.0257  0.6944  0.6502
 4590TIP3   OH235184   1.305   6.241  12.123 -0.3541 -0.0188 -0.2864
 4590TIP3    H135185   1.223   6.209  12.160 -0.1786  0.9891  1.0455
 4590TIP3    H235186   1.368   6.172  12.141 -0.9229 -0.8902 -1.5009
 4591TIP3   OH235187   0.139   4.469   0.256 -0.0227  0.2575 -0.5336
 4591TIP3    H135188   0.046   4.478   0.277 -0.1247  0.4578 -1.0631
 4591TIP3    H235189   0.150   4.513   0.172  0.0398 -1.8933 -1.7443
 4592TIP3   OH235190   1.256   2.378  16.220  0.5089 -0.5654  0.4611
 4592TIP3    H135191   1.199   2.432  16.275 -0.3928 -1.5604  0.5365
 4592TIP3    H235192   1.319   2.339  16.281  0.5230 -0.3966  0.5539
 4593TIP3   OH235193   2.307   3.536   3.383 -0.1094  0.0210  0.0331
 4593TIP3    H135194   2.357   3.454   3.383 -0.1261 -0.0957  3.0664
 4593TIP3    H235195   2.374   3.604   3.376 -0.0064 -0.1996 -1.3601
 4594TIP3   OH235196   5.054   1.624  13.025  0.0274 -0.2063 -0.4795
 4594TIP3    H135197   4.964   1.654  13.008 -0.8193 -0.8634  2.3039
 4594TIP3    H235198   5.100   1.703  13.053  0.1708  0.0093 -1.2909
 4595TIP3   OH235199   3.839   2.988  13.592  0.0452 -0.2309 -0.2554
 4595TIP3    H135200   3.813   2.933  13.666 -1.2354 -1.0750 -1.2714
 4595TIP3    H235201   3.796   3.072  13.609  0.9324  0.0579  0.6498
 4596TIP3   OH235202   3.030   3.747   5.654 -0.6461  0.0104  0.3318
 4596TIP3    H135203   3.107   3.739   5.711  1.2745  2.7991 -1.5968
 4596TIP3    H235204   2.992   3.659   5.653  2.7989 -1.6792  1.0386
 4597TIP3   OH235205   6.314   2.167   3.650  0.0052  0.2340  0.0285
 4597TIP3    H135206   6.288   2.093   3.595  0.9337  0.9140 -1.3956
 4597TIP3    H235207   6.247   2.172   3.718 -1.2052 -0.6359 -1.0676
 4598TIP3   OH235208   0.250   4.295   2.376 -0.0570 -0.4703 -0.2531
 4598TIP3    H135209   0.189   4.285   2.303 -0.7351 -1.0209  0.3738
 4598TIP3    H235210   0.196   4.330   2.447  0.7644  0.8215 -0.2405
 4599TIP3   OH235211   6.503   1.471  11.453  0.1944  0.2067 -0.0630
 4599TIP3    H135212   6.474   1.543  11.397  0.5083  0.0314 -0.4559
 4599TIP3    H235213   6.424   1.420  11.471  0.4905 -1.3575 -2.6685
 4600TIP3   OH235214   3.981   3.071   6.061 -0.4512 -0.2425 -0.1343
 4600TIP3    H135215   3.961   3.160   6.091  1.3143  0.7724 -1.7908
 4600TIP3    H235216   4.027   3.031   6.135  0.0066  0.7242  0.1170
 4601TIP3   OH235217   0.237   3.122   2.776  0.5801 -0.1285 -0.3041
 4601TIP3    H135218   0.160   3.129   2.833  1.3510 -2.9118  1.2384
 4601TIP3    H235219   0.300   3.184   2.814 -0.6680  1.9151 -1.3744
 4602TIP3   OH235220   2.386   3.735   3.768  0.1817  0.2321 -0.1182
 4602TIP3    H135221   2.358   3.824   3.747  2.4283  0.7122 -1.3952
 4602TIP3    H235222   2.384   3.732   3.864 -0.0347  1.6220 -0.0549
 4603TIP3   OH235223   0.521   1.438  16.586 -0.0619 -0.4865  0.0994
 4603TIP3    H135224   0.581   1.374  16.549 -0.6752  0.5934 -3.0483
 4603TIP3    H235225   0.439   1.423  16.540 -0.3754  2.1775 -0.3588
 4604TIP3   OH235226   4.649   6.358   5.511 -0.0939  0.0795 -0.2380
 4604TIP3    H135227   4.628   6.316   5.427  1.7770 -1.6789  0.1038
 4604TIP3    H235228   4.725   6.413   5.492 -0.1776  0.3290  0.1446
 4605TIP3   OH235229   3.867   4.116   2.338 -0.3192 -0.2291 -0.2183
 4605TIP3    H135230   3.798   4.094   2.400 -0.6851 -2.3276 -1.2761
 4605TIP3    H235231   3.916   4.034   2.327  2.5417  1.2387  0.6669
 4606TIP3   OH235232   6.149   0.697   2.390 -0.3529  0.2966  0.4882
 4606TIP3    H135233   6.232   0.734   2.360 -0.3530 -1.3505 -1.7884
 4606TIP3    H235234   6.093   0.696   2.312 -1.7398 -0.6790  1.4409
 4607TIP3   OH235235   5.503   2.425  11.769  0.4527 -0.2051 -0.3587
 4607TIP3    H135236   5.454   2.456  11.693  0.6486 -1.2725 -0.9397
 4607TIP3    H235237   5.441   2.373  11.819  0.8871 -1.2990 -0.9317
 4608TIP3   OH235238   1.347   2.712  10.819  0.6529 -0.0209 -0.1198
 4608TIP3    H135239   1.307   2.784  10.770  2.0691  0.1738 -1.0437
 4608TIP3    H235240   1.386   2.754  10.896  1.1416  0.1638 -0.4601
 4609TIP3   OH235241   1.396   2.501  12.746  0.2715  0.2914 -0.4515
 4609TIP3    H135242   1.388   2.432  12.680  1.0066 -0.2833  0.0487
 4609TIP3    H235243   1.371   2.459  12.828  0.3860  0.7120 -0.1957
 4610TIP3   OH235244   2.703   1.344  12.106  0.2961  0.4943 -0.1350
 4610TIP3    H135245   2.672   1.350  12.016 -0.9254 -0.7355  0.1761
 4610TIP3    H235246   2.734   1.254  12.115 -2.3283 -0.3503  1.4588
 4611TIP3   OH235247   4.334   4.147  16.528 -0.0010 -0.3160 -0.0380
 4611TIP3    H135248   4.283   4.075  16.565 -0.2862  0.4803  1.1639
 4611TIP3    H235249   4.414   4.150  16.580  0.4793 -0.4090 -0.7550
 4612TIP3   OH235250   0.150   2.446  12.168 -0.5026  0.2325 -0.4608
 4612TIP3    H135251   0.095   2.417  12.241  0.7129 -0.0478  0.3763
 4612TIP3    H235252   0.162   2.368  12.114 -1.3663  0.4293 -0.9583
 4613TIP3   OH235253   6.668   0.134   1.576  0.7057 -0.1783 -0.4912
 4613TIP3    H135254   6.575   0.110   1.573  1.0856 -1.7255 -0.9150
 4613TIP3    H235255   6.678   0.183   1.657 -0.4129 -0.2586 -0.2912
 4614TIP3   OH235256   0.531   4.360  10.957 -0.2187  0.4524 -1.0453
 4614TIP3    H135257   0.568   4.275  10.935 -1.5698 -0.1410 -1.1010
 4614TIP3    H235258   0.469   4.379  10.886 -0.6535  1.0137 -0.5270
 4615TIP3   OH235259   0.112   0.465   0.083 -0.0278  0.0594  0.2651
 4615TIP3    H135260   0.072   0.406   0.147 -0.6531  1.0037  0.7737
 4615TIP3    H235261   0.046   0.472   0.014  1.0878 -1.8164 -1.0568
 4616TIP3   OH235262   0.470   3.367   4.565  0.4355 -0.0304  0.2944
 4616TIP3    H135263   0.548   3.422   4.560  0.0878  0.5489  1.0280
 4616TIP3    H235264   0.416   3.396   4.491 -0.6430  2.0659  1.8209
 4617TIP3   OH235265   0.636   3.187  14.015 -0.8212  0.3723  0.2477
 4617TIP3    H135266   0.604   3.277  14.026 -0.7668  0.5262 -0.7127
 4617TIP3    H235267   0.568   3.132  14.053 -0.1772  0.8609  2.2089
 4618TIP3   OH235268   5.803   4.172   1.195  0.3736 -0.3954  0.1365
 4618TIP3    H135269   5.764   4.153   1.280  1.5166 -1.7916  0.3895
 4618TIP3    H235270   5.729   4.185   1.137 -0.4481 -1.0191  1.0182
 4619TIP3   OH235271   4.133   0.743   5.313 -0.2464  0.2912  0.7007
 4619TIP3    H135272   4.050   0.725   5.357 -0.4108  1.0649  0.7113
 4619TIP3    H235273   4.200   0.711   5.374 -0.5507 -2.9778 -0.4771
 4620TIP3   OH235274   6.441   5.699  15.275 -0.2402  0.3525 -0.1085
 4620TIP3    H135275   6.488   5.667  15.198 -2.3188  2.9165 -2.6955
 4620TIP3    H235276   6.396   5.623  15.309  0.8509 -0.9103 -1.3611
 4621TIP3   OH235277   4.150   0.820  16.329 -0.1704 -0.4497  0.1434
 4621TIP3    H135278   4.234   0.815  16.375 -0.0306  1.1794  0.1348
 4621TIP3    H235279   4.173   0.817  16.236 -0.3958 -2.9998  0.1114
 4622TIP3   OH235280   4.299   4.215   4.036 -0.0394  0.4067 -0.7712
 4622TIP3    H135281   4.301   4.158   3.959 -1.9105 -1.2119  0.2878
 4622TIP3    H235282   4.370   4.184   4.092  0.1941  0.4067 -1.0687
 4623TIP3   OH235283   4.478   5.105  12.399 -0.0790  0.0396  0.1973
 4623TIP3    H135284   4.476   5.021  12.447  0.4374 -0.5838 -0.8447
 4623TIP3    H235285   4.388   5.138  12.407 -0.3266 -0.6752  0.5101
 4624TIP3   OH235286   1.808   5.541   3.506 -0.0553 -0.2083 -0.5056
 4624TIP3    H135287   1.744   5.587   3.562  0.8851  0.6349 -0.0911
 4624TIP3    H235288   1.848   5.477   3.564  1.1489  0.8818 -0.0756
 4625TIP3   OH235289   6.263   0.882  11.415 -0.0397  0.3802 -0.2260
 4625TIP3    H135290   6.259   0.854  11.507  0.4014 -0.3364 -0.4153
 4625TIP3    H235291   6.299   0.971  11.419 -1.5029  0.9837  0.3929
 4626TIP3   OH235292   3.103   3.924  16.684 -0.3147 -0.1976 -0.1080
 4626TIP3    H135293   3.185   3.876  16.677  0.8100  1.5937  0.0799
 4626TIP3    H235294   3.121   4.009  16.642 -1.6514  0.7076  1.0433
 4627TIP3   OH235295   3.920   2.859  15.639 -0.2013 -0.2156 -0.2816
 4627TIP3    H135296   3.971   2.784  15.668  1.3158  0.3211 -1.4884
 4627TIP3    H235297   3.846   2.862  15.700  1.9973 -0.0690  2.5736
 4628TIP3   OH235298   1.687   6.301   4.138 -0.0684  0.3052  0.0085
 4628TIP3    H135299   1.773   6.286   4.098 -0.1781  0.1219 -0.1604
 4628TIP3    H235300   1.630   6.319   4.063  0.0722  1.6781  0.1928
 4629TIP3   OH235301   6.724   5.126  15.937  0.0710 -0.1597  0.0206
 4629TIP3    H135302   6.788   5.122  15.866 -0.0712  1.7392 -0.2724
 4629TIP3    H235303   6.640   5.111  15.894  0.0078  0.7582 -0.1928
 4630TIP3   OH235304   0.923   4.388  15.064  0.1066  0.0491 -0.1285
 4630TIP3    H135305   0.970   4.414  14.985  0.3553  2.6501  0.7773
 4630TIP3    H235306   0.992   4.361  15.125  0.0035 -0.8262 -0.3849
 4631TIP3   OH235307   1.893   6.113   2.881 -0.5319  0.2236  0.1737
 4631TIP3    H135308   1.866   6.191   2.929 -0.1393 -0.0953  0.9231
 4631TIP3    H235309   1.988   6.110   2.890 -0.3896  0.4442 -1.0740
 4632TIP3   OH235310   3.590   3.828  12.115  0.3560 -0.2877 -0.7110
 4632TIP3    H135311   3.631   3.786  12.039  1.2717  1.2755 -1.1366
 4632TIP3    H235312   3.605   3.922  12.101  2.1072 -0.0175  2.2438
 4633TIP3   OH235313   3.609   1.148  13.815  0.0744  0.3291  0.5774
 4633TIP3    H135314   3.563   1.232  13.812 -0.3481  0.1463  1.5842
 4633TIP3    H235315   3.656   1.143  13.731 -0.5016  1.2172  0.1910
 4634TIP3   OH235316   3.779   0.684  13.802  0.0357 -0.7653  0.5404
 4634TIP3    H135317   3.727   0.762  13.823  0.5064  0.1443 -1.4335
 4634TIP3    H235318   3.785   0.685  13.706  0.9895 -2.6335  0.5448
 4635TIP3   OH235319   3.479   1.462  14.861 -0.1077  0.7341 -0.1403
 4635TIP3    H135320   3.454   1.545  14.903  0.1039  0.9637 -0.4640
 4635TIP3    H235321   3.492   1.485  14.769  1.9815  0.7753  0.1236
 4636TIP3   OH235322   4.201   2.353  16.943  0.1999 -0.3202  1.0045
 4636TIP3    H135323   4.116   2.380  16.910  0.5353 -1.6889 -1.1970
 4636TIP3    H235324   4.184   2.269  16.987  0.1676  0.2546  2.1213
 4637TIP3   OH235325   6.394   2.068  11.562  1.0010 -0.4420  0.3086
 4637TIP3    H135326   6.431   2.054  11.474  0.3859  2.0937 -0.4369
 4637TIP3    H235327   6.447   2.138  11.599 -0.5578  0.5494  0.7588
 4638TIP3   OH235328   6.526   1.814   4.850 -0.1643  0.2944  0.2057
 4638TIP3    H135329   6.466   1.886   4.870  0.3624  0.8938 -0.2992
 4638TIP3    H235330   6.584   1.809   4.926 -0.4363  0.1559  0.4040
 4639TIP3   OH235331   4.924   6.490   2.792  0.0245  0.3362 -0.1841
 4639TIP3    H135332   4.910   6.459   2.881 -0.6004 -1.1243 -0.7492
 4639TIP3    H235333   4.883   6.577   2.789 -3.1445 -1.0027  0.0561
 4640TIP3   OH235334   3.314   4.219   4.545 -0.3547 -0.0128  0.2303
 4640TIP3    H135335   3.272   4.303   4.561 -0.7307 -0.2614  0.5743
 4640TIP3    H235336   3.298   4.200   4.453  0.1506  0.5162  0.0234
 4641TIP3   OH235337   4.176   6.666  14.728  0.0437 -0.3526 -0.1662
 4641TIP3    H135338   4.232   6.610  14.675  0.8605 -0.0550  0.3644
 4641TIP3    H235339   4.202   6.648  14.818 -1.3031 -0.8231  0.1500
 4642TIP3   OH235340   0.973   5.663   2.970 -0.7789  0.1892  0.1490
 4642TIP3    H135341   0.996   5.751   2.940  0.0442  0.2367  0.8617
 4642TIP3    H235342   0.889   5.675   3.015 -1.1207  0.4408 -0.5505
 4643TIP3   OH235343   1.458   5.467   2.709  0.1800 -0.1122 -0.5649
 4643TIP3    H135344   1.498   5.553   2.698 -1.9084  1.1767  0.9109
 4643TIP3    H235345   1.531   5.409   2.730  1.8021  1.0055 -2.7477
 4644TIP3   OH235346   4.260   2.951  15.588  0.5471 -0.0720 -0.1097
 4644TIP3    H135347   4.329   2.892  15.557 -0.0325 -1.0007  0.3171
 4644TIP3    H235348   4.240   2.920  15.677  0.1474  0.7007  0.0837
 4645TIP3   OH235349   1.850   3.967  13.568 -0.0692 -0.5085  0.0582
 4645TIP3    H135350   1.759   3.938  13.568 -1.3189  2.9881 -0.7371
 4645TIP3    H235351   1.868   3.992  13.478  2.0490 -1.9440  0.0017
 4646TIP3   OH235352   0.042   1.168   4.171 -0.1081  0.1415  0.3268
 4646TIP3    H135353   0.093   1.249   4.169  1.0905 -0.5852 -0.4710
 4646TIP3    H235354  -0.040   1.190   4.128  1.2583  0.3307 -2.4399
 4647TIP3   OH235355   3.805   2.789   0.822  0.0683 -0.2899 -0.3435
 4647TIP3    H135356   3.711   2.778   0.806 -0.0266 -1.2168  0.7034
 4647TIP3    H235357   3.827   2.720   0.885  0.8937  1.5186  1.4764
 4648TIP3   OH235358   5.799   0.782  13.910 -0.0293  0.7723 -0.0795
 4648TIP3    H135359   5.738   0.802  13.840 -0.9829  0.7922  0.7341
 4648TIP3    H235360   5.761   0.823  13.988  0.0639 -0.7107  0.8017
 4649TIP3   OH235361   4.005   5.383   4.188 -0.2538  0.0831 -0.0023
 4649TIP3    H135362   4.024   5.375   4.094 -0.9297  0.7742 -0.2051
 4649TIP3    H235363   3.965   5.469   4.197  2.0667  1.1193  1.3167
 4650TIP3   OH235364   2.826   4.534   0.246  0.8161 -0.2138  0.7449
 4650TIP3    H135365   2.901   4.593   0.255  0.5486  0.4174 -0.8149
 4650TIP3    H235366   2.752   4.584   0.281  0.6118  0.3737 -0.4663
 4651TIP3   OH235367   4.741   0.568  11.932  0.3893  0.2731  0.4681
 4651TIP3    H135368   4.767   0.641  11.875  2.4971 -0.9098 -0.1898
 4651TIP3    H235369   4.650   0.587  11.954 -0.5970  0.8294 -3.2864
 4652TIP3   OH235370   1.110   4.329  13.906  0.1177 -0.3842  0.4262
 4652TIP3    H135371   1.027   4.366  13.874 -0.1018 -0.8428  0.4474
 4652TIP3    H235372   1.164   4.405  13.927  0.3098 -0.0530 -1.1338
 4653TIP3   OH235373   2.074   6.436  13.065  0.3195  0.4494 -0.1569
 4653TIP3    H135374   2.133   6.426  13.140  0.6226  0.6111 -0.3731
 4653TIP3    H235375   2.075   6.350  13.022  0.1130  0.3436  0.0445
 4654TIP3   OH235376   2.969   6.007  11.787 -0.1673  0.2817  0.3882
 4654TIP3    H135377   3.005   6.096  11.783  0.4920  0.0221  0.4162
 4654TIP3    H235378   2.896   6.013  11.849 -0.1295  0.8018  0.3869
 4655TIP3   OH235379   0.243   5.563   2.799 -0.2915  0.0542  0.0638
 4655TIP3    H135380   0.171   5.570   2.862 -1.1114  0.6149 -0.8973
 4655TIP3    H235381   0.274   5.473   2.807 -1.8803 -0.5664 -0.2937
 4656TIP3   OH235382   6.527   5.870   5.991  0.2085 -0.2522  0.1677
 4656TIP3    H135383   6.522   5.888   6.085 -0.6749  1.0764 -0.0977
 4656TIP3    H235384   6.444   5.827   5.970  1.1638 -2.2663  0.2833
 4657TIP3   OH235385   3.149   6.463  14.159 -0.2951 -0.2868  0.2431
 4657TIP3    H135386   3.126   6.556  14.157 -1.4629 -0.4812  2.1270
 4657TIP3    H235387   3.202   6.452  14.238 -0.7794 -1.3387  0.4462
 4658TIP3   OH235388   0.561   4.912   5.769 -0.3355  0.1004 -0.3401
 4658TIP3    H135389   0.476   4.955   5.769  0.4388  1.7245 -0.9309
 4658TIP3    H235390   0.582   4.901   5.862 -1.0345  0.0234 -0.1900
 4659TIP3   OH235391   1.706   3.528   1.133 -0.2928  0.1291 -0.0843
 4659TIP3    H135392   1.657   3.568   1.205 -0.9222  1.0632 -1.0083
 4659TIP3    H235393   1.639   3.486   1.079  0.1496 -0.3196 -0.2950
 4660TIP3   OH235394   1.733   0.279  13.939  0.3863  0.3326 -0.2030
 4660TIP3    H135395   1.736   0.226  14.018 -0.3458  0.8600  0.1889
 4660TIP3    H235396   1.824   0.281  13.908  0.8654  0.9208  1.1635
 4661TIP3   OH235397   2.813   1.920   0.095  0.2921  0.2301  1.1289
 4661TIP3    H135398   2.808   2.013   0.070 -2.1398  0.1340  1.0137
 4661TIP3    H235399   2.814   1.873   0.012  2.2444  0.1204  1.1731
 4662TIP3   OH235400   0.505   6.265   3.086 -0.3311  0.0985  0.6709
 4662TIP3    H135401   0.568   6.291   3.018  0.5163 -3.9613 -0.3192
 4662TIP3    H235402   0.420   6.291   3.050  0.3682  1.2504 -0.2343
 4663TIP3   OH235403   4.729   2.804  12.873 -0.2663 -0.4878 -0.2366
 4663TIP3    H135404   4.642   2.806  12.833  1.2350 -0.3977 -3.8857
 4663TIP3    H235405   4.768   2.722  12.843  0.2951 -1.5943  3.0719
 4664TIP3   OH235406   3.932   3.173   0.039  0.7686 -0.7872 -0.3720
 4664TIP3    H135407   3.904   3.248  -0.015  0.3677 -0.9817 -0.4369
 4664TIP3    H235408   4.027   3.184   0.046  0.7742 -0.5240 -0.7670
 4665TIP3   OH235409   1.840   1.795  13.957  0.4089  0.0798  0.0332
 4665TIP3    H135410   1.805   1.785  13.868 -2.0044 -0.0940  0.9162
 4665TIP3    H235411   1.911   1.730  13.962 -1.0837 -1.7395 -1.0029
 4666TIP3   OH235412   4.273   3.919  16.664  0.2090 -0.4093  0.1191
 4666TIP3    H135413   4.205   3.900  16.729 -0.4505 -0.6594 -0.6238
 4666TIP3    H235414   4.256   3.857  16.593  2.8698 -2.4012  1.0431
 4667TIP3   OH235415   4.116   0.404  16.263 -0.1978 -0.2595 -0.3243
 4667TIP3    H135416   4.145   0.410  16.173 -1.0885  0.7732 -0.5670
 4667TIP3    H235417   4.150   0.320  16.294  1.1116 -0.0981 -1.2424
 4668TIP3   OH235418   3.256   5.684   3.911 -0.1573  0.7890  0.1370
 4668TIP3    H135419   3.312   5.666   3.986 -0.1153  0.9529  0.1451
 4668TIP3    H235420   3.178   5.630   3.926 -0.2118  0.9310  0.3729
 4669TIP3   OH235421   3.050   0.941   3.150 -0.2740 -0.6860  0.1034
 4669TIP3    H135422   2.982   0.944   3.082 -0.9984 -0.9918  0.7957
 4669TIP3    H235423   3.005   0.906   3.227  0.1087  1.1905  1.2332
 4670TIP3   OH235424   5.179   2.307  14.727 -0.8704  0.2252  0.3828
 4670TIP3    H135425   5.139   2.221  14.743 -1.5122  0.5192  0.3728
 4670TIP3    H235426   5.171   2.320  14.632  1.0346 -0.5782  0.0524
 4671TIP3   OH235427   1.789   3.238  15.877 -0.1826 -0.5868 -0.1375
 4671TIP3    H135428   1.808   3.331  15.888  3.2098 -1.2354  0.9560
 4671TIP3    H235429   1.800   3.202  15.965 -0.0774 -2.1970 -0.7827
 4672TIP3   OH235430   0.880   2.720   3.181  0.0370  0.4486 -0.5677
 4672TIP3    H135431   0.793   2.693   3.153 -0.3072  1.2997 -0.3305
 4672TIP3    H235432   0.865   2.778   3.255  0.7962  0.7804 -0.6617
 4673TIP3   OH235433   4.033   1.597  11.900  0.0999 -0.7005 -0.0247
 4673TIP3    H135434   4.040   1.502  11.911  0.9448 -0.6596 -0.1506
 4673TIP3    H235435   4.069   1.614  11.813  1.1319 -0.1334  0.4941
 4674TIP3   OH235436   4.474   5.889   1.255  0.1915  0.4159 -0.4249
 4674TIP3    H135437   4.475   5.875   1.161 -0.1014 -1.1724 -0.2105
 4674TIP3    H235438   4.551   5.944   1.272  1.2790 -0.7801 -1.3701
 4675TIP3   OH235439   6.031   0.317   3.218 -0.1950 -0.2316  0.4867
 4675TIP3    H135440   6.123   0.343   3.219 -0.0424 -0.7669  1.3503
 4675TIP3    H235441   6.020   0.269   3.136  0.2503 -0.0428  0.3105
 4676TIP3   OH235442   1.017   2.154  16.958 -0.0056  0.2292 -0.5713
 4676TIP3    H135443   1.078   2.140  16.886  0.1745  1.9394 -0.7990
 4676TIP3    H235444   0.970   2.235  16.934 -1.6351 -0.4762  0.0886
 4677TIP3   OH235445   4.485   3.614   2.647  0.2120  0.3312 -0.1272
 4677TIP3    H135446   4.495   3.586   2.556 -0.1261 -2.1805  0.5357
 4677TIP3    H235447   4.391   3.627   2.658  0.2403  0.5194 -0.0942
 4678TIP3   OH235448   1.511   2.612  16.149  0.2983 -0.1754  0.4926
 4678TIP3    H135449   1.533   2.620  16.242 -1.1130 -0.6963  0.8986
 4678TIP3    H235450   1.480   2.523  16.140 -0.0280  0.0237 -0.3896
 4679TIP3   OH235451   6.616   5.137   4.447  0.0068 -0.3954  0.3094
 4679TIP3    H135452   6.608   5.228   4.476  1.9322  0.1430 -0.7408
 4679TIP3    H235453   6.563   5.133   4.368  2.0492  0.5944 -1.1918
 4680TIP3   OH235454   0.089   4.389  13.210 -0.1936 -0.0477 -0.4306
 4680TIP3    H135455   0.012   4.445  13.197  0.4202  1.0920  0.6119
 4680TIP3    H235456   0.089   4.370  13.304  0.2904 -0.8009 -0.5806
 4681TIP3   OH235457   4.003   6.295  16.595  0.1778 -0.3933 -0.0597
 4681TIP3    H135458   3.946   6.258  16.528  0.0882 -0.3245 -0.0216
 4681TIP3    H235459   3.977   6.251  16.676 -1.7530  1.6123  0.4890
 4682TIP3   OH235460   2.902   5.059   0.559  0.3165  0.0970 -0.2529
 4682TIP3    H135461   2.825   5.077   0.504  0.0778 -0.6207 -0.1609
 4682TIP3    H235462   2.976   5.089   0.506  0.3116 -2.6226 -2.0044
 4683TIP3   OH235463   3.660   6.552  12.855  0.2081 -0.2161  0.3321
 4683TIP3    H135464   3.733   6.525  12.910  0.8695  0.0810 -0.3808
 4683TIP3    H235465   3.584   6.550  12.913  0.5940 -1.5457  0.8255
 4684TIP3   OH235466   4.529   6.293   1.734  0.8653  0.0442  0.0180
 4684TIP3    H135467   4.477   6.270   1.811  1.0597  2.1050  0.8378
 4684TIP3    H235468   4.475   6.267   1.660 -1.7505  2.5982  0.7999
 4685TIP3   OH235469   1.388   4.434   2.832 -0.4285 -0.0251  0.0725
 4685TIP3    H135470   1.390   4.390   2.918  0.6954 -2.0464 -0.8983
 4685TIP3    H235471   1.433   4.373   2.774 -1.2405  1.2572 -1.9975
 4686TIP3   OH235472   4.349   2.690   0.953 -0.4203  0.3029  0.3540
 4686TIP3    H135473   4.363   2.625   1.021  2.5678 -0.2539 -0.6660
 4686TIP3    H235474   4.431   2.738   0.947  0.3072 -1.0211 -4.1448
 4687TIP3   OH235475   3.858   5.896  17.222 -0.0932 -0.1718  0.2425
 4687TIP3    H135476   3.857   5.985  17.256 -1.7620  0.0052 -0.1796
 4687TIP3    H235477   3.796   5.848  17.277  0.3329 -0.9162  0.0841
 4688TIP3   OH235478   2.959   0.401   0.018 -0.7865  0.3573 -0.2366
 4688TIP3    H135479   2.879   0.413   0.070 -0.3351  0.3164  0.4806
 4688TIP3    H235480   2.986   0.490  -0.006 -0.4349  0.4502  0.4751
 4689TIP3   OH235481   0.306   0.762  12.123 -0.1303 -0.0117  0.3136
 4689TIP3    H135482   0.332   0.829  12.059  1.0684 -0.2175  0.5619
 4689TIP3    H235483   0.382   0.704  12.128 -1.2131 -1.5025 -0.0304
 4690TIP3   OH235484   1.398   1.066   2.368 -0.0975  0.2312 -0.7384
 4690TIP3    H135485   1.304   1.050   2.360 -0.7463  0.8447  3.3491
 4690TIP3    H235486   1.409   1.094   2.459  4.2338 -0.9562 -0.7161
 4691TIP3   OH235487   6.370   1.796   5.942 -0.5823  0.0869  0.2189
 4691TIP3    H135488   6.353   1.850   6.019  0.6375  0.5605  0.1686
 4691TIP3    H235489   6.464   1.781   5.943 -0.5154  0.2506 -1.2822
 4692TIP3   OH235490   5.256   1.735   2.745  0.0678  0.6874  0.5683
 4692TIP3    H135491   5.246   1.813   2.801 -0.4697  0.6583  0.5196
 4692TIP3    H235492   5.211   1.758   2.664 -1.0046 -0.0422  0.9251
 4693TIP3   OH235493   0.839   0.500   5.444 -0.0506  0.1841  0.0319
 4693TIP3    H135494   0.760   0.533   5.400  0.0759  0.9505  0.3721
 4693TIP3    H235495   0.835   0.536   5.532  2.1214  2.7230 -0.7479
 4694TIP3   OH235496   4.201   5.995   0.536  0.2157 -1.1708  0.0023
 4694TIP3    H135497   4.122   6.048   0.545  0.0816 -1.2212 -0.8043
 4694TIP3    H235498   4.234   6.017   0.449  0.8519 -1.4760  0.1655
 4695TIP3   OH235499   6.032   4.659  14.404  0.0293 -0.3000 -0.0231
 4695TIP3    H135500   5.971   4.599  14.447 -0.0720  0.2760  0.6585
 4695TIP3    H235501   6.026   4.636  14.312 -0.4987 -0.8985  0.1442
 4696TIP3   OH235502   4.459   3.310   6.256 -0.2486 -0.0799 -0.6000
 4696TIP3    H135503   4.430   3.400   6.264 -0.2759  0.0765 -2.1395
 4696TIP3    H235504   4.550   3.311   6.287 -0.7705  0.1005  1.0181
 4697TIP3   OH235505   4.924   0.632   1.324 -0.0326 -0.4175 -0.0546
 4697TIP3    H135506   4.871   0.692   1.376 -0.7036 -0.1064 -1.0701
 4697TIP3    H235507   5.013   0.668   1.329  0.1386 -0.9899  1.7214
 4698TIP3   OH235508   4.424   1.828   5.474  0.5117 -0.1841 -0.0132
 4698TIP3    H135509   4.476   1.875   5.539 -0.0134  0.3880 -0.0039
 4698TIP3    H235510   4.468   1.743   5.466  1.8581  0.5306 -0.5144
 4699TIP3   OH235511   2.637   5.967   6.034  0.7699  0.4907  0.2009
 4699TIP3    H135512   2.713   5.955   6.091  1.1551 -0.3121 -0.4614
 4699TIP3    H235513   2.566   5.993   6.093  1.1093 -0.5407  1.0804
 4700TIP3   OH235514   5.633   5.356  11.422 -0.4706  0.0237  0.3977
 4700TIP3    H135515   5.574   5.432  11.418  1.8758  2.0095  1.3276
 4700TIP3    H235516   5.599   5.304  11.495 -0.1822  2.0270  2.0665
 4701TIP3   OH235517   2.915   0.053  14.270 -0.1478  0.3405 -0.3853
 4701TIP3    H135518   2.919   0.058  14.175  0.3598  0.2131 -0.3739
 4701TIP3    H235519   2.996   0.010  14.295 -0.6212 -0.3026  0.0630
 4702TIP3   OH235520   1.955   2.814   3.170 -0.0166 -0.1760  0.1026
 4702TIP3    H135521   2.038   2.863   3.166 -0.2819  0.5071  2.0177
 4702TIP3    H235522   1.981   2.726   3.197  0.0206  0.3664  1.9612
 4703TIP3   OH235523   6.143   0.807  17.258  0.3497 -0.3232  0.2297
 4703TIP3    H135524   6.147   0.847  17.344 -1.0280 -0.2874  0.3083
 4703TIP3    H235525   6.137   0.881  17.197  0.1322 -0.3685  0.1955
 4704TIP3   OH235526   3.228   5.114  13.727  0.0023  0.3111 -0.4375
 4704TIP3    H135527   3.186   5.156  13.653  1.9687 -1.0692 -2.4729
 4704TIP3    H235528   3.157   5.095  13.788 -1.8268  0.7558 -2.3372
 4705TIP3   OH235529   2.235   0.889   6.174  0.0697  0.2347  0.2920
 4705TIP3    H135530   2.270   0.915   6.259  0.3859 -1.1415  0.6084
 4705TIP3    H235531   2.156   0.840   6.194  1.3906 -2.1593 -0.0070
 4706TIP3   OH235532   5.006   1.910  11.954 -0.1054  0.1505  0.3884
 4706TIP3    H135533   5.053   1.959  11.886  0.3102  1.5454  1.6329
 4706TIP3    H235534   5.068   1.905  12.027 -0.6354 -1.1132  0.7771
 4707TIP3   OH235535   3.338   3.992   4.298  0.2656  0.4927  0.4433
 4707TIP3    H135536   3.387   3.971   4.378  0.9572 -0.6359 -0.2490
 4707TIP3    H235537   3.259   3.937   4.304 -0.5985  1.7561  1.1969
 4708TIP3   OH235538   2.849   0.238  14.477 -0.2580  0.5292 -0.3657
 4708TIP3    H135539   2.816   0.304  14.416 -0.2815  0.5356 -0.3460
 4708TIP3    H235540   2.821   0.154  14.440  1.7651  0.3385 -1.6652
 4709TIP3   OH235541   6.082   3.546   0.613 -0.8164 -0.2905 -0.6180
 4709TIP3    H135542   5.990   3.568   0.622 -1.0361 -0.7730 -1.5286
 4709TIP3    H235543   6.124   3.626   0.583 -0.7609  0.1959  0.7031
 4710TIP3   OH235544   5.814   3.502  15.386  0.4347  0.0922  0.4468
 4710TIP3    H135545   5.739   3.540  15.432 -0.6975 -1.7972  0.2417
 4710TIP3    H235546   5.785   3.494  15.295  1.5469  0.9503 -0.0069
 4711TIP3   OH235547   3.423   5.896   4.328 -0.3139  0.0860  0.7897
 4711TIP3    H135548   3.512   5.860   4.334 -0.8626 -1.2400  1.3994
 4711TIP3    H235549   3.391   5.893   4.418  0.2225  3.8988  1.2656
 4712TIP3   OH235550   5.583   2.608  14.790 -0.3394 -0.0381 -0.1949
 4712TIP3    H135551   5.508   2.654  14.829  0.8543  0.8433  1.1400
 4712TIP3    H235552   5.605   2.539  14.853  0.6751  0.4423 -0.0102
 4713TIP3   OH235553   4.408   6.180  17.178  0.0416  0.6960 -0.1646
 4713TIP3    H135554   4.460   6.227  17.114 -1.9330  0.6567 -1.8945
 4713TIP3    H235555   4.372   6.248  17.235  0.2742  0.9000 -0.2587
 4714TIP3   OH235556   2.720   3.663   5.561 -0.0132 -0.1028 -0.2663
 4714TIP3    H135557   2.671   3.595   5.514  1.0719  0.0637 -1.7170
 4714TIP3    H235558   2.792   3.615   5.603  0.4968  0.0626 -0.9271
 4715TIP3   OH235559   1.523   6.049   2.680  0.8376  0.6044 -0.1466
 4715TIP3    H135560   1.525   6.078   2.771  0.0393  0.6280 -0.1282
 4715TIP3    H235561   1.549   6.126   2.629 -2.1104  1.7319 -0.1648
 4716TIP3   OH235562   3.528   1.701  12.976 -0.4493 -0.2085  0.3206
 4716TIP3    H135563   3.545   1.642  12.903  0.4636 -1.0131  1.1502
 4716TIP3    H235564   3.607   1.754  12.984 -1.0832  0.8338 -0.1234
 4717TIP3   OH235565   0.837   6.703  17.013 -0.4806  0.0325  0.8264
 4717TIP3    H135566   0.890   6.781  16.992  0.2933 -0.4094  1.1106
 4717TIP3    H235567   0.881   6.663  17.088 -1.4188 -0.1647  1.2916
 4718TIP3   OH235568   2.280   4.953  15.892 -0.1336 -0.4411 -0.1707
 4718TIP3    H135569   2.317   4.909  15.815 -0.9613 -1.5274  0.0327
 4718TIP3    H235570   2.346   4.940  15.961 -1.0642 -2.9463  0.3778
 4719TIP3   OH235571   5.751   3.021  13.659  0.3415  0.4256  0.1331
 4719TIP3    H135572   5.761   2.970  13.739 -0.5790 -0.2271 -0.1435
 4719TIP3    H235573   5.656   3.030  13.648  0.3094 -1.6761 -2.1899
 4720TIP3   OH235574   3.400   0.652   4.545 -0.4056 -0.0592  0.0802
 4720TIP3    H135575   3.306   0.652   4.563 -0.6956 -2.6316 -0.9205
 4720TIP3    H235576   3.435   0.581   4.599  0.6521 -0.2694 -0.8384
 4721TIP3   OH235577   6.179   0.841  15.576 -0.5474  0.3083 -0.1381
 4721TIP3    H135578   6.185   0.757  15.531 -1.5081  0.3031 -0.2758
 4721TIP3    H235579   6.259   0.888  15.550 -0.0223 -0.5365 -0.0876
 4722TIP3   OH235580   3.023   4.607   6.020  0.2180  0.5357 -0.1326
 4722TIP3    H135581   2.978   4.523   6.022  1.0932  0.0615  0.7447
 4722TIP3    H235582   3.110   4.587   5.986  1.6161  0.3978  3.1043
 4723TIP3   OH235583   5.140   2.873  13.231  0.2573 -0.5204 -0.1080
 4723TIP3    H135584   5.062   2.895  13.180 -1.2150 -1.3180  1.6548
 4723TIP3    H235585   5.140   2.777  13.234 -0.0849 -0.5007  1.8516
 4724TIP3   OH235586   0.002   0.036   4.609 -0.7285  0.3501  0.2435
 4724TIP3    H135587  -0.023  -0.021   4.682  1.4124 -2.1341 -0.8014
 4724TIP3    H235588   0.087   0.070   4.634 -0.9885  1.3156 -0.1555
 4725TIP3   OH235589   3.672   3.596  13.934  0.2226  0.1145  0.2344
 4725TIP3    H135590   3.630   3.525  13.983 -3.2827 -1.1969 -4.0176
 4725TIP3    H235591   3.626   3.675  13.963 -1.9870 -0.6689 -0.8552
 4726TIP3   OH235592   2.747   0.562  11.859 -0.2049  0.0814  0.4647
 4726TIP3    H135593   2.696   0.514  11.926  0.2231  1.0618  1.5144
 4726TIP3    H235594   2.680   0.601  11.802 -0.6061  0.1986  1.0061
 4727TIP3   OH235595   2.818   2.445   0.876  0.1283  0.8614 -0.2212
 4727TIP3    H135596   2.723   2.452   0.869  0.1531  1.3676 -0.1188
 4727TIP3    H235597   2.837   2.468   0.967  0.1555 -1.5173  0.4579
 4728TIP3   OH235598   1.667   6.193  15.923 -0.0289 -0.5215  0.1412
 4728TIP3    H135599   1.572   6.203  15.917 -0.0338 -0.5262  0.2158
 4728TIP3    H235600   1.685   6.186  16.017 -0.0556 -1.4542  0.0899
 4729TIP3   OH235601   0.798   2.125  11.719  0.3756  0.4836  0.0752
 4729TIP3    H135602   0.873   2.162  11.674  0.7998  0.3048  0.6161
 4729TIP3    H235603   0.783   2.041  11.676  0.4999  0.5107 -0.0209
 4730TIP3   OH235604   5.628   6.697  13.821  0.0287 -0.1490 -0.3141
 4730TIP3    H135605   5.581   6.617  13.799 -3.5328  1.3561  1.0292
 4730TIP3    H235606   5.594   6.762  13.759  2.7726  0.4457 -1.3196
 4731TIP3   OH235607   6.067   1.107  16.804  0.2613 -0.1254  0.2433
 4731TIP3    H135608   6.019   1.180  16.766  0.1917 -0.2774  0.0340
 4731TIP3    H235609   6.159   1.123  16.780  0.2246 -0.1917  0.0580
 4732TIP3   OH235610   3.944   0.433  16.805  0.1156  0.4925 -0.4215
 4732TIP3    H135611   3.975   0.523  16.803  3.4623 -0.5147  0.3099
 4732TIP3    H235612   3.992   0.389  16.736  0.3083 -1.2024  0.7205
 4733TIP3   OH235613   5.891   3.211  16.936 -0.1306  0.3976 -0.3232
 4733TIP3    H135614   5.905   3.285  16.878 -0.6227 -0.7036 -1.9275
 4733TIP3    H235615   5.976   3.168  16.942  0.0714  0.8792  0.3158
 4734TIP3   OH235616   3.501   4.898   5.824 -0.3574  0.3100 -0.0500
 4734TIP3    H135617   3.567   4.836   5.856  0.0318  0.7107 -0.0615
 4734TIP3    H235618   3.494   4.879   5.730  0.1054  0.5935 -0.1447
 4735TIP3   OH235619   4.075   4.172   4.214  0.2939 -0.0912 -0.1464
 4735TIP3    H135620   4.098   4.215   4.296  1.0664 -0.4229 -0.1737
 4735TIP3    H235621   4.150   4.190   4.156 -0.7878  1.2076 -1.2155
 4736TIP3   OH235622   0.225   6.515   0.172 -0.1699  0.5359 -0.1986
 4736TIP3    H135623   0.156   6.568   0.213 -0.1063  1.1812 -0.9053
 4736TIP3    H235624   0.305   6.540   0.219  0.1254  2.2122 -1.4668
 4737TIP3   OH235625   1.024   0.158   5.601 -0.2088  0.7384  0.0350
 4737TIP3    H135626   1.089   0.130   5.665 -0.2364  1.5265  0.4150
 4737TIP3    H235627   0.981   0.232   5.642 -1.2572  0.3170 -0.2723
 4738TIP3   OH235628   4.977   2.162   5.100  0.1168  0.0121  0.2680
 4738TIP3    H135629   4.918   2.177   5.175 -1.6058  0.0586 -1.0440
 4738TIP3    H235630   5.000   2.250   5.071 -0.2527  0.0116 -0.0327
 4739TIP3   OH235631   2.797   6.421   5.933  0.1723  0.4472 -0.0840
 4739TIP3    H135632   2.883   6.399   5.969 -0.7482 -1.3125  1.1810
 4739TIP3    H235633   2.742   6.437   6.010 -1.2748 -1.1221 -0.7183
 4740TIP3   OH235634   5.891   4.337  13.842  0.3589  0.2877  0.5428
 4740TIP3    H135635   5.926   4.248  13.841 -0.1943  0.0351 -1.2176
 4740TIP3    H235636   5.830   4.339  13.767  1.0555  2.4009 -0.0399
 4741TIP3   OH235637   0.304   1.915   1.177  0.2394 -0.2683  0.0183
 4741TIP3    H135638   0.239   1.960   1.124  2.1130  1.4022 -0.9566
 4741TIP3    H235639   0.289   1.822   1.159 -2.3020 -0.0036  0.3999
 4742TIP3   OH235640   6.689   5.147  11.862  0.0543 -0.6885 -0.5602
 4742TIP3    H135641   6.684   5.178  11.953  0.6633  1.1103 -1.1058
 4742TIP3    H235642   6.629   5.072  11.859  0.3678 -1.0749  1.4216
 4743TIP3   OH235643   0.106   4.874  12.312  0.3047 -0.0643  0.4047
 4743TIP3    H135644   0.103   4.822  12.232  0.6847 -0.8712  0.9033
 4743TIP3    H235645   0.195   4.864  12.345  1.1658  2.8463 -0.7285
 4744TIP3   OH235646   1.848   5.448  13.763  0.1241  0.3038 -0.1765
 4744TIP3    H135647   1.789   5.390  13.811 -0.4811 -0.6263 -1.9755
 4744TIP3    H235648   1.923   5.393  13.740  0.1423  0.5676 -0.7689
 4745TIP3   OH235649   1.237   0.455   3.212 -0.1129 -0.9817 -0.5447
 4745TIP3    H135650   1.270   0.469   3.123 -0.3750 -1.3359 -0.6988
 4745TIP3    H235651   1.154   0.504   3.215  0.2667 -0.3382 -0.2507
 4746TIP3   OH235652   2.417   6.676  13.133  0.3004 -0.1377 -0.4286
 4746TIP3    H135653   2.483   6.739  13.104  1.2218 -0.9061 -0.0613
 4746TIP3    H235654   2.409   6.615  13.060 -0.7463  0.4930 -0.8699
 4747TIP3   OH235655   0.449   3.738  11.103 -0.0644 -0.2659 -0.3498
 4747TIP3    H135656   0.406   3.779  11.028  0.5802  0.5090 -0.3114
 4747TIP3    H235657   0.468   3.649  11.073 -0.8775 -0.3405 -0.6801
 4748TIP3   OH235658   5.492   6.665   1.187  0.3282  0.4813 -0.6672
 4748TIP3    H135659   5.578   6.641   1.152 -0.0927 -0.3745 -1.1524
 4748TIP3    H235660   5.489   6.623   1.273 -0.9680 -2.6443 -2.0822
 4749TIP3   OH235661   0.488   0.023   4.138 -0.0370  0.4921 -0.7916
 4749TIP3    H135662   0.514  -0.035   4.210 -1.1700 -1.6298 -1.9543
 4749TIP3    H235663   0.566   0.032   4.084  0.1513 -0.0082 -0.6054
 4750TIP3   OH235664   5.606   6.368   3.979 -0.0739 -0.0009  0.0785
 4750TIP3    H135665   5.533   6.391   3.922  1.0309  0.8631 -1.0624
 4750TIP3    H235666   5.597   6.274   3.995 -1.0990 -0.0088 -0.5194
 4751TIP3   OH235667   0.244   2.197  12.079 -0.2563 -0.7560  0.3525
 4751TIP3    H135668   0.228   2.158  12.165 -0.1694 -2.4841 -0.3878
 4751TIP3    H235669   0.248   2.123  12.019 -0.6407  0.4446 -1.2107
 4752TIP3   OH235670   4.086   5.058  12.555 -0.2285  0.3582 -0.5403
 4752TIP3    H135671   4.131   5.025  12.477 -0.6682 -0.9310 -0.2650
 4752TIP3    H235672   4.069   5.150  12.535 -1.7686 -0.3117 -2.6495
 4753TIP3   OH235673   0.868   3.224   1.848  0.1901  0.0169 -0.7181
 4753TIP3    H135674   0.801   3.292   1.849  0.5426  0.3646 -0.7609
 4753TIP3    H235675   0.821   3.145   1.821 -0.0149  0.4633 -1.6850
 4754TIP3   OH235676   1.739   1.804  16.933  0.3788  0.2426 -0.1163
 4754TIP3    H135677   1.786   1.884  16.957  0.9049 -0.0113 -0.2945
 4754TIP3    H235678   1.803   1.753  16.884 -0.4778  0.4757 -1.5370
 4755TIP3   OH235679   1.122   3.848  15.088 -0.2984  0.2842 -0.6612
 4755TIP3    H135680   1.128   3.829  15.182 -0.5426  0.0690 -0.6889
 4755TIP3    H235681   1.173   3.779  15.046  0.2520  0.6800 -0.6588
 4756TIP3   OH235682   4.788   4.470  13.391 -0.7229  0.3216  0.0373
 4756TIP3    H135683   4.802   4.397  13.451  0.0651 -0.8179 -1.4423
 4756TIP3    H235684   4.811   4.434  13.305 -3.1182  1.4636 -1.1666
 4757TIP3   OH235685   0.803   3.940   5.522  0.5159  0.5092  0.2529
 4757TIP3    H135686   0.827   4.013   5.579 -0.4090  0.2387  1.0227
 4757TIP3    H235687   0.782   3.868   5.583 -3.0845  0.9876 -0.2248
 4758TIP3   OH235688   6.345   3.067   3.719  0.1635  0.6087 -0.0318
 4758TIP3    H135689   6.321   3.139   3.661 -0.3175  1.0159  0.6491
 4758TIP3    H235690   6.262   3.024   3.740  0.4691 -0.2649 -0.5730
 4759TIP3   OH235691   2.158   6.450  13.549  0.1681 -0.4242  0.4630
 4759TIP3    H135692   2.092   6.480  13.488 -0.4004  1.3461  1.8781
 4759TIP3    H235693   2.240   6.454  13.500 -0.4228 -0.2142 -0.5244
 4760TIP3   OH235694   4.913   4.891   5.861  0.0644 -0.0616  0.2919
 4760TIP3    H135695   4.944   4.968   5.814  0.6148 -0.3222  0.2286
 4760TIP3    H235696   4.844   4.925   5.918  1.6741  0.8689  1.7874
 4761TIP3   OH235697   2.827   6.503   2.675  0.0959 -0.0662 -0.5560
 4761TIP3    H135698   2.822   6.429   2.736  0.0949 -0.8217 -1.4576
 4761TIP3    H235699   2.919   6.528   2.674  0.2386 -0.5976 -0.8780
 4762TIP3   OH235700   4.974   3.533   2.005  0.4386 -0.0661  0.2904
 4762TIP3    H135701   4.975   3.532   1.910  1.4318  0.4027  0.2797
 4762TIP3    H235702   4.887   3.564   2.029  0.0093 -0.6869 -0.4506
 4763TIP3   OH235703   5.771   3.363   2.790 -0.1857 -0.2855  0.0086
 4763TIP3    H135704   5.740   3.385   2.878  0.4657  1.1808 -0.0917
 4763TIP3    H235705   5.865   3.347   2.801  0.3851  2.1748 -0.7180
 4764TIP3   OH235706   3.702   1.247  11.450  0.9114 -0.3793 -0.4269
 4764TIP3    H135707   3.769   1.262  11.384  2.0616 -1.9237  0.3333
 4764TIP3    H235708   3.743   1.188  11.514 -0.7398 -0.3441  0.7394
 4765TIP3   OH235709   4.275   1.597  12.238 -0.1689  0.2591 -0.6050
 4765TIP3    H135710   4.208   1.647  12.191 -2.1007 -0.5387  1.1356
 4765TIP3    H235711   4.262   1.507  12.211 -2.3278 -0.4589  2.3523
 4766TIP3   OH235712   1.126   1.628   0.595  0.1669 -0.2886 -0.1934
 4766TIP3    H135713   1.054   1.683   0.565 -2.2511 -1.5908  2.6591
 4766TIP3    H235714   1.083   1.557   0.643  3.3531 -0.3345  3.0087
 4767TIP3   OH235715   5.834   0.735   3.828  0.7647  0.0391 -0.4155
 4767TIP3    H135716   5.787   0.660   3.792 -1.3835  0.4915  1.2514
 4767TIP3    H235717   5.899   0.757   3.760  0.0789 -2.0099 -1.8366
 4768TIP3   OH235718   2.089   4.999   4.168  0.5117  0.0972 -0.0422
 4768TIP3    H135719   2.181   4.983   4.148  1.1730  1.2204  1.8200
 4768TIP3    H235720   2.082   5.094   4.175 -0.2119 -0.0519  2.1099
 4769TIP3   OH235721   3.526   3.778  12.954 -0.3142 -0.1271  0.6405
 4769TIP3    H135722   3.531   3.839  12.880 -1.6105 -1.0158 -0.2297
 4769TIP3    H235723   3.514   3.834  13.030  0.0260  0.7692  0.0520
 4770TIP3   OH235724   2.280   6.394  12.268  0.0576  0.4140 -0.3399
 4770TIP3    H135725   2.375   6.403  12.261  0.5627 -3.8698 -3.0592
 4770TIP3    H235726   2.265   6.367  12.358  1.4936  0.5938 -0.0210
 4771TIP3   OH235727   5.590   4.764   2.438 -0.2910  0.2360 -0.7742
 4771TIP3    H135728   5.679   4.736   2.456 -0.1059  1.4594  0.4273
 4771TIP3    H235729   5.535   4.703   2.487  0.0264  0.8340  0.3817
 4772TIP3   OH235730   6.360   1.006   5.323 -0.0467 -0.3938  0.1099
 4772TIP3    H135731   6.353   1.081   5.263 -2.8956 -0.6037  0.0521
 4772TIP3    H235732   6.398   1.043   5.402  1.1864  0.4872 -0.8551
 4773TIP3   OH235733   2.235   4.646   2.755 -0.1050 -0.1140  0.1026
 4773TIP3    H135734   2.154   4.673   2.713  0.4740  0.4464 -0.6885
 4773TIP3    H235735   2.295   4.719   2.741  1.2521 -1.4317 -1.3805
 4774TIP3   OH235736   2.311   5.639   0.378 -0.5322 -0.3450  0.6537
 4774TIP3    H135737   2.397   5.618   0.343  0.6144  0.4611  2.8097
 4774TIP3    H235738   2.303   5.734   0.368  0.1411  0.0344  3.0241
 4775TIP3   OH235739   6.194   4.595   5.866 -0.0706  0.8154  0.2864
 4775TIP3    H135740   6.135   4.538   5.916  0.6970  1.6704  2.2837
 4775TIP3    H235741   6.237   4.536   5.803  0.2557 -0.7067  1.8583
 4776TIP3   OH235742   0.914   5.276   0.676 -0.2262 -0.1786  0.7137
 4776TIP3    H135743   0.921   5.199   0.732  1.5188 -1.2057 -0.7918
 4776TIP3    H235744   0.822   5.302   0.681 -0.2871 -0.6445  3.4167
 4777TIP3   OH235745   6.520   2.462  11.598 -0.2193 -0.2528  0.2706
 4777TIP3    H135746   6.480   2.523  11.536 -0.3976 -2.6217 -2.1325
 4777TIP3    H235747   6.449   2.437  11.657 -1.3566 -1.3702 -1.4706
 4778TIP3   OH235748   1.928   5.232   4.901 -0.0046  0.0355  0.0876
 4778TIP3    H135749   1.936   5.137   4.907 -1.2442 -0.4015 -3.2315
 4778TIP3    H235750   2.014   5.261   4.870  0.6780  0.1731  2.0025
 4779TIP3   OH235751   1.069   3.460   5.917 -0.3184 -0.1665 -0.4397
 4779TIP3    H135752   1.057   3.465   5.822  0.9642 -3.1671 -0.8820
 4779TIP3    H235753   1.157   3.425   5.929 -0.7423 -0.6355  1.8293
 4780TIP3   OH235754   2.742   3.830  15.494 -0.2795  0.3141 -0.2230
 4780TIP3    H135755   2.748   3.848  15.400 -1.5710  0.9371 -0.1988
 4780TIP3    H235756   2.687   3.900  15.529 -0.8295 -0.5983  0.7905
 4781TIP3   OH235757   3.968   5.545  12.332  0.2623 -0.3360 -0.7011
 4781TIP3    H135758   3.973   5.638  12.310 -1.5168  0.7555  2.7873
 4781TIP3    H235759   4.048   5.507  12.297  2.5231  3.1270  0.2634
 4782TIP3   OH235760   1.298   0.939   2.073 -0.6306  0.1814  0.1843
 4782TIP3    H135761   1.381   0.974   2.042 -1.0715  2.1201  1.0720
 4782TIP3    H235762   1.320   0.853   2.109  0.9997  0.6680  0.4275
 4783TIP3   OH235763   6.537   2.881   4.672  0.2488  0.0710  0.2677
 4783TIP3    H135764   6.446   2.851   4.665  0.0562 -0.0280  2.5655
 4783TIP3    H235765   6.589   2.809   4.637 -0.4852 -0.4158  0.1473
 4784TIP3   OH235766   5.127   2.589  13.248  0.3803  0.0586  0.0964
 4784TIP3    H135767   5.037   2.586  13.280  0.5888  0.4296  0.7251
 4784TIP3    H235768   5.161   2.501  13.263  0.3973  0.1619  0.6613
 4785TIP3   OH235769   3.732   5.958  10.752  0.4566  0.8834 -0.1654
 4785TIP3    H135770   3.676   5.992  10.823  0.8185  0.7269  0.1987
 4785TIP3    H235771   3.790   6.031  10.731  1.2242  0.5090  0.6065
 4786TIP3   OH235772   0.340   6.595  15.289  0.2863  0.3624 -0.3422
 4786TIP3    H135773   0.413   6.545  15.324 -0.3523 -0.7694 -0.5805
 4786TIP3    H235774   0.322   6.555  15.204 -0.7429  0.4718 -0.1870
 4787TIP3   OH235775   5.698   1.107  15.159 -0.0945 -0.1442 -0.5648
 4787TIP3    H135776   5.761   1.161  15.112 -0.4385 -1.4358 -2.6441
 4787TIP3    H235777   5.740   1.021  15.166 -0.8406 -0.4945 -0.2697
 4788TIP3   OH235778   5.923   4.495   3.099 -0.2971 -0.0240 -1.1641
 4788TIP3    H135779   5.865   4.524   3.029 -1.7151 -0.2315 -0.1147
 4788TIP3    H235780   5.883   4.414   3.132 -0.2950  0.6500  0.6065
 4789TIP3   OH235781   6.002   5.769  11.046  0.1176 -0.3842  0.1570
 4789TIP3    H135782   5.938   5.835  11.072 -2.1886 -2.0128 -1.0178
 4789TIP3    H235783   6.087   5.808  11.066 -1.1988  2.1420  1.2141
 4790TIP3   OH235784   6.185   3.449   4.668 -0.2330  0.2416  0.2457
 4790TIP3    H135785   6.230   3.497   4.737 -0.3756  1.0719 -0.2208
 4790TIP3    H235786   6.169   3.514   4.600 -2.2639  0.0240  0.4492
 4791TIP3   OH235787   4.131   0.325   3.265 -0.1146  0.2313  0.1917
 4791TIP3    H135788   4.066   0.386   3.232  0.2752  0.2928 -0.4678
 4791TIP3    H235789   4.202   0.327   3.201  0.0808 -0.6121  0.3613
 4792TIP3   OH235790   1.198   0.061   2.695  0.4587  0.4642 -0.5395
 4792TIP3    H135791   1.189  -0.018   2.748 -1.8065  0.9863 -0.0420
 4792TIP3    H235792   1.169   0.132   2.752  0.2472  1.3544 -1.7114
 4793TIP3   OH235793   6.237   5.138   5.552  0.0786 -0.0658 -0.5056
 4793TIP3    H135794   6.207   5.209   5.608 -0.1840 -0.1605 -0.5282
 4793TIP3    H235795   6.158   5.087   5.531 -0.1251  0.8855 -2.2663
 4794TIP3   OH235796   4.737   6.306  12.043 -0.0701  0.2622 -0.2398
 4794TIP3    H135797   4.800   6.365  12.083  0.8843 -0.1627 -1.0723
 4794TIP3    H235798   4.721   6.239  12.109 -2.0152  1.9772  1.1540
 4795TIP3   OH235799   3.469   4.665   2.105  0.0286 -0.5068  0.0079
 4795TIP3    H135800   3.433   4.696   2.188 -0.2563 -0.8307  0.0044
 4795TIP3    H235801   3.465   4.741   2.048  0.2227 -0.2822  0.2859
 4796TIP3   OH235802   0.415   1.382  16.129 -0.0627 -0.6334 -0.3942
 4796TIP3    H135803   0.379   1.325  16.196 -0.4560  1.1413  0.9834
 4796TIP3    H235804   0.507   1.393  16.154 -0.1459 -0.1751 -0.2847
 4797TIP3   OH235805   5.415   2.867  16.292  0.1619 -0.3720 -0.3295
 4797TIP3    H135806   5.352   2.907  16.231  1.0499  0.1540 -0.9195
 4797TIP3    H235807   5.392   2.906  16.377  0.1755  0.4051 -0.6710
 4798TIP3   OH235808   5.626   6.408   2.316 -0.0587  0.3128  0.7882
 4798TIP3    H135809   5.591   6.489   2.278 -0.9787  0.0961  1.1731
 4798TIP3    H235810   5.697   6.438   2.373  0.0121  0.7979  0.4530
 4799TIP3   OH235811   2.802   0.528   3.236  0.2347  0.5954 -0.5430
 4799TIP3    H135812   2.847   0.541   3.153  1.2826  0.7580  0.0332
 4799TIP3    H235813   2.844   0.590   3.296  0.2535 -0.2720  0.3760
 4800TIP3   OH235814   2.886   5.179  13.784 -0.8237 -0.0305  0.0959
 4800TIP3    H135815   2.899   5.217  13.871 -0.2431  0.4767 -0.2108
 4800TIP3    H235816   2.875   5.085  13.801  1.2837 -0.2450  0.5695
 4801TIP3   OH235817   1.102   4.808   5.014 -0.3969  0.3710 -0.2046
 4801TIP3    H135818   1.083   4.771   5.101 -1.8259 -2.0961 -1.4640
 4801TIP3    H235819   1.100   4.903   5.028 -0.6956  0.0607  2.4243
 4802TIP3   OH235820   5.193   6.306  16.213  0.0244  0.5628 -0.2604
 4802TIP3    H135821   5.207   6.297  16.308 -0.5141  0.0811 -0.2190
 4802TIP3    H235822   5.280   6.323  16.177  0.0203  2.3268  0.4892
 4803TIP3   OH235823   4.648   3.548  16.136 -0.4458  0.2610 -0.2895
 4803TIP3    H135824   4.735   3.545  16.175  0.7142 -0.7785 -2.7325
 4803TIP3    H235825   4.657   3.611  16.064 -1.4586 -0.4814 -1.0970
 4804TIP3   OH235826   5.859   6.519  13.828  0.0786  0.3045 -0.0139
 4804TIP3    H135827   5.852   6.457  13.901  0.5027  0.3289  0.0537
 4804TIP3    H235828   5.781   6.574  13.836  0.7172  1.1061  1.1859
 4805TIP3   OH235829   4.783   4.007   3.871 -1.0587 -0.2322  0.4308
 4805TIP3    H135830   4.780   4.085   3.815  0.0914 -0.4041  0.0977
 4805TIP3    H235831   4.876   3.993   3.888 -1.3027 -1.0454  1.1846
 4806TIP3   OH235832   1.580   2.018  16.037 -0.5987 -0.3956  0.1879
 4806TIP3    H135833   1.668   2.054  16.025 -0.2195 -1.5299 -0.6091
 4806TIP3    H235834   1.575   1.995  16.129 -0.6222  1.0629  0.5752
 4807TIP3   OH235835   6.500   3.412  13.483 -0.3235  0.2814  0.2100
 4807TIP3    H135836   6.438   3.408  13.556 -0.4436  0.6737  0.1330
 4807TIP3    H235837   6.567   3.347  13.504 -0.1988  0.6006  0.8207
 4808TIP3   OH235838   1.350   5.452  15.906 -0.2239  0.2671  0.7474
 4808TIP3    H135839   1.280   5.411  15.855 -0.7384  1.1729  0.6967
 4808TIP3    H235840   1.374   5.387  15.971  1.3920 -1.4931 -1.4230
 4809TIP3   OH235841   5.658   5.977   1.998 -0.1780 -0.8592  0.2690
 4809TIP3    H135842   5.751   5.972   2.020  0.7322 -2.3551 -3.1694
 4809TIP3    H235843   5.643   6.068   1.974  0.7547 -0.8335 -0.2604
 4810TIP3   OH235844   3.754   2.441  15.092  0.1390  0.2262 -0.2475
 4810TIP3    H135845   3.768   2.449  14.997  1.4200 -0.8897 -0.1823
 4810TIP3    H235846   3.689   2.372  15.101 -0.9586  1.2117 -0.3300
 4811TIP3   OH235847   4.362   0.484   1.934 -0.1116 -0.0688 -0.2076
 4811TIP3    H135848   4.281   0.535   1.924 -0.5718 -0.9066 -0.8149
 4811TIP3    H235849   4.334   0.393   1.929  0.8292 -0.3759 -0.0350
 4812TIP3   OH235850   5.170   3.131  14.819 -0.0274 -0.5722  0.1516
 4812TIP3    H135851   5.244   3.084  14.857  0.4415  0.0398  0.0077
 4812TIP3    H235852   5.102   3.127  14.886  0.5723 -0.0419  0.8143
 4813TIP3   OH235853   0.874   1.788  13.091 -0.1148 -0.0757  0.6612
 4813TIP3    H135854   0.852   1.726  13.160 -2.8917 -0.4811 -0.4607
 4813TIP3    H235855   0.852   1.874  13.128 -2.2524 -0.3416  0.1599
 4814TIP3   OH235856   3.311   1.940  11.469  0.8257 -0.5361  0.0400
 4814TIP3    H135857   3.318   1.905  11.380 -0.2538 -2.1934  0.5619
 4814TIP3    H235858   3.363   1.880  11.523  1.7510  0.6447  0.5170
 4815TIP3   OH235859   4.625   6.446  11.603  0.6776  0.2651 -0.2409
 4815TIP3    H135860   4.574   6.419  11.680  2.1597  0.9798  1.0487
 4815TIP3    H235861   4.575   6.412  11.528 -0.6805 -0.6814  1.0292
 4816TIP3   OH235862   5.389   6.126  15.042 -0.2830 -0.0119 -0.1647
 4816TIP3    H135863   5.395   6.143  15.136 -1.6623 -0.5115  0.0440
 4816TIP3    H235864   5.431   6.041  15.030 -0.0006  0.1072 -0.0232
 4817TIP3   OH235865   6.354   1.304   1.511 -0.4325 -0.3768  0.1870
 4817TIP3    H135866   6.373   1.398   1.513 -0.8473 -0.2914  0.1485
 4817TIP3    H235867   6.298   1.289   1.588 -1.4479 -0.3546 -0.5277
 4818TIP3   OH235868   4.982   1.633   4.108 -0.3743 -0.0980  0.7155
 4818TIP3    H135869   5.038   1.609   4.181  1.2981  2.0324  0.2438
 4818TIP3    H235870   5.042   1.653   4.036 -1.4573  3.7391  0.6089
 4819TIP3   OH235871   0.345   6.316   6.422 -0.2494 -0.2611  0.6518
 4819TIP3    H135872   0.385   6.259   6.487  2.2325  0.4250 -0.1686
 4819TIP3    H235873   0.409   6.322   6.351 -2.3224  0.0173 -1.3267
 4820TIP3   OH235874   4.210   0.367   4.046  0.2170 -0.3155 -0.0538
 4820TIP3    H135875   4.134   0.414   4.012  0.2400  0.2911  0.7087
 4820TIP3    H235876   4.181   0.276   4.053 -0.2879 -0.1697 -0.2131
 4821TIP3   OH235877   4.286   1.580  14.289  0.2014 -0.3928 -0.2060
 4821TIP3    H135878   4.283   1.489  14.318  0.2894 -1.7220 -3.8892
 4821TIP3    H235879   4.378   1.605  14.298  0.1000 -0.4576  1.2429
 4822TIP3   OH235880   0.367   1.588  14.301  0.1681  0.0903  0.1656
 4822TIP3    H135881   0.329   1.674  14.284 -0.1547 -0.2843 -1.0724
 4822TIP3    H235882   0.401   1.559  14.217 -2.3187 -2.2275 -0.1940
 4823TIP3   OH235883   0.139   1.243  15.401  0.0649 -0.1617 -0.1616
 4823TIP3    H135884   0.090   1.264  15.480 -0.3159  1.8002 -0.8540
 4823TIP3    H235885   0.172   1.327  15.370  1.3000 -1.0531 -1.3929
 4824TIP3   OH235886   0.765   5.675   6.049  0.2601  0.3337  0.8127
 4824TIP3    H135887   0.687   5.715   6.010  0.0095 -0.4537  0.4904
 4824TIP3    H235888   0.793   5.609   5.986 -0.4534 -1.3335  2.1435
 4825TIP3   OH235889   2.054   4.038   2.393  0.0211  0.7057  0.2959
 4825TIP3    H135890   2.038   3.954   2.350 -0.2730  0.4527  0.8886
 4825TIP3    H235891   2.095   4.015   2.477 -1.9311  0.9988  1.3978
 4826TIP3   OH235892   5.430   5.723   4.436 -0.3896 -0.0914  0.2205
 4826TIP3    H135893   5.415   5.816   4.421 -0.7133 -0.3207 -0.9995
 4826TIP3    H235894   5.383   5.704   4.517 -1.3391  0.5684 -0.1471
 4827TIP3   OH235895   6.573   0.007  13.813 -0.3586 -0.4506 -0.0720
 4827TIP3    H135896   6.544   0.069  13.746 -1.5763 -2.2623 -1.3306
 4827TIP3    H235897   6.658  -0.024  13.781  0.1740  0.4482  0.4734
 4828TIP3   OH235898   3.959   5.023   2.085  0.9423 -0.5447 -0.2240
 4828TIP3    H135899   3.883   5.066   2.046  1.3707  0.8799  0.4454
 4828TIP3    H235900   3.922   4.955   2.142  0.2591 -1.1712 -1.3603
 4829TIP3   OH235901   1.532   4.203   5.627 -0.3401 -0.6007 -0.5157
 4829TIP3    H135902   1.454   4.229   5.675 -0.3994 -1.2730 -0.2355
 4829TIP3    H235903   1.505   4.204   5.535 -0.1408  0.9754 -0.5770
 4830TIP3   OH235904   0.991   4.965  10.773 -0.4089  0.1608  0.5083
 4830TIP3    H135905   0.949   5.051  10.775 -0.4683  0.1235  1.0084
 4830TIP3    H235906   0.932   4.911  10.720 -0.3809  0.4241  0.2082
 4831TIP3   OH235907   1.300   2.304  15.405 -0.5467 -0.2979  0.0065
 4831TIP3    H135908   1.357   2.235  15.370 -0.0395  0.4176 -0.5979
 4831TIP3    H235909   1.245   2.330  15.331 -0.7349 -0.0484  0.2325
 4832TIP3   OH235910   0.005   3.365   0.069  0.4753 -0.3303 -0.3215
 4832TIP3    H135911  -0.073   3.360   0.124 -0.1671 -1.4023 -1.2795
 4832TIP3    H235912   0.009   3.457   0.042 -0.2057 -0.1654  0.0923
 4833TIP3   OH235913   0.291   1.498   3.835 -0.1009  0.2399 -0.1997
 4833TIP3    H135914   0.251   1.460   3.757  0.7642  0.7108 -0.8896
 4833TIP3    H235915   0.333   1.424   3.879 -1.3160 -0.1831  0.3061
 4834TIP3   OH235916   2.015   4.259  16.617  0.0898 -0.1145  0.6678
 4834TIP3    H135917   2.086   4.207  16.655  0.1416 -1.3042 -0.9924
 4834TIP3    H235918   1.953   4.271  16.689  0.9855 -0.8379  1.5812
 4835TIP3   OH235919   3.906   2.795   3.065 -0.5654  0.3358 -0.4206
 4835TIP3    H135920   3.819   2.800   3.105  0.3716  0.6412  1.7022
 4835TIP3    H235921   3.956   2.736   3.122  0.2932 -0.8435 -2.3058
 4836TIP3   OH235922   2.763   0.249   6.193 -0.1002  0.3039  0.1650
 4836TIP3    H135923   2.726   0.279   6.276 -0.0313  0.5280  0.1158
 4836TIP3    H235924   2.727   0.161   6.181  0.9422 -0.2641  1.0875
 4837TIP3   OH235925   4.554   0.454  13.985 -0.1546 -0.2512 -0.4464
 4837TIP3    H135926   4.487   0.522  13.978 -0.3915 -0.1680  1.9573
 4837TIP3    H235927   4.627   0.497  14.030  1.0557 -0.6948 -1.9102
 4838TIP3   OH235928   1.676   1.414  15.466  0.4215 -0.3248  0.6512
 4838TIP3    H135929   1.613   1.414  15.538  0.0800 -0.8169  0.3551
 4838TIP3    H235930   1.732   1.338  15.483  1.3404  0.4507  1.2500
 4839TIP3   OH235931   5.087   3.330   0.173 -0.4788 -0.6903 -0.0343
 4839TIP3    H135932   5.131   3.249   0.201  3.2691  0.4802 -1.8581
 4839TIP3    H235933   5.155   3.380   0.128 -2.7611  3.2811  0.4455
 4840TIP3   OH235934   4.058   1.898  15.566  0.2137 -0.4851  0.0153
 4840TIP3    H135935   3.985   1.941  15.523 -0.4326  0.9319  2.3596
 4840TIP3    H235936   4.025   1.811  15.588 -1.2362  0.4818  1.9675
 4841TIP3   OH235937   0.990   2.648   5.444 -0.9679 -0.3296 -0.3924
 4841TIP3    H135938   1.033   2.716   5.495  1.2474 -0.7214 -1.6085
 4841TIP3    H235939   0.916   2.692   5.401 -1.6110  0.4647  1.4586
 4842TIP3   OH235940   5.884   0.026   5.777 -0.2076  0.6724  0.1130
 4842TIP3    H135941   5.799  -0.012   5.799 -0.0001 -0.6089 -1.1567
 4842TIP3    H235942   5.932   0.026   5.860 -0.6576 -0.7708  0.4111
 4843TIP3   OH235943   5.093   3.861  15.993 -0.1616  0.1284 -0.0931
 4843TIP3    H135944   5.141   3.779  16.003 -0.5828  0.0080  1.2093
 4843TIP3    H235945   5.060   3.880  16.081 -1.3561  0.9069 -0.6754
 4844TIP3   OH235946   1.340   0.028  11.609 -0.3813 -0.1108 -0.4201
 4844TIP3    H135947   1.419   0.063  11.569 -0.5777 -0.8754 -1.5276
 4844TIP3    H235948   1.270   0.054  11.549 -1.1934  1.7373  1.2248
 4845TIP3   OH235949   5.588   3.928  14.029  0.5830  0.1365 -0.2855
 4845TIP3    H135950   5.575   3.935  13.934  2.3223  0.1170 -0.5724
 4845TIP3    H235951   5.655   3.860  14.039 -1.0190 -1.3453  1.1264
 4846TIP3   OH235952   2.713   6.255  12.389 -0.0519  0.1971 -0.1755
 4846TIP3    H135953   2.770   6.188  12.425  0.2422  1.1956  1.3075
 4846TIP3    H235954   2.772   6.326  12.364 -0.4991  0.5524 -0.2331
 4847TIP3   OH235955   4.878   6.292  14.525  0.2294 -0.1195 -0.4251
 4847TIP3    H135956   4.898   6.270  14.617  0.6066 -1.4721 -0.8010
 4847TIP3    H235957   4.942   6.358  14.502  0.4422 -0.1139  0.1532
 4848TIP3   OH235958   4.532   3.757   3.209 -0.2460 -0.4652  0.2851
 4848TIP3    H135959   4.549   3.768   3.303  0.3081 -0.4461  0.1807
 4848TIP3    H235960   4.610   3.791   3.166  0.1455 -1.8468 -0.1502
 4849TIP3   OH235961   0.677   4.540   2.440 -0.2172  0.0754  0.0590
 4849TIP3    H135962   0.587   4.562   2.463 -0.7696 -2.4539  0.5983
 4849TIP3    H235963   0.705   4.478   2.507  0.9103 -1.3780 -1.6677
 4850TIP3   OH235964   6.036   4.919  16.346  0.0564 -0.3185  0.3109
 4850TIP3    H135965   6.109   4.878  16.299 -0.9076 -1.5886 -0.1239
 4850TIP3    H235966   6.025   5.004  16.302  2.3209  0.6640  1.4730
 4851TIP3   OH235967   0.990   4.495   6.254  0.1672 -0.6174  0.1736
 4851TIP3    H135968   1.017   4.586   6.238 -0.9510 -0.3630 -0.3844
 4851TIP3    H235969   0.936   4.473   6.178 -1.7811 -0.8232  1.5414
 4852TIP3   OH235970   4.993   2.842  17.196 -0.1117  0.6442  0.6720
 4852TIP3    H135971   5.040   2.903  17.139  0.6459  0.3739  1.0001
 4852TIP3    H235972   5.044   2.761  17.194 -1.0536  0.0286  0.3166
 4853TIP3   OH235973   3.917   1.948   4.176 -0.2871  0.0170 -0.3036
 4853TIP3    H135974   3.912   1.886   4.103  1.3356  2.0151 -2.2787
 4853TIP3    H235975   4.011   1.956   4.193 -0.5138  1.3561  0.4068
 4854TIP3   OH235976   1.428   4.257  14.950  0.1129 -0.2418 -0.0891
 4854TIP3    H135977   1.492   4.297  14.891  2.0298 -1.7559  0.8193
 4854TIP3    H235978   1.397   4.179  14.904 -0.3722 -0.0240 -0.1378
 4855TIP3   OH235979   3.578   1.019   3.523  0.2608 -0.1520  0.1230
 4855TIP3    H135980   3.575   0.989   3.433  1.5835 -1.4570  0.4733
 4855TIP3    H235981   3.535   0.949   3.573  1.1367 -0.2960  0.6877
 4856TIP3   OH235982   5.894   1.018   3.366  0.5238  0.0251  0.1563
 4856TIP3    H135983   5.902   1.036   3.273  0.4589  0.6102  0.2609
 4856TIP3    H235984   5.807   1.049   3.390  0.2361 -0.8237  0.2608
 4857TIP3   OH235985   6.310   2.483   1.523  0.4563  0.0350 -0.2317
 4857TIP3    H135986   6.238   2.434   1.482  0.6292 -0.2984 -0.1442
 4857TIP3    H235987   6.328   2.435   1.604  0.4783  0.3768 -0.0308
 4858TIP3   OH235988   0.463   0.718   6.524 -0.4114 -0.3370 -0.0811
 4858TIP3    H135989   0.556   0.739   6.520 -0.5238  0.6191  1.5028
 4858TIP3    H235990   0.455   0.637   6.474  0.7486  1.0744 -2.7627
 4859TIP3   OH235991   1.439   5.329   6.786 -0.8679  0.2460  0.3139
 4859TIP3    H135992   1.457   5.423   6.783  0.9767  0.0032  1.7312
 4859TIP3    H235993   1.386   5.318   6.865  0.9575 -0.1235  1.5530
 4860TIP3   OH235994   5.589   2.844  13.984 -0.2604  0.5602 -0.1607
 4860TIP3    H135995   5.666   2.831  13.930  0.3506  2.7470  0.1009
 4860TIP3    H235996   5.537   2.910  13.938  0.1946  2.3517  1.7355
 4861TIP3   OH235997   2.389   2.242  12.865  0.2832  0.4033 -0.2566
 4861TIP3    H135998   2.433   2.169  12.907  1.2628  1.1575  0.0763
 4861TIP3    H235999   2.316   2.264  12.923  0.7533  0.5001  0.3092
 4862TIP3   OH236000   6.707   2.730   5.263  0.0265 -0.5096 -0.5658
 4862TIP3    H136001   6.716   2.690   5.349 -1.0347  1.2525  0.4215
 4862TIP3    H236002   6.622   2.701   5.231 -0.5794  0.5901 -0.0096
 4863TIP3   OH236003   1.029   2.219  16.081  0.1595  0.4243  0.2558
 4863TIP3    H136004   1.085   2.259  16.147  0.5938 -1.3785  1.0494
 4863TIP3    H236005   1.086   2.206  16.005  0.4723 -0.1541  0.5802
 4864TIP3   OH236006   1.967   4.296   3.437 -0.0699 -0.4346  0.2388
 4864TIP3    H136007   2.033   4.227   3.442  0.3496  0.0139  0.9780
 4864TIP3    H236008   1.934   4.291   3.347  0.0492 -1.5077  0.2415
 4865TIP3   OH236009   4.588   4.570   1.476  0.8243  0.2237 -0.3416
 4865TIP3    H136010   4.603   4.517   1.554  2.1214 -0.4061 -0.9814
 4865TIP3    H236011   4.495   4.592   1.479  0.8849  0.3757  1.4644
 4866TIP3   OH236012   5.509   0.796  12.699 -0.3482  0.2918  0.2792
 4866TIP3    H136013   5.541   0.750  12.622 -3.1192  0.7010 -1.2417
 4866TIP3    H236014   5.533   0.888  12.683  2.2982 -0.0414  1.7629
 4867TIP3   OH236015   3.165   0.784   2.862  0.0225 -0.1031  0.7820
 4867TIP3    H136016   3.178   0.833   2.780  0.5340 -0.7995  0.4331
 4867TIP3    H236017   3.238   0.810   2.918  1.4469 -1.8982 -0.1331
 4868TIP3   OH236018   2.483   0.929  16.240 -0.0080  0.2845 -0.3187
 4868TIP3    H136019   2.417   0.899  16.178 -0.9417 -1.9719  1.5797
 4868TIP3    H236020   2.558   0.954  16.186 -0.7069 -1.6908 -2.3635
 4869TIP3   OH236021   5.279   4.294  12.016  0.1339 -0.0184  0.2778
 4869TIP3    H136022   5.314   4.223  11.963 -0.2741 -0.9682  1.2200
 4869TIP3    H236023   5.337   4.298  12.092 -1.4147 -1.2850  1.6174
 4870TIP3   OH236024   5.430   1.727  14.178  0.0213  0.0384  0.1603
 4870TIP3    H136025   5.417   1.787  14.252 -2.3217  0.6294 -0.6353
 4870TIP3    H236026   5.450   1.643  14.219 -0.3880  0.5282  1.4457
 4871TIP3   OH236027   0.763   4.710  16.614 -0.2162  0.2376  0.5628
 4871TIP3    H136028   0.711   4.710  16.694 -1.3716  2.4561 -0.0833
 4871TIP3    H236029   0.842   4.760  16.636 -0.4568  0.7030  0.4017
 4872TIP3   OH236030   0.678   6.646  14.838 -0.2013  0.2545  0.2606
 4872TIP3    H136031   0.752   6.651  14.776  0.0374  0.0709  0.5274
 4872TIP3    H236032   0.601   6.660  14.783 -0.0396 -0.5388 -0.1877
 4873TIP3   OH236033   0.632   2.850  16.071 -0.0513  0.4520  0.4042
 4873TIP3    H136034   0.644   2.923  16.132  0.1665  1.9533 -1.3283
 4873TIP3    H236035   0.544   2.864  16.035  0.0938  0.0179 -0.1293
 4874TIP3   OH236036   1.151   3.543  14.113  0.3116 -0.1661 -0.1165
 4874TIP3    H136037   1.095   3.530  14.189  0.2472  2.2299  0.3284
 4874TIP3    H236038   1.092   3.540  14.038 -0.1961  0.8614  0.2279
 4875TIP3   OH236039   2.420   4.472  13.331  0.3665 -0.2078  0.2389
 4875TIP3    H136040   2.344   4.526  13.310  0.6521  0.0637 -0.1169
 4875TIP3    H236041   2.466   4.520  13.399 -0.2668 -0.8239  1.1261
 4876TIP3   OH236042   5.905   0.189   4.682  0.3738 -0.1908 -0.3171
 4876TIP3    H136043   5.816   0.154   4.685  0.8771 -1.4978  0.2433
 4876TIP3    H236044   5.945   0.158   4.763  1.4576  0.0213 -0.7537
 4877TIP3   OH236045   1.074   5.034  14.761 -1.0577  0.3767  0.0858
 4877TIP3    H136046   1.053   5.116  14.807  3.4777  1.9197 -0.0925
 4877TIP3    H236047   1.101   4.975  14.831  0.7569  0.9220 -0.1144
 4878TIP3   OH236048   6.350   2.634   3.514  0.0607  0.2205  0.2467
 4878TIP3    H136049   6.305   2.707   3.471  1.6332  2.1197  1.6562
 4878TIP3    H236050   6.289   2.604   3.581 -0.8677 -0.2945 -0.7754
 4879TIP3   OH236051   4.894   0.372  16.365  0.2476  0.3107 -0.5226
 4879TIP3    H136052   4.798   0.376  16.370  0.0542 -1.7986 -1.5306
 4879TIP3    H236053   4.912   0.345  16.275  1.7380 -0.2723 -0.0746
 4880TIP3   OH236054   3.129   1.533   5.540 -0.1413 -0.8847  0.2790
 4880TIP3    H136055   3.118   1.606   5.479 -0.8283 -0.5700  0.7760
 4880TIP3    H236056   3.120   1.455   5.485  2.4509 -0.6710 -0.6211
 4881TIP3   OH236057   5.969   0.826  16.570 -0.3518  0.1343 -0.6936
 4881TIP3    H136058   5.959   0.892  16.639  0.8384  0.1221 -0.4741
 4881TIP3    H236059   5.903   0.849  16.505 -0.1115  1.4301 -0.5252
 4882TIP3   OH236060   4.543   3.625  11.683 -0.6754  0.2151  0.0795
 4882TIP3    H136061   4.467   3.667  11.642 -0.9478  0.9005  1.2424
 4882TIP3    H236062   4.544   3.537  11.646 -1.9024  0.2704 -0.1336
 4883TIP3   OH236063   5.353   3.772  15.266 -0.2106 -0.1877  0.2490
 4883TIP3    H136064   5.264   3.773  15.300 -0.2468  0.2396  0.1357
 4883TIP3    H236065   5.349   3.713  15.191 -0.4633  0.0678  0.0605
 4884TIP3   OH236066   0.996   3.402  12.299 -0.5154 -0.6184  0.5729
 4884TIP3    H136067   0.983   3.480  12.353 -0.1220 -0.3478  0.2832
 4884TIP3    H236068   1.040   3.434  12.220  2.3696 -1.5332  1.6924
 4885TIP3   OH236069   1.519   5.919  16.252 -0.1211 -0.2495  0.2338
 4885TIP3    H136070   1.437   5.964  16.236  0.1250 -0.4938 -2.0495
 4885TIP3    H236071   1.584   5.989  16.261 -0.5133 -0.0607  1.9237
 4886TIP3   OH236072   1.280   1.388   0.377 -0.4831  0.3376  0.1440
 4886TIP3    H136073   1.186   1.398   0.394  0.0594  2.8114  2.2365
 4886TIP3    H236074   1.321   1.461   0.423  2.6216 -1.3838  0.3864
 4887TIP3   OH236075   5.651   5.308  16.313  0.0463 -0.3169  0.2449
 4887TIP3    H136076   5.584   5.333  16.250  0.4518 -0.2092 -0.1409
 4887TIP3    H236077   5.623   5.222  16.345 -1.2165  0.4514  1.3807
 4888TIP3   OH236078   1.750   5.513  16.421  0.0021  0.1265  0.1332
 4888TIP3    H136079   1.789   5.585  16.470 -0.0591  0.4934 -0.3466
 4888TIP3    H236080   1.760   5.539  16.329 -2.7947  1.0257 -0.0157
 4889TIP3   OH236081   2.988   3.021   2.166  0.3806  0.8413 -0.0588
 4889TIP3    H136082   3.046   3.012   2.090  2.4320  1.2981  1.3650
 4889TIP3    H236083   2.943   3.105   2.152  1.6123  1.4992 -0.2362
 4890TIP3   OH236084   4.692   2.820   3.859 -0.3003  0.4909  0.5913
 4890TIP3    H136085   4.654   2.785   3.939 -0.7571 -0.5297 -0.0527
 4890TIP3    H236086   4.617   2.836   3.801  0.0960  0.2435 -0.0045
 4891TIP3   OH236087   0.434   0.351   4.134  0.5787  0.3270  0.1544
 4891TIP3    H136088   0.433   0.339   4.229 -0.1479  0.8245  0.2179
 4891TIP3    H236089   0.510   0.301   4.104  0.3385 -0.5104  0.9078
 4892TIP3   OH236090   4.132   2.077  16.719  0.1449 -0.0167  0.0613
 4892TIP3    H136091   4.174   1.992  16.710  0.4707 -0.0107  1.3157
 4892TIP3    H236092   4.140   2.118  16.633 -0.6899 -1.5465 -0.7805
 4893TIP3   OH236093   3.600   3.702  14.346  0.0492  0.3250  0.3096
 4893TIP3    H136094   3.558   3.689  14.431 -0.1792  2.2830  0.5582
 4893TIP3    H236095   3.668   3.636  14.342 -0.3130 -0.1748  1.7766
 4894TIP3   OH236096   4.785   4.424  12.228 -0.1519 -0.6632  0.2157
 4894TIP3    H136097   4.741   4.469  12.300 -0.3138  0.1231 -0.3602
 4894TIP3    H236098   4.857   4.377  12.270 -0.8774 -1.0907  1.0270
 4895TIP3   OH236099   4.033   0.213   0.788 -0.5640 -0.1417 -0.6051
 4895TIP3    H136100   3.946   0.172   0.795  0.1031 -1.6129 -0.6786
 4895TIP3    H236101   4.078   0.187   0.868 -0.0278  0.2745 -0.7668
 4896TIP3   OH236102   5.701   4.852  16.860  0.1383 -0.7659 -0.8246
 4896TIP3    H136103   5.703   4.776  16.918 -2.1785 -0.4780 -0.2749
 4896TIP3    H236104   5.744   4.922  16.910 -0.2606 -0.9925 -0.1475
 4897TIP3   OH236105   0.826   2.581  15.647 -0.3524  0.3594  0.8863
 4897TIP3    H136106   0.732   2.599  15.640 -0.6698 -1.5075 -0.4902
 4897TIP3    H236107   0.867   2.668  15.650 -1.9255  1.3082 -1.7905
 4898TIP3   OH236108   2.687   2.869   4.007  0.2408 -0.2281 -0.2464
 4898TIP3    H136109   2.705   2.779   4.035  1.5119 -0.4280 -1.5994
 4898TIP3    H236110   2.592   2.871   3.993 -0.2213 -0.5878  2.2701
 4899TIP3   OH236111   2.360   2.495   1.701  0.3091  0.1023  0.7932
 4899TIP3    H136112   2.431   2.547   1.740  1.5066 -2.0842  1.7000
 4899TIP3    H236113   2.326   2.551   1.631  2.5457  1.4957  0.6857
 4900TIP3   OH236114   3.897   4.634  15.617 -0.4902  0.1114  0.0161
 4900TIP3    H136115   3.841   4.661  15.690  0.2618 -3.2709  2.0261
 4900TIP3    H236116   3.985   4.660  15.643 -0.3814  0.0780 -0.3118
 4901TIP3   OH236117   3.633   5.867   2.474  0.2271 -0.4794 -0.3698
 4901TIP3    H136118   3.636   5.884   2.568  4.1125  3.4307 -0.8743
 4901TIP3    H236119   3.697   5.796   2.461 -0.0899 -0.8161 -0.1154
 4902TIP3   OH236120   3.782   6.359   5.740 -0.3517 -0.4906  0.0602
 4902TIP3    H136121   3.727   6.431   5.771  1.0830  0.2880  0.9359
 4902TIP3    H236122   3.720   6.289   5.719 -1.6081 -0.2033  2.4376
 4903TIP3   OH236123   6.149   5.157  14.841  0.2189 -0.2250 -0.8956
 4903TIP3    H136124   6.234   5.196  14.861 -0.3864  0.3962  0.7123
 4903TIP3    H236125   6.169   5.071  14.805  1.5166 -0.4062  0.1818
 4904TIP3   OH236126   4.070   6.133  11.180  0.1601 -0.1006 -0.2285
 4904TIP3    H136127   4.079   6.084  11.098  0.1144  0.6035 -0.6633
 4904TIP3    H236128   4.074   6.066  11.248 -0.0222 -0.7239 -0.8139
 4905TIP3   OH236129   2.778   1.846   4.020 -0.0702  0.2706  0.0647
 4905TIP3    H136130   2.801   1.882   4.106 -0.2535 -1.0186  0.6700
 4905TIP3    H236131   2.861   1.839   3.974  0.3082 -0.8962  0.8843
 4906TIP3   OH236132   4.709   4.919   1.202  0.2138 -1.3728  0.2574
 4906TIP3    H136133   4.647   4.991   1.213  1.2819 -0.6132  1.6140
 4906TIP3    H236134   4.658   4.841   1.225 -1.1493 -1.1982 -1.8773
 4907TIP3   OH236135   0.326   5.868   0.231  0.0027  0.0367 -0.0976
 4907TIP3    H136136   0.241   5.872   0.187 -0.5714  0.1776  0.9863
 4907TIP3    H236137   0.337   5.776   0.254  0.6111 -0.1539 -1.0907
 4908TIP3   OH236138   6.199   5.389   0.710 -0.7185  0.3453  0.3657
 4908TIP3    H136139   6.269   5.453   0.699  0.4677 -1.0373 -0.4371
 4908TIP3    H236140   6.127   5.439   0.748  1.2258  1.4921  2.8338
 4909TIP3   OH236141   4.544   2.182   2.494  0.1452  0.6706  0.3933
 4909TIP3    H136142   4.550   2.149   2.404  0.6088  0.1986  0.5965
 4909TIP3    H236143   4.451   2.173   2.517  0.2442 -0.3861  0.4072
 4910TIP3   OH236144   2.378   3.180   6.039  0.3257  0.1384 -0.1016
 4910TIP3    H136145   2.325   3.161   5.962 -1.0713  1.6521  0.4217
 4910TIP3    H236146   2.328   3.247   6.087  1.3922 -0.3758  1.8540
 4911TIP3   OH236147   0.698   6.628  17.362 -0.1383  0.6091  0.2182
 4911TIP3    H136148   0.708   6.643  17.456  0.0625 -0.7935  0.4338
 4911TIP3    H236149   0.784   6.648  17.325 -0.2455  1.2633  0.2987
 4912TIP3   OH236150   1.720   3.486  14.946  0.4423 -0.1099  1.2393
 4912TIP3    H136151   1.683   3.566  14.910 -0.9945 -0.7753  1.1669
 4912TIP3    H236152   1.756   3.440  14.870 -1.0937 -0.7358  0.8560
 4913TIP3   OH236153   3.293   1.472  16.579 -0.2531  0.0219 -0.3697
 4913TIP3    H136154   3.289   1.390  16.629 -0.5465 -0.7967 -1.6953
 4913TIP3    H236155   3.202   1.491  16.556 -0.2265  0.9301  0.2236
 4914TIP3   OH236156   4.371   4.339  12.919  0.1148 -0.3521 -0.2108
 4914TIP3    H136157   4.425   4.387  12.983 -0.4745 -0.7667  0.6113
 4914TIP3    H236158   4.306   4.403  12.891  0.8831  0.0889 -1.0512
 4915TIP3   OH236159   4.263   0.320  13.927 -0.3371  0.3487  0.0695
 4915TIP3    H136160   4.287   0.407  13.896  0.2193 -0.0581 -0.6646
 4915TIP3    H236161   4.286   0.319  14.020  2.3710  0.0348 -0.5402
 4916TIP3   OH236162   3.891   0.416  15.526  0.1372 -0.0666 -0.0383
 4916TIP3    H136163   3.841   0.435  15.605  2.6690 -2.5549  2.3971
 4916TIP3    H236164   3.843   0.344  15.484 -0.2314  0.0062  0.2545
 4917TIP3   OH236165   4.526   3.606  12.223 -0.2491 -0.9221 -0.1701
 4917TIP3    H136166   4.445   3.651  12.201  0.0795  0.3445  1.0580
 4917TIP3    H236167   4.512   3.516  12.195 -1.7140 -0.5217 -0.8206
 4918TIP3   OH236168   4.886   2.599   5.238 -0.1365 -0.1593  0.3063
 4918TIP3    H136169   4.834   2.604   5.318 -1.3259  1.5209 -0.5238
 4918TIP3    H236170   4.948   2.672   5.245 -0.4071  0.1461 -0.3994
 4919TIP3   OH236171   5.586   5.396  15.521 -0.4388 -0.2217 -0.4653
 4919TIP3    H136172   5.522   5.325  15.512 -1.8582  0.8098  1.0115
 4919TIP3    H236173   5.542   5.462  15.574  1.6576  0.8028  0.1074
 4920TIP3   OH236174   0.096   0.681   2.326  0.6213 -0.5165  0.2915
 4920TIP3    H136175   0.095   0.777   2.319  1.4047 -0.5442 -0.2690
 4920TIP3    H236176   0.007   0.655   2.305  0.4418  0.0758  0.2844
 4921TIP3   OH236177   5.513   1.835  12.690  0.3811 -0.1264  0.1176
 4921TIP3    H136178   5.603   1.860  12.669  0.4477 -2.3816 -2.9225
 4921TIP3    H236179   5.521   1.749  12.731 -0.3476  0.5399  1.7449
 4922TIP3   OH236180   5.814   1.605  11.423 -0.3281  0.0018  0.5174
 4922TIP3    H136181   5.825   1.510  11.431 -0.9619 -0.0383  1.0282
 4922TIP3    H236182   5.878   1.641  11.485  0.3145 -0.0710 -0.0990
 4923TIP3   OH236183   5.704   0.997  13.354  0.1803  0.3497  0.2222
 4923TIP3    H136184   5.754   1.078  13.369  0.8089 -0.0770  0.4983
 4923TIP3    H236185   5.709   0.984  13.259 -1.2574  1.4584 -0.0374
 4924TIP3   OH236186   4.246   3.864   0.171  0.0352  0.0188 -0.3705
 4924TIP3    H136187   4.282   3.802   0.234  1.5315  1.2225  0.0106
 4924TIP3    H236188   4.222   3.941   0.223 -1.9629 -0.2450 -0.8103
 4925TIP3   OH236189   1.616   1.293  13.974  0.0604 -0.8697  0.4236
 4925TIP3    H136190   1.617   1.287  14.069 -0.8279 -1.6123  0.4046
 4925TIP3    H236191   1.681   1.360  13.953  1.2049 -1.6042  1.4765
 4926TIP3   OH236192   6.204   4.048  12.350  0.9787 -0.1498 -0.2062
 4926TIP3    H136193   6.136   4.035  12.284  0.8296  2.1447 -0.6022
 4926TIP3    H236194   6.238   3.961  12.367 -0.7713 -1.1329 -1.3809
 4927TIP3   OH236195   1.006   6.019  15.122 -0.0516  0.4520 -0.2415
 4927TIP3    H136196   1.081   6.056  15.168 -1.3802  0.7286  1.8623
 4927TIP3    H236197   0.974   5.950  15.181 -0.4165 -0.9018 -1.9203
 4928TIP3   OH236198   5.653   0.472   1.154 -0.1179 -0.2343 -0.4978
 4928TIP3    H136199   5.723   0.408   1.149 -2.2945 -2.7237 -1.2313
 4928TIP3    H236200   5.595   0.439   1.224 -0.6264  1.7117  0.0717
 4929TIP3   OH236201   1.077   3.853   3.107  0.3983  0.6283  0.0682
 4929TIP3    H136202   0.989   3.853   3.145  1.0553  0.6399  1.6261
 4929TIP3    H236203   1.123   3.782   3.152  1.2930  0.8118 -0.5308
 4930TIP3   OH236204   0.744   6.196  10.893  0.0777  0.1060 -0.2963
 4930TIP3    H136205   0.770   6.284  10.921 -0.9608  0.1790  0.5166
 4930TIP3    H236206   0.688   6.164  10.964  0.1846 -1.0886 -0.7328
 4931TIP3   OH236207   3.639   2.250   0.640  0.2931  0.3727 -0.2917
 4931TIP3    H136208   3.683   2.297   0.711 -0.8336  1.5369 -0.3281
 4931TIP3    H236209   3.702   2.251   0.568  0.6983  0.8924  0.0679
 4932TIP3   OH236210   0.749   3.984  12.155  0.2481  0.1819 -0.3451
 4932TIP3    H136211   0.836   3.972  12.117  0.2725  0.8107 -0.4887
 4932TIP3    H236212   0.693   3.924  12.106  0.5762 -0.1404 -0.3293
 4933TIP3   OH236213   6.747   2.489  14.003  0.6513  0.0415  0.4625
 4933TIP3    H136214   6.806   2.422  14.038  0.4560 -0.0504  0.6155
 4933TIP3    H236215   6.743   2.556  14.071 -1.8614 -1.3773  1.8595
 4934TIP3   OH236216   5.652   3.412  15.894  0.0808 -0.4054  0.1735
 4934TIP3    H136217   5.599   3.477  15.940 -1.3718 -1.6173  0.2971
 4934TIP3    H236218   5.718   3.386  15.958  1.5670  1.8823 -0.3333
 4935TIP3   OH236219   4.318   3.731   4.330  0.1464  0.2894  0.1692
 4935TIP3    H136220   4.237   3.774   4.302 -0.5122 -0.6809  0.5176
 4935TIP3    H236221   4.296   3.638   4.333  1.3876 -0.0315 -0.0865
 4936TIP3   OH236222   2.896   2.684   2.052 -0.0141  0.1239  0.1295
 4936TIP3    H136223   2.935   2.605   2.089 -0.8016  0.3153  1.4388
 4936TIP3    H236224   2.912   2.677   1.958  1.7821 -0.5577  0.4362
 4937TIP3   OH236225   5.441   3.469  14.841 -0.7084 -0.3898  1.1950
 4937TIP3    H136226   5.374   3.422  14.792 -0.3608  0.2228  0.0984
 4937TIP3    H236227   5.514   3.407  14.847 -0.2661 -0.0376 -0.2068
 4938TIP3   OH236228   4.982   3.831  10.758 -0.2468  0.6922 -0.2508
 4938TIP3    H136229   5.012   3.865  10.843 -1.1949 -0.7973  0.7326
 4938TIP3    H236230   5.058   3.789  10.720 -0.3002 -0.4993  0.8759
 4939TIP3   OH236231   5.195   1.154   0.935  0.2146 -0.2137 -0.1433
 4939TIP3    H136232   5.255   1.195   0.997  0.0561  1.8153 -1.2456
 4939TIP3    H236233   5.159   1.079   0.982 -0.6587  1.7690  2.6535
 4940TIP3   OH236234   1.186   0.645  15.736  0.4782  0.0418 -0.1817
 4940TIP3    H136235   1.211   0.579  15.800 -2.1932 -0.4562  0.4425
 4940TIP3    H236236   1.166   0.723  15.787  0.0242  0.1923 -0.5792
 4941TIP3   OH236237   2.142   0.930   5.402  0.1563 -0.2214 -0.0438
 4941TIP3    H136238   2.196   0.866   5.355 -0.9186 -2.4169  1.5263
 4941TIP3    H236239   2.060   0.931   5.353  0.5465  0.8548 -0.7062
 4942TIP3   OH236240   3.962   4.772  17.381 -0.4203 -0.8812 -0.3696
 4942TIP3    H136241   3.906   4.811  17.449  1.3359 -0.3252  0.8339
 4942TIP3    H236242   4.003   4.846  17.338 -0.9445 -1.2654 -1.5779
 4943TIP3   OH236243   4.163   3.399  13.377  0.3914  0.2287  0.5716
 4943TIP3    H136244   4.115   3.480  13.393 -1.8779 -0.6199 -1.2308
 4943TIP3    H236245   4.136   3.340  13.447  0.3086  0.3553  0.6449
 4944TIP3   OH236246   1.166   6.092   5.591 -0.3630 -0.5741 -0.0668
 4944TIP3    H136247   1.221   6.042   5.652  1.4674  3.3095  1.8549
 4944TIP3    H236248   1.218   6.096   5.510  0.5239  0.0184  0.5129
 4945TIP3   OH236249   1.491   0.020  16.223  0.2221 -0.3510  0.0381
 4945TIP3    H136250   1.487  -0.040  16.298  0.5558 -1.2279 -0.6315
 4945TIP3    H236251   1.465   0.105  16.259  1.4689 -0.5117  1.4025
 4946TIP3   OH236252   4.795   3.570  16.836  0.2560  0.2970 -0.3271
 4946TIP3    H136253   4.845   3.628  16.894  0.5251  0.7866 -1.0426
 4946TIP3    H236254   4.782   3.621  16.756 -0.7046 -0.1221 -0.4464
 4947TIP3   OH236255   0.896   2.113   1.736  0.1728 -0.4466 -0.4659
 4947TIP3    H136256   0.897   2.192   1.681 -1.0279 -0.4598 -0.5213
 4947TIP3    H236257   0.986   2.081   1.732  1.8127  2.9362  2.5444
 4948TIP3   OH236258   0.979   4.303   5.175 -0.4088 -0.0992  0.4493
 4948TIP3    H136259   1.015   4.380   5.132  0.2751 -0.4992  0.2992
 4948TIP3    H236260   1.025   4.298   5.259  0.9584 -1.4317 -0.3501
 4949TIP3   OH236261   3.702   1.899   0.343  0.3475 -0.6332  0.2117
 4949TIP3    H136262   3.645   1.975   0.349  1.1079  0.2704 -2.4741
 4949TIP3    H236263   3.658   1.840   0.281  0.5148 -1.7140  1.0759
 4950TIP3   OH236264   5.660   4.844  15.596  0.2201 -0.0167  0.2813
 4950TIP3    H136265   5.670   4.939  15.599  0.6954 -0.0885  1.1523
 4950TIP3    H236266   5.748   4.811  15.577  0.2404 -0.3243  0.8844
 4951TIP3   OH236267   3.905   2.497  15.627  0.1624 -0.0416 -0.1390
 4951TIP3    H136268   3.899   2.408  15.592  1.0175  0.3548 -1.3879
 4951TIP3    H236269   3.819   2.535  15.609  0.5750  0.1560 -1.9368
 4952TIP3   OH236270   5.027   1.791  16.390  0.1775 -0.1443  0.0321
 4952TIP3    H136271   4.995   1.701  16.378 -0.2279 -0.1592  1.1092
 4952TIP3    H236272   5.070   1.790  16.475  1.4881  0.3354 -0.5975
 4953TIP3   OH236273   2.654   2.267  12.477 -0.5791 -0.3567 -0.0311
 4953TIP3    H136274   2.634   2.229  12.392  0.3231 -0.1852 -0.3235
 4953TIP3    H236275   2.745   2.296  12.471 -0.9672  1.0705  0.4718
 4954TIP3   OH236276   1.784   1.945  17.302 -0.1298  0.1603 -0.0778
 4954TIP3    H136277   1.833   1.875  17.345  0.2569  1.1712  1.1435
 4954TIP3    H236278   1.814   1.942  17.211  0.2361 -0.9316  0.0603
 4955TIP3   OH236279   6.391   2.393  16.843  0.6355  0.0116 -0.2544
 4955TIP3    H136280   6.458   2.418  16.907  0.1435 -1.1327  0.7455
 4955TIP3    H236281   6.312   2.437  16.872 -0.2145 -2.4020  1.4625
 4956TIP3   OH236282   0.795   1.007   6.306 -0.0037 -0.6490 -0.2352
 4956TIP3    H136283   0.705   0.981   6.326 -0.4715 -0.4778 -1.9335
 4956TIP3    H236284   0.822   1.059   6.382 -1.1313 -1.1537  0.5482
 4957TIP3   OH236285   3.165   5.397   3.140 -0.4202  0.7876  0.1383
 4957TIP3    H136286   3.092   5.421   3.198 -1.4422  3.4944 -2.0473
 4957TIP3    H236287   3.218   5.476   3.134 -0.4756  0.6991 -2.7117
 4958TIP3   OH236288   1.007   2.287  11.132  0.9019  0.6024  0.0710
 4958TIP3    H136289   1.021   2.344  11.207  2.1340 -0.5817  0.7948
 4958TIP3    H236290   1.063   2.211  11.149 -2.1311 -1.8373  0.2323
 4959TIP3   OH236291   6.135   0.296   2.184 -0.3730  0.3499 -0.0357
 4959TIP3    H136292   6.149   0.341   2.267 -2.5248  0.0938  0.5352
 4959TIP3    H236293   6.222   0.288   2.145  0.5413  1.4174  1.6957
 4960TIP3   OH236294   3.941   5.207   2.563 -0.5038 -0.2192  0.2861
 4960TIP3    H136295   3.986   5.176   2.485  0.1959  1.8214 -0.2058
 4960TIP3    H236296   3.849   5.183   2.550 -0.2415 -0.6879 -0.7443
 4961TIP3   OH236297   0.915   3.295   2.761  0.1576  0.7075  0.5866
 4961TIP3    H136298   0.946   3.267   2.676  0.6113  2.0233  0.3036
 4961TIP3    H236299   0.852   3.227   2.787  1.4317 -0.7195  0.0971
 4962TIP3   OH236300   3.286   6.465   1.274 -0.0794  0.2910 -0.5782
 4962TIP3    H136301   3.339   6.514   1.336  0.1623  1.0002 -1.3343
 4962TIP3    H236302   3.349   6.418   1.219 -0.3000 -0.6131 -0.0834
 4963TIP3   OH236303   2.047   3.854   1.045 -0.3714  0.0531 -0.2095
 4963TIP3    H136304   2.069   3.771   1.001  0.5574  1.2448 -2.1252
 4963TIP3    H236305   1.984   3.896   0.988 -2.1215  0.0060  1.5789
 4964TIP3   OH236306   0.730   0.090   6.747  0.1980  0.5220  0.9468
 4964TIP3    H136307   0.762   0.170   6.788  0.0257  0.7731  0.6030
 4964TIP3    H236308   0.775   0.086   6.662 -0.7158  0.9241  0.4223
 4965TIP3   OH236309   0.720   6.622   2.794  0.4662  0.3164 -0.0367
 4965TIP3    H136310   0.797   6.679   2.790  0.2565  0.6521  0.7232
 4965TIP3    H236311   0.664   6.660   2.861 -1.3225  1.2427 -1.9285
 4966TIP3   OH236312   1.694   0.080   5.993 -0.8310  0.1363  0.4714
 4966TIP3    H136313   1.675   0.080   6.087  1.3301 -2.6536  1.0427
 4966TIP3    H236314   1.665  -0.006   5.962  0.9824 -0.1038 -0.7646
 4967TIP3   OH236315   4.228   5.430  13.821 -0.3315 -0.0386  0.7089
 4967TIP3    H136316   4.217   5.521  13.851  0.7830  0.4227 -0.2009
 4967TIP3    H236317   4.140   5.393  13.825 -0.7887  1.0542  1.1983
 4968TIP3   OH236318   3.733   1.905   1.890  0.2141 -0.1310  0.6629
 4968TIP3    H136319   3.811   1.958   1.908  0.1518 -0.1526  0.9908
 4968TIP3    H236320   3.767   1.825   1.850  0.6600 -1.4988  3.4998
 4969TIP3   OH236321   0.010   5.482  16.877 -0.1197 -0.6366 -0.0565
 4969TIP3    H136322   0.005   5.387  16.881  1.0617 -0.6846  0.6523
 4969TIP3    H236323   0.104   5.501  16.873 -0.2946  0.5342  0.8881
 4970TIP3   OH236324   5.139   2.609  12.369 -0.0288  0.5671  0.3160
 4970TIP3    H136325   5.209   2.598  12.304 -1.1281  1.9185 -1.1767
 4970TIP3    H236326   5.078   2.538  12.352 -0.7427  1.4031 -0.7590
 4971TIP3   OH236327   2.820   3.665  12.009  0.4163 -0.1883 -0.3866
 4971TIP3    H136328   2.911   3.664  12.038  0.2941  1.7101  0.2085
 4971TIP3    H236329   2.824   3.639  11.917  1.3366 -1.7436  0.0491
 4972TIP3   OH236330   1.906   0.392  16.644  0.0788  0.1369 -0.1951
 4972TIP3    H136331   1.939   0.429  16.727  0.9855  2.9619 -1.6800
 4972TIP3    H236332   1.977   0.337  16.612  0.6054  0.7603 -0.1103
 4973TIP3   OH236333   6.382   3.172  10.626 -0.0026 -0.0241  0.3940
 4973TIP3    H136334   6.422   3.231  10.690 -1.6970  1.2564  0.3351
 4973TIP3    H236335   6.358   3.095  10.677 -1.0323  0.8426  1.2586
 4974TIP3   OH236336   2.187   4.047   3.082  0.0671 -0.3247 -0.5774
 4974TIP3    H136337   2.188   4.098   3.001 -0.3524  2.6410  1.1284
 4974TIP3    H236338   2.139   3.967   3.060 -0.3686  0.5606 -3.1414
 4975TIP3   OH236339   4.282   4.466  14.681 -0.0675  0.1608  0.5981
 4975TIP3    H136340   4.210   4.415  14.720  0.7931 -2.1319 -0.6094
 4975TIP3    H236341   4.352   4.402  14.670  1.1557  1.6827 -0.8932
 4976TIP3   OH236342   0.232   2.958  13.094 -0.3864  0.3809 -0.2749
 4976TIP3    H136343   0.255   2.897  13.023  0.2874 -1.4509  1.4280
 4976TIP3    H236344   0.137   2.964  13.090 -0.3774  0.1029 -1.1779
 4977TIP3   OH236345   5.814   1.711  13.621 -0.1704 -0.4732  0.2788
 4977TIP3    H136346   5.780   1.630  13.584 -1.0098 -1.0912  2.2268
 4977TIP3    H236347   5.895   1.728  13.573 -1.2436 -1.0852 -1.8666
 4978TIP3   OH236348   5.226   0.390   1.350  0.1262  0.0668 -0.1406
 4978TIP3    H136349   5.225   0.308   1.302  2.2143 -0.3634  0.4702
 4978TIP3    H236350   5.195   0.367   1.438 -1.0753  0.3363 -0.4662
 4979TIP3   OH236351   4.105   5.416   5.476 -0.4840  0.2000  0.0668
 4979TIP3    H136352   4.047   5.477   5.522 -0.2376 -0.1837  0.9131
 4979TIP3    H236353   4.089   5.332   5.518  1.0038  0.1756  0.6483
 4980TIP3   OH236354   4.600   6.546   4.849 -0.2519 -0.1903 -0.0291
 4980TIP3    H136355   4.612   6.545   4.754  1.0461 -0.9004  0.1121
 4980TIP3    H236356   4.542   6.472   4.867 -0.4000 -0.1316 -0.2592
 4981TIP3   OH236357   1.582   1.763   5.948 -0.1101  0.3366 -0.2570
 4981TIP3    H136358   1.570   1.858   5.956  1.2604  0.6215 -1.2351
 4981TIP3    H236359   1.619   1.736   6.032  1.4931  1.0480 -0.6868
 4982TIP3   OH236360   4.802   2.241   6.372 -0.0060 -0.6869  0.4878
 4982TIP3    H136361   4.756   2.251   6.288  1.5728  0.8337 -0.2697
 4982TIP3    H236362   4.750   2.292   6.434 -0.0311 -0.0203 -0.0709
 4983TIP3   OH236363   1.060   6.395  15.537 -0.0554  0.4941 -0.3249
 4983TIP3    H136364   1.126   6.459  15.512  1.7577 -0.6942  1.1015
 4983TIP3    H236365   0.995   6.446  15.586 -1.5265  2.0872 -3.6196
 4984TIP3   OH236366   2.572   2.478  14.693 -0.3324 -0.6916  0.2584
 4984TIP3    H136367   2.480   2.493  14.713  0.0445  1.2706  0.7123
 4984TIP3    H236368   2.603   2.561  14.657  1.0698 -1.5702 -0.6786
 4985TIP3   OH236369   1.246   2.135  12.872 -0.5950 -0.0969 -0.0405
 4985TIP3    H136370   1.283   2.211  12.917 -1.1141 -0.6755  1.4031
 4985TIP3    H236371   1.319   2.096  12.825 -0.0861  0.6254  0.1406
 4986TIP3   OH236372   3.035   4.062   5.713 -0.1157  0.2371 -0.6540
 4986TIP3    H136373   3.040   3.974   5.676  1.7043  0.0510 -0.0614
 4986TIP3    H236374   3.125   4.083   5.736 -0.9045  1.0467  2.0194
 4987TIP3   OH236375   2.024   4.474  16.442 -0.0630 -0.6522 -0.3807
 4987TIP3    H136376   2.115   4.464  16.471 -0.6701 -0.0499  1.9980
 4987TIP3    H236377   1.975   4.411  16.495 -1.0454 -1.0155 -1.6819
 4988TIP3   OH236378   0.541   1.271   4.109 -0.3103  0.2320  0.2306
 4988TIP3    H136379   0.505   1.348   4.152 -1.2435  0.4732 -0.9398
 4988TIP3    H236380   0.481   1.253   4.037  0.7525 -0.6522 -0.4734
 4989TIP3   OH236381   2.250   0.915  13.573 -0.3085  0.2057 -0.3639
 4989TIP3    H136382   2.183   0.889  13.636  0.5340 -0.3553  0.3384
 4989TIP3    H236383   2.333   0.898  13.619  0.3488 -0.9197 -1.8945
 4990TIP3   OH236384   3.749   0.378  16.263 -0.5183  0.1301 -0.2838
 4990TIP3    H136385   3.762   0.322  16.340 -1.0861  1.3692  0.7664
 4990TIP3    H236386   3.683   0.333  16.211 -1.5072  0.1513  0.9036
 4991TIP3   OH236387   5.476   2.037   4.104 -0.4800  0.4495  0.2883
 4991TIP3    H136388   5.405   2.024   4.167 -0.9953  0.9488 -0.1873
 4991TIP3    H236389   5.480   1.955   4.055 -1.5597  0.8611 -0.5131
 4992TIP3   OH236390   4.321   5.381  15.319  0.1411 -0.3871  0.0952
 4992TIP3    H136391   4.280   5.295  15.321 -2.1584  0.6368  0.4873
 4992TIP3    H236392   4.278   5.430  15.389 -0.9966  2.0387 -2.0975
 4993TIP3   OH236393   3.713   6.233  12.104  0.1919 -0.2759  0.0726
 4993TIP3    H136394   3.766   6.237  12.024 -1.0744 -0.4356 -0.8238
 4993TIP3    H236395   3.696   6.139  12.117 -2.1998 -0.1226 -1.3376
 4994TIP3   OH236396   3.309   4.772   5.338  0.6489 -0.1779 -1.1471
 4994TIP3    H136397   3.319   4.835   5.410 -0.1906  0.4726 -1.5770
 4994TIP3    H236398   3.275   4.824   5.265 -0.4001 -1.1863 -1.4106
 4995TIP3   OH236399   3.006   5.396  13.208 -0.7744 -0.2535 -0.1692
 4995TIP3    H136400   2.918   5.357  13.204 -0.0144 -2.0569 -0.3586
 4995TIP3    H236401   3.001   5.458  13.280 -1.6758 -1.8286  1.1992
 4996TIP3   OH236402   3.722   3.493   1.005  0.6526 -0.0209  0.5875
 4996TIP3    H136403   3.738   3.484   0.911  2.2607  3.7099  0.3051
 4996TIP3    H236404   3.790   3.440   1.047  1.0702 -0.2650 -0.3811
 4997TIP3   OH236405   4.557   0.251   2.986 -0.0343 -0.1356 -0.0835
 4997TIP3    H136406   4.641   0.218   3.017 -0.0967 -0.1319  0.0926
 4997TIP3    H236407   4.578   0.307   2.911  0.1247 -0.0924 -0.0062
 4998TIP3   OH236408   4.941   3.811  16.672 -0.4653 -0.6956  0.3178
 4998TIP3    H136409   4.914   3.737  16.617 -1.8361 -0.3690  0.5065
 4998TIP3    H236410   5.013   3.851  16.624  0.1130 -1.9658  0.0694
 4999TIP3   OH236411   2.168   1.606  13.162  0.0289 -0.3046 -0.3533
 4999TIP3    H136412   2.216   1.559  13.093 -1.5956 -3.3685  0.4114
 4999TIP3    H236413   2.091   1.642  13.118 -0.5913 -1.5618 -0.3335
 5000TIP3   OH236414   5.939   2.295  16.685  0.4156  0.0576  0.1386
 5000TIP3    H136415   5.875   2.224  16.688 -0.2264  0.6570  1.9723
 5000TIP3    H236416   6.017   2.256  16.645 -0.9487 -0.7838 -1.8636
 5001TIP3   OH236417   3.288   1.701   3.519  0.2944  0.1598 -0.5110
 5001TIP3    H136418   3.346   1.644   3.467  0.1829 -0.4996  0.0737
 5001TIP3    H236419   3.338   1.720   3.598 -1.4990 -3.2838  1.6727
 5002TIP3   OH236420   1.359   0.667   3.946  0.3083 -0.3234  0.1071
 5002TIP3    H136421   1.277   0.712   3.967 -0.2266 -0.1602 -2.0589
 5002TIP3    H236422   1.377   0.612   4.023 -1.9360 -0.5148  0.5701
 5003TIP3   OH236423   4.257   0.194  10.900  0.3181 -0.0672  0.4679
 5003TIP3    H136424   4.236   0.106  10.930  1.2187  0.7192  3.8659
 5003TIP3    H236425   4.182   0.247  10.927  0.7209  0.5517  0.3941
 5004TIP3   OH236426   4.528   2.616  16.626 -0.0202  0.2471 -0.3761
 5004TIP3    H136427   4.528   2.524  16.655  1.4123 -0.3122 -2.0322
 5004TIP3    H236428   4.454   2.655  16.673  1.3268 -0.8684  3.0211
 5005TIP3   OH236429   6.186   4.828  15.486  0.1328 -0.2541  0.4874
 5005TIP3    H136430   6.154   4.786  15.406  0.9581 -0.7457  0.4025
 5005TIP3    H236431   6.276   4.796  15.495  0.4342  0.6973  0.9851
 5006TIP3   OH236432   1.821   3.292   3.974  0.1669 -0.0793  0.1437
 5006TIP3    H136433   1.785   3.354   3.910 -0.5236 -0.7132 -0.0894
 5006TIP3    H236434   1.871   3.229   3.922  0.5225  0.0371  0.3398
 5007TIP3   OH236435   2.180   0.284  16.643  0.5710 -0.4250  0.0718
 5007TIP3    H136436   2.205   0.202  16.601  0.7175 -2.1051  3.1617
 5007TIP3    H236437   2.263   0.329  16.661  0.4747  0.6560 -1.9385
 5008TIP3   OH236438   5.913   0.700   5.048 -1.0402  0.5468  0.2578
 5008TIP3    H136439   5.878   0.777   5.003 -2.9750  0.0568  0.8222
 5008TIP3    H236440   5.858   0.628   5.018  0.2500 -0.5122  0.3259
 5009TIP3   OH236441   4.763   0.296  14.209  0.2332 -0.5580 -0.2492
 5009TIP3    H136442   4.750   0.371  14.266  0.2015 -0.1228 -0.8192
 5009TIP3    H236443   4.776   0.222  14.269 -2.1861 -0.5820  0.3646
 5010TIP3   OH236444   4.570   6.622   3.786 -0.1048 -0.2606  0.4573
 5010TIP3    H136445   4.500   6.687   3.796  1.8195  1.9281  0.7434
 5010TIP3    H236446   4.593   6.626   3.693  0.3758 -0.0993  0.5784
 5011TIP3   OH236447   2.294   6.718  13.685 -0.4421 -0.3557 -0.3376
 5011TIP3    H136448   2.323   6.663  13.758 -1.7038 -0.7177 -0.0808
 5011TIP3    H236449   2.330   6.677  13.607  0.3413 -0.3599  0.0211
 5012TIP3   OH236450   1.173   6.486   5.424  0.4507  0.3253 -0.1263
 5012TIP3    H136451   1.210   6.504   5.510  2.4160  2.7743 -1.3674
 5012TIP3    H236452   1.248   6.471   5.368 -0.5391  2.0410 -2.0504
 5013TIP3   OH236453   1.545   3.137   3.710  0.2967 -0.3397 -0.0843
 5013TIP3    H136454   1.451   3.157   3.715 -0.1590 -2.0121 -1.0906
 5013TIP3    H236455   1.587   3.222   3.702 -1.0245  0.5322  1.4702
 5014TIP3   OH236456   6.048   0.017  11.762 -0.4854 -0.4580 -0.6404
 5014TIP3    H136457   6.051   0.102  11.718 -3.3597  0.1761  0.1565
 5014TIP3    H236458   6.000  -0.039  11.701 -1.7727 -0.4338  0.3017
 5015TIP3   OH236459   6.370   6.527  16.640  0.6018 -0.4976 -0.3875
 5015TIP3    H136460   6.379   6.468  16.564  0.3107  0.7182 -1.4056
 5015TIP3    H236461   6.354   6.613  16.601 -2.3386 -0.2602  1.0250
 5016TIP3   OH236462   4.908   6.278   4.952  0.2441  0.6210  0.2684
 5016TIP3    H136463   4.987   6.244   4.910 -0.6358 -0.7919 -0.3214
 5016TIP3    H236464   4.837   6.224   4.918 -0.9698  1.7147  0.9432
 5017TIP3   OH236465   1.673   3.106  11.146 -0.1785 -0.0386  0.6970
 5017TIP3    H136466   1.712   3.193  11.143 -0.3225 -0.0041 -0.5798
 5017TIP3    H236467   1.580   3.121  11.133 -0.1243 -0.4326 -0.1731
 5018TIP3   OH236468   5.194   2.237  14.084 -0.0842  0.1719  0.5295
 5018TIP3    H136469   5.127   2.286  14.036  0.1372 -0.0262  0.0091
 5018TIP3    H236470   5.255   2.305  14.115  0.7037  0.1770 -0.9486
 5019TIP3   OH236471   2.296   3.827  15.215  0.6580 -0.1766  0.1062
 5019TIP3    H136472   2.209   3.796  15.242 -0.1926  0.7427 -1.4438
 5019TIP3    H236473   2.319   3.894  15.279 -0.0842  0.0504  0.1414
 5020TIP3   OH236474   4.418   4.243   2.899 -0.3178 -0.0948  0.5307
 5020TIP3    H136475   4.466   4.264   2.980 -0.6829  1.1672  0.4457
 5020TIP3    H236476   4.437   4.317   2.841  0.7099 -1.4387 -0.9059
 5021TIP3   OH236477   0.727   6.718   1.833  1.0139  0.0247  0.0624
 5021TIP3    H136478   0.678   6.773   1.773  0.6071 -1.4069 -0.9658
 5021TIP3    H236479   0.674   6.715   1.913  0.6890  0.5197 -0.1344
 5022TIP3   OH236480   1.643   5.862  16.014  0.6532  0.1286 -0.5906
 5022TIP3    H136481   1.633   5.767  16.021  1.4696  0.0737  0.1009
 5022TIP3    H236482   1.594   5.897  16.088 -0.3243  0.3058 -1.3119
 5023TIP3   OH236483   2.063   0.055   5.914 -0.0224  0.1465 -0.1291
 5023TIP3    H136484   2.134  -0.005   5.892 -0.7584 -0.5981 -0.5431
 5023TIP3    H236485   2.034   0.089   5.830  0.3658  1.0728  0.1038
 5024TIP3   OH236486   4.429   1.307  17.083 -0.3202  0.4705 -0.0899
 5024TIP3    H136487   4.446   1.242  17.151 -0.8829 -0.4355 -0.7913
 5024TIP3    H236488   4.514   1.346  17.065 -0.0881  0.4125  0.8149
 5025TIP3   OH236489   0.231   1.919  11.996 -0.3695 -0.0502  0.8577
 5025TIP3    H136490   0.219   1.903  11.903  0.2547  0.6955  0.6425
 5025TIP3    H236491   0.322   1.896  12.013 -0.4539 -0.0913  1.2711
 5026TIP3   OH236492   4.294   5.517   4.049 -0.3558 -0.2641  0.5060
 5026TIP3    H136493   4.268   5.567   4.126  0.3994 -1.2605  1.4416
 5026TIP3    H236494   4.387   5.538   4.037 -0.1543 -1.0717  0.6222
 5027TIP3   OH236495   4.149   3.904   4.862  0.2516  0.0935  0.5199
 5027TIP3    H136496   4.075   3.912   4.922 -0.3372 -1.8934  0.1247
 5027TIP3    H236497   4.142   3.981   4.806 -1.7843 -0.2304  0.2370
 5028TIP3   OH236498   3.838   6.545  13.514  0.3162  0.1955 -0.8678
 5028TIP3    H136499   3.787   6.625  13.527  0.8134  0.4503 -0.4671
 5028TIP3    H236500   3.840   6.504  13.600  0.9501  0.2867 -0.8352
 5029TIP3   OH236501   3.971   5.834  12.801 -0.0489  0.2601 -0.7119
 5029TIP3    H136502   3.919   5.757  12.826  1.1044  0.0285  1.2391
 5029TIP3    H236503   3.917   5.909  12.825  0.6079  0.0306  1.8441
 5030TIP3   OH236504   0.146   1.686   2.438 -0.1239 -0.2063 -0.0625
 5030TIP3    H136505   0.207   1.756   2.461 -1.3542  0.9044 -0.0647
 5030TIP3    H236506   0.198   1.606   2.443  1.5296  0.7725 -0.8827
 5031TIP3   OH236507   6.675   3.214  15.205  0.3927 -0.4465 -0.2514
 5031TIP3    H136508   6.631   3.134  15.178  1.1522 -1.2399  0.7717
 5031TIP3    H236509   6.692   3.261  15.123  1.5725 -2.2108 -1.0779
 5032TIP3   OH236510   1.189   2.026   1.751 -0.0441  0.1099  0.0184
 5032TIP3    H136511   1.256   2.042   1.686  2.4919 -0.0907  2.3947
 5032TIP3    H236512   1.191   1.931   1.767 -1.8366 -0.1037 -0.7508
 5033TIP3   OH236513   0.227   0.483  15.615 -0.2840  0.3759  0.0524
 5033TIP3    H136514   0.161   0.543  15.580  0.9154  1.0702 -1.1149
 5033TIP3    H236515   0.252   0.428  15.541  1.3745  1.0117  0.0864
 5034TIP3   OH236516   6.347   2.895  17.348 -0.0681  0.2069  0.0748
 5034TIP3    H136517   6.308   2.922  17.431  2.0069  1.1760  0.8097
 5034TIP3    H236518   6.390   2.974  17.315 -0.0630 -0.4070 -1.4697
 5035TIP3   OH236519   3.154   6.755  14.686 -0.4699  0.1312  0.7148
 5035TIP3    H136520   3.227   6.730  14.742  0.8966  1.9539 -0.1437
 5035TIP3    H236521   3.085   6.782  14.746  0.5864  1.0299  1.5707
 5036TIP3   OH236522   3.569   5.344  12.909  0.4715 -0.3154  0.3193
 5036TIP3    H136523   3.523   5.332  12.826  0.8003 -1.1870  0.2508
 5036TIP3    H236524   3.516   5.408  12.957  1.4746  2.0206 -1.4463
 5037TIP3   OH236525   4.677   6.209   2.146 -0.2786 -0.0330  0.3646
 5037TIP3    H136526   4.660   6.300   2.171  2.3914  0.4040  0.8543
 5037TIP3    H236527   4.725   6.172   2.220 -1.9690 -2.1264  0.4987
 5038TIP3   OH236528   2.842   5.793   0.309 -0.1018  0.6305 -0.0331
 5038TIP3    H136529   2.937   5.802   0.297 -0.0276 -0.9932 -1.1078
 5038TIP3    H236530   2.805   5.808   0.222 -0.5004 -1.6931 -0.3535
 5039TIP3   OH236531   1.682   2.648  10.989 -0.0890 -0.0021  0.0299
 5039TIP3    H136532   1.610   2.600  10.948 -1.3761  2.1417 -0.3942
 5039TIP3    H236533   1.641   2.699  11.058  1.4290 -0.4061  1.2961
 5040TIP3   OH236534   3.982   4.316  14.628  0.3634 -0.0309  0.2628
 5040TIP3    H136535   4.018   4.287  14.544  0.8993  0.4195  0.3285
 5040TIP3    H236536   3.894   4.346  14.608 -0.4220 -2.1523  0.2689
 5041TIP3   OH236537   2.236   1.630   3.316 -0.0099  0.0394 -0.3729
 5041TIP3    H136538   2.153   1.590   3.341 -1.5105  2.9321 -0.2942
 5041TIP3    H236539   2.264   1.581   3.238 -1.9167 -0.8173 -0.5734
 5042TIP3   OH236540   1.216   2.194   6.609 -0.5256  0.1916 -0.5159
 5042TIP3    H136541   1.160   2.152   6.674 -2.6336 -1.0146 -2.9066
 5042TIP3    H236542   1.268   2.123   6.573 -0.9194  0.3992 -1.5451
 5043TIP3   OH236543   2.209   2.567   5.269  0.2017 -0.5905 -0.7865
 5043TIP3    H136544   2.297   2.599   5.250 -0.2618  1.3197  0.0192
 5043TIP3    H236545   2.168   2.558   5.183 -0.1982  2.8280 -1.0997
 5044TIP3   OH236546   4.416   0.412   5.315 -0.0407  0.4101 -0.3407
 5044TIP3    H136547   4.409   0.500   5.350 -1.0977  0.7466 -1.3753
 5044TIP3    H236548   4.331   0.371   5.332  0.7644 -0.7861  1.0654
 5045TIP3   OH236549   5.119   4.079   5.385 -0.1427  0.3573 -0.5576
 5045TIP3    H136550   5.168   4.030   5.451 -4.1481 -2.2008  0.9223
 5045TIP3    H236551   5.101   4.163   5.426  0.4258  0.1492  0.1365
 5046TIP3   OH236552   5.584   1.395   4.148 -0.5603  0.5200  0.0171
 5046TIP3    H136553   5.549   1.455   4.083 -1.9035 -1.2270 -0.9813
 5046TIP3    H236554   5.529   1.408   4.226 -0.7814  0.6507 -0.1618
 5047TIP3   OH236555   1.320   1.014   0.294 -0.5055 -0.3666  0.5583
 5047TIP3    H136556   1.388   0.949   0.313  0.1643  0.4148  0.9019
 5047TIP3    H236557   1.273   1.025   0.376  1.1217  1.5474  1.3192
 5048TIP3   OH236558   1.693   3.791   0.566 -0.3354 -0.1345  0.3386
 5048TIP3    H136559   1.636   3.842   0.624 -0.0171 -0.3402  0.8358
 5048TIP3    H236560   1.646   3.790   0.483  0.3336  2.2125 -0.1271
 5049TIP3   OH236561   0.951   4.501   0.937 -0.2945  0.4413  0.3773
 5049TIP3    H136562   1.046   4.502   0.929 -0.3359  2.2204 -0.3007
 5049TIP3    H236563   0.920   4.531   0.851 -1.4620  0.0709  0.6523
 5050TIP3   OH236564   4.230   3.809  15.102 -0.2561  1.1551  0.2886
 5050TIP3    H136565   4.286   3.828  15.177 -0.5719  0.9946  0.5685
 5050TIP3    H236566   4.279   3.744  15.052 -0.5944  0.3125  1.0218
 5051TIP3   OH236567   5.127   6.505   4.176 -0.3491 -0.1514 -0.1697
 5051TIP3    H136568   5.066   6.437   4.147 -0.2704 -0.0764 -0.5226
 5051TIP3    H236569   5.187   6.460   4.235 -1.7098  0.1069  1.4954
 5052TIP3   OH236570   1.040   5.507   0.816  0.6338 -0.5750  0.4872
 5052TIP3    H136571   1.113   5.471   0.866  0.6295  0.9469  1.6468
 5052TIP3    H236572   1.018   5.438   0.754  2.3222 -1.5038  0.8555
 5053TIP3   OH236573   1.433   6.322  12.403  0.7022 -0.6009 -0.3505
 5053TIP3    H136574   1.372   6.286  12.468  2.4973 -2.0297  0.6715
 5053TIP3    H236575   1.434   6.258  12.332  1.2103 -0.7377 -0.2252
 5054TIP3   OH236576   6.070   5.610  15.129  0.3412  0.0514  0.3217
 5054TIP3    H136577   6.135   5.673  15.161  0.5946 -0.9802  1.9735
 5054TIP3    H236578   6.119   5.553  15.070  0.9502 -0.6375  1.4555
 5055TIP3   OH236579   5.765   3.173   0.990 -0.2457  0.2025  0.6654
 5055TIP3    H136580   5.787   3.235   1.059  1.5138  0.1110  0.2348
 5055TIP3    H236581   5.849   3.150   0.951 -1.0605 -0.9081 -0.5137
 5056TIP3   OH236582   2.842   3.030  11.294 -0.2045 -0.0184  0.6364
 5056TIP3    H136583   2.756   2.997  11.267 -0.2183 -0.9305  1.7419
 5056TIP3    H236584   2.843   3.121  11.263 -2.0313  0.3839  1.6175
 5057TIP3   OH236585   0.890   5.346   4.951 -0.7999 -0.4236  0.5350
 5057TIP3    H136586   0.957   5.389   4.898 -1.9088  0.3856 -0.2424
 5057TIP3    H236587   0.808   5.390   4.928 -1.4318 -0.4978  2.4330
 5058TIP3   OH236588   3.688   1.011  12.264  0.4578 -0.0069  0.2948
 5058TIP3    H136589   3.780   0.990  12.249  0.4598  0.6052 -0.6574
 5058TIP3    H236590   3.651   0.931  12.301  1.5328 -0.0007  1.4464
 5059TIP3   OH236591   5.006   1.486   5.751  0.1173 -0.5373  0.0229
 5059TIP3    H136592   5.033   1.576   5.773  0.9739 -0.2056 -2.1383
 5059TIP3    H236593   5.047   1.432   5.819  0.0310  0.6454  1.0614
 5060TIP3   OH236594   5.538   5.214   1.061  0.1997 -0.9951 -0.1723
 5060TIP3    H136595   5.570   5.177   1.144 -0.1818  0.1187  0.4929
 5060TIP3    H236596   5.461   5.160   1.040  2.4186 -3.7869 -1.8640
 5061TIP3   OH236597   0.721   5.413  14.344  0.0469 -0.0699  0.4888
 5061TIP3    H136598   0.639   5.378  14.380 -0.1465  0.4307  0.5364
 5061TIP3    H236599   0.721   5.383  14.253 -0.0070 -0.3865  0.5900
 5062TIP3   OH236600   5.250   0.925   1.975  0.3699 -0.0518  0.0125
 5062TIP3    H136601   5.185   0.858   1.955  1.0244 -0.4977 -0.6742
 5062TIP3    H236602   5.278   0.958   1.889  0.5596  0.6092  0.3185
 5063TIP3   OH236603   1.508   0.239  16.550 -0.0366  0.0624 -0.4093
 5063TIP3    H136604   1.496   0.330  16.522 -2.6594 -0.4089 -1.1465
 5063TIP3    H236605   1.588   0.210  16.506  0.2552  1.6948 -1.0259
 5064TIP3   OH236606   5.599   0.391  17.002 -0.1788  0.7288  0.1163
 5064TIP3    H136607   5.676   0.405  17.057 -0.0804  2.7896 -0.4491
 5064TIP3    H236608   5.626   0.421  16.915 -1.1885  0.1485 -0.4077
 5065TIP3   OH236609   3.607   4.846   5.428  1.0811  0.0480 -0.0384
 5065TIP3    H136610   3.683   4.795   5.399  1.4988  0.7401 -0.1699
 5065TIP3    H236611   3.582   4.897   5.351  0.2632 -0.4196 -0.0995
 5066TIP3   OH236612   1.507   2.143  15.363 -0.4283 -0.0390  0.6340
 5066TIP3    H136613   1.547   2.219  15.405  0.5311  0.7283 -1.5593
 5066TIP3    H236614   1.560   2.069  15.391  1.1540  0.6696 -0.3925
 5067TIP3   OH236615   0.946   6.186   5.003  0.1400 -0.0579 -0.1669
 5067TIP3    H136616   0.970   6.193   5.095 -1.2577 -0.2973  0.2306
 5067TIP3    H236617   0.860   6.227   4.997  0.0301 -0.4261 -1.2862
 5068TIP3   OH236618   3.135   3.299  16.448 -0.5396 -0.2276  0.3156
 5068TIP3    H136619   3.104   3.350  16.523 -1.7072  1.5291 -1.2806
 5068TIP3    H236620   3.206   3.351  16.411 -1.5346  0.1285 -1.1525
 5069TIP3   OH236621   4.262   2.119  17.109 -0.0331  0.4329 -0.1605
 5069TIP3    H136622   4.348   2.154  17.132 -0.5667  0.9074  1.2652
 5069TIP3    H236623   4.205   2.149  17.180 -1.2388 -0.4284 -0.7353
 5070TIP3   OH236624   3.809   6.341  15.307  0.0642 -0.3389  0.5953
 5070TIP3    H136625   3.784   6.373  15.220 -0.1650  1.3895  1.2464
 5070TIP3    H236626   3.885   6.394  15.330 -0.0449 -0.5883  1.5530
 5071TIP3   OH236627   0.996   4.820  12.529  0.0845 -0.3213 -0.4697
 5071TIP3    H136628   0.950   4.766  12.593  0.0063  0.2839 -0.0101
 5071TIP3    H236629   1.087   4.792  12.534 -0.2053 -1.4980 -1.3558
 5072TIP3   OH236630   5.341   3.611   1.689 -0.0441 -0.3376 -0.0092
 5072TIP3    H136631   5.257   3.569   1.705  1.8738 -3.8883  2.3961
 5072TIP3    H236632   5.344   3.625   1.595 -3.2475 -0.0887 -0.1632
 5073TIP3   OH236633   0.262   0.919  11.692 -0.4042  0.2382 -0.0111
 5073TIP3    H136634   0.182   0.901  11.642 -0.4968  1.2663 -0.2384
 5073TIP3    H236635   0.300   0.996  11.651  0.9737 -0.5069 -0.2079
 5074TIP3   OH236636   0.813   0.081   0.514 -0.5059 -0.3281  0.2609
 5074TIP3    H136637   0.908   0.087   0.502 -0.3359 -0.8685  1.1952
 5074TIP3    H236638   0.777   0.137   0.446  0.5084  0.4988  0.3698
 5075TIP3   OH236639   3.595   6.120  15.339 -0.2457 -0.0687 -0.0348
 5075TIP3    H136640   3.532   6.149  15.406 -1.0122  0.1890 -0.8474
 5075TIP3    H236641   3.658   6.191  15.333  1.2795 -1.1312  2.1502
 5076TIP3   OH236642   6.705   5.252  11.210  0.4620  0.2429  0.1853
 5076TIP3    H136643   6.735   5.335  11.173  1.2395  0.8354  2.0084
 5076TIP3    H236644   6.734   5.186  11.147  3.9897  0.9490  0.8134
 5077TIP3   OH236645   5.691   0.407  15.145  0.8066  0.2969 -0.5099
 5077TIP3    H136646   5.710   0.493  15.182  0.2738  0.6604 -1.0572
 5077TIP3    H236647   5.693   0.421  15.050 -2.0547  0.3865 -0.6456
 5078TIP3   OH236648   3.688   2.874  17.096 -0.0721  0.2503  0.0370
 5078TIP3    H136649   3.640   2.950  17.128  1.9364  1.1893  0.9789
 5078TIP3    H236650   3.748   2.909  17.030 -0.4098 -0.8382 -0.8785
 5079TIP3   OH236651   1.416   2.797   2.897 -0.0186  0.0083  0.4636
 5079TIP3    H136652   1.487   2.810   2.960  0.0128 -1.4383  0.7499
 5079TIP3    H236653   1.344   2.761   2.949  0.2933 -2.0295 -0.4284
 5080TIP3   OH236654   0.929   3.767   5.326 -0.8390 -0.1122  0.6190
 5080TIP3    H136655   0.878   3.804   5.398 -0.4224  0.6632  0.5289
 5080TIP3    H236656   1.003   3.827   5.316 -0.8450 -0.2586 -0.4014
 5081TIP3   OH236657   0.080   5.122  15.698  0.4757  0.1108 -0.3503
 5081TIP3    H136658   0.140   5.079  15.636 -0.2325 -1.5193  0.0393
 5081TIP3    H236659   0.085   5.215  15.675  1.3226 -0.2717 -1.9057
 5082TIP3   OH236660   5.212   2.887  12.515  0.3481 -0.2398  0.4115
 5082TIP3    H136661   5.286   2.900  12.455 -0.5667 -0.8932 -0.8932
 5082TIP3    H236662   5.205   2.792  12.524  0.4052 -0.1509  1.4867
 5083TIP3   OH236663   4.075   6.129  12.243  0.0841  0.1795  0.0366
 5083TIP3    H136664   4.006   6.181  12.284  1.6195  1.2569  1.4098
 5083TIP3    H236665   4.103   6.180  12.167  0.4422  0.5724  0.4203
 5084TIP3   OH236666   2.044   5.112  14.446  0.0567 -0.5440 -0.0263
 5084TIP3    H136667   2.101   5.190  14.439  0.3889 -0.9103 -2.1058
 5084TIP3    H236668   2.000   5.123  14.530  0.0652  1.9235 -0.2493
 5085TIP3   OH236669   5.762   5.830   0.445 -0.1424 -0.9464  0.0257
 5085TIP3    H136670   5.828   5.885   0.487 -0.6794 -0.3598  0.1314
 5085TIP3    H236671   5.769   5.746   0.489 -0.6921 -0.3448  1.3260
 5086TIP3   OH236672   4.057   4.496   4.027 -0.0151 -0.0046  1.1785
 5086TIP3    H136673   4.020   4.562   3.969  0.4449  0.2182  1.1403
 5086TIP3    H236674   4.151   4.500   4.011  0.1245  0.1331  2.0189
 5087TIP3   OH236675   2.976   2.394   1.792 -0.4153  0.6978 -0.1231
 5087TIP3    H136676   3.052   2.446   1.765 -0.9774  1.4881 -0.2012
 5087TIP3    H236677   3.006   2.303   1.783  0.9862  0.9824  1.1414
 5088TIP3   OH236678   4.330   1.122  11.862  0.1208  0.4275 -0.4717
 5088TIP3    H136679   4.302   1.213  11.870 -1.9081 -0.2321  0.6236
 5088TIP3    H236680   4.343   1.092  11.952 -1.7476 -1.0286 -0.6141
 5089TIP3   OH236681   2.577   2.651   0.392 -0.1943 -0.3349 -1.0220
 5089TIP3    H136682   2.495   2.687   0.427 -0.2383 -0.2067 -1.2497
 5089TIP3    H236683   2.645   2.691   0.446 -0.1721  0.9480 -1.9414
 5090TIP3   OH236684   2.639   3.795   1.290 -0.1357  0.6119 -0.2705
 5090TIP3    H136685   2.660   3.889   1.296  2.8923  0.1788 -1.7346
 5090TIP3    H236686   2.565   3.791   1.229 -2.7250  2.1436  2.5258
 5091TIP3   OH236687   1.627   5.652   2.485 -0.1190  0.0692  0.3506
 5091TIP3    H136688   1.686   5.597   2.537 -1.1794 -0.6041  0.8886
 5091TIP3    H236689   1.599   5.721   2.546 -1.7835 -1.0264  0.8911
 5092TIP3   OH236690   2.613   3.686  12.228 -0.1154 -0.1382  0.0802
 5092TIP3    H136691   2.600   3.779  12.244  1.0906  0.1677 -0.6196
 5092TIP3    H236692   2.689   3.682  12.170 -1.3674 -1.4398 -1.5635
 5093TIP3   OH236693   0.573   2.320  13.364 -0.2964 -0.6242  0.0088
 5093TIP3    H136694   0.480   2.318  13.342 -0.3253  1.2184 -0.1314
 5093TIP3    H236695   0.615   2.362  13.289  0.1405  1.8908  1.5383
 5094TIP3   OH236696   6.675   6.208   4.229 -0.1062  0.0798 -0.2873
 5094TIP3    H136697   6.711   6.277   4.173  0.1302  0.6262  0.5245
 5094TIP3    H236698   6.751   6.161   4.262 -0.2445 -0.2445 -0.4239
 5095TIP3   OH236699   1.575   5.575  16.990  0.1251 -0.6200  0.0240
 5095TIP3    H136700   1.593   5.652  17.043  3.1049 -0.6282 -0.8313
 5095TIP3    H236701   1.644   5.513  17.013 -1.0879 -2.3097 -0.6872
 5096TIP3   OH236702   2.394   3.547   1.156  0.1284  0.1582 -0.2456
 5096TIP3    H136703   2.451   3.507   1.091 -1.6431 -1.3875 -0.9303
 5096TIP3    H236704   2.411   3.641   1.148  0.4384 -0.0258 -2.5045
 5097TIP3   OH236705   6.540   2.852  11.294 -0.3797 -0.3807  0.1366
 5097TIP3    H136706   6.629   2.883  11.276 -0.2861  1.0748  2.5117
 5097TIP3    H236707   6.506   2.915  11.359 -1.6559 -3.1178  2.3452
 5098TIP3   OH236708   3.620   1.550   1.118  0.3484  0.3050  0.2078
 5098TIP3    H136709   3.660   1.597   1.192 -0.0138  0.2326  0.4533
 5098TIP3    H236710   3.565   1.484   1.159 -0.0718  0.4452 -0.1266
 5099TIP3   OH236711   0.399   1.976  17.041 -0.4032 -0.0419  0.1393
 5099TIP3    H136712   0.430   2.059  17.076 -2.6371  0.0592  2.0371
 5099TIP3    H236713   0.393   1.991  16.946 -0.5075  1.8738  0.4167
 5100TIP3   OH236714   0.939   4.577   4.302 -0.2244  0.9023 -0.3892
 5100TIP3    H136715   1.020   4.529   4.290 -0.1982  1.3095 -2.1178
 5100TIP3    H236716   0.945   4.615   4.390  1.4069  0.8597 -0.4671
 5101TIP3   OH236717   2.340   5.912  14.277  0.1697 -0.3338  0.0591
 5101TIP3    H136718   2.430   5.943  14.267  0.1007 -0.2069 -0.1955
 5101TIP3    H236719   2.312   5.944  14.362 -0.5900  2.1119 -1.0219
 5102TIP3   OH236720   0.948   0.209  11.978  0.2299 -0.0322 -0.9863
 5102TIP3    H136721   1.024   0.264  11.998  0.2613 -0.4020 -0.0442
 5102TIP3    H236722   0.976   0.121  12.001 -0.5227 -0.1574 -0.5364
 5103TIP3   OH236723   1.766   0.977  13.175  0.0565  0.5326 -0.1245
 5103TIP3    H136724   1.856   1.009  13.180  0.3137 -0.2273  0.2094
 5103TIP3    H236725   1.713   1.056  13.185  0.6704  1.1160 -1.1886
 5104TIP3   OH236726   6.553   0.593  10.571  0.2035  0.6176  0.0146
 5104TIP3    H136727   6.498   0.634  10.504 -0.5876  1.9068  1.3913
 5104TIP3    H236728   6.632   0.647  10.575  0.0598  0.8034  0.4105
 5105TIP3   OH236729   6.744   4.803  16.028  0.5194 -0.1075  0.1612
 5105TIP3    H136730   6.694   4.876  15.992  1.2828  0.7963  0.8837
 5105TIP3    H236731   6.751   4.740  15.956  0.7828  1.0097 -0.8192
 5106TIP3   OH236732   3.534   5.084   3.375 -0.4604 -0.7773  0.2746
 5106TIP3    H136733   3.611   5.062   3.427 -1.2871  0.9353  2.3753
 5106TIP3    H236734   3.499   5.000   3.347  1.4702 -1.6366  0.2745
 5107TIP3   OH236735   4.902   4.096  11.538 -0.1254  0.2805  0.4431
 5107TIP3    H136736   4.917   4.177  11.586  0.1316  0.7928 -0.4815
 5107TIP3    H236737   4.986   4.050  11.540  0.3360  1.0225 -0.8140
 5108TIP3   OH236738   3.199   6.233  16.144 -0.7211 -0.4966 -0.2551
 5108TIP3    H136739   3.196   6.266  16.234  0.6771 -0.6144 -0.1481
 5108TIP3    H236740   3.110   6.246  16.111 -1.3099 -0.6352  1.2045
 5109TIP3   OH236741   0.489   4.517  12.011  0.4947  0.0965  0.0707
 5109TIP3    H136742   0.417   4.565  11.969  1.1256  1.4556  0.4667
 5109TIP3    H236743   0.458   4.427  12.016 -0.6197  0.3840 -1.0039
 5110TIP3   OH236744   0.419   3.138  11.459 -0.2660  0.1837 -0.2345
 5110TIP3    H136745   0.441   3.046  11.448  0.6643  0.3494  0.1515
 5110TIP3    H236746   0.347   3.154  11.398  0.8077 -0.3356 -1.6733
 5111TIP3   OH236747   0.761   1.752   2.870 -0.2236  0.2780 -0.8273
 5111TIP3    H136748   0.852   1.767   2.896 -0.3195 -1.4394  0.7028
 5111TIP3    H236749   0.720   1.838   2.878  0.4992  0.4527  1.8688
 5112TIP3   OH236750   1.219   3.884   4.015 -0.1005 -0.2931  0.3640
 5112TIP3    H136751   1.185   3.907   3.929  0.7778 -0.8771 -0.1649
 5112TIP3    H236752   1.267   3.962   4.043  1.3566 -0.7639 -0.6285
 5113TIP3   OH236753   5.851   4.331  12.135 -0.5769  0.3867 -0.5115
 5113TIP3    H136754   5.942   4.331  12.104  0.1795 -0.9534  1.4485
 5113TIP3    H236755   5.850   4.396  12.204 -0.0989 -1.8801  1.8047
 5114TIP3   OH236756   5.821   6.278  14.424 -0.2830  0.1692  0.0302
 5114TIP3    H136757   5.765   6.201  14.421  0.9569 -0.7545 -1.0149
 5114TIP3    H236758   5.906   6.246  14.394 -0.0718  2.2047 -1.8214
 5115TIP3   OH236759   1.506   4.081  15.621 -0.3544  0.4144 -0.6369
 5115TIP3    H136760   1.537   4.168  15.644  0.2675  0.1194 -0.3429
 5115TIP3    H236761   1.513   4.030  15.702  0.5852 -0.2648 -1.1216
 5116TIP3   OH236762   4.822   0.872  12.448  0.3647  0.2212  0.3243
 5116TIP3    H136763   4.831   0.813  12.373 -0.7159  0.5492 -0.0777
 5116TIP3    H236764   4.873   0.950  12.424 -1.2659  0.9967 -0.8048
 5117TIP3   OH236765   1.910   5.723   0.759  0.1557 -0.1468 -0.1501
 5117TIP3    H136766   1.847   5.781   0.802 -0.9091 -0.0714 -1.7384
 5117TIP3    H236767   1.908   5.643   0.811 -1.0740 -0.0474 -0.0068
 5118TIP3   OH236768   5.345   4.089  13.879 -0.4538  0.0924 -0.5790
 5118TIP3    H136769   5.355   4.059  13.789  2.5105  1.9611 -0.9999
 5118TIP3    H236770   5.426   4.062  13.923 -0.4117  1.9656  0.6140
 5119TIP3   OH236771   4.027   6.135  16.840 -0.0244  0.5962 -0.1101
 5119TIP3    H136772   4.053   6.057  16.888  1.6046  1.6425  0.8102
 5119TIP3    H236773   3.934   6.144  16.857 -0.3407 -1.3070 -0.5368
 5120TIP3   OH236774   2.065   1.207   1.272  0.6244 -0.6933 -0.0688
 5120TIP3    H136775   2.075   1.188   1.365 -0.1103  1.6353  0.5411
 5120TIP3    H236776   1.980   1.171   1.249 -0.0703  0.4111  0.6785
 5121TIP3   OH236777   6.647   2.708  13.750 -0.0641 -0.1431 -0.1912
 5121TIP3    H136778   6.625   2.708  13.843 -0.0170 -3.8192 -0.0200
 5121TIP3    H236779   6.728   2.760  13.744  1.3880 -1.8858  2.3392
 5122TIP3   OH236780   1.720   5.463  10.195 -0.4009  0.3759 -0.0739
 5122TIP3    H136781   1.640   5.431  10.153 -0.9240  0.8396  0.5479
 5122TIP3    H236782   1.741   5.397  10.260 -0.6623  0.5799  0.2206
 5123TIP3   OH236783   4.675   2.723   3.438 -0.2433  0.2597 -0.7398
 5123TIP3    H136784   4.585   2.754   3.429 -0.2329 -0.1458 -2.6972
 5123TIP3    H236785   4.724   2.798   3.469 -1.3620  0.2891  1.0776
 5124TIP3   OH236786   1.544   1.149  13.350  0.3402 -0.0703  0.2545
 5124TIP3    H136787   1.492   1.227  13.369 -0.9788 -0.1333 -2.6363
 5124TIP3    H236788   1.582   1.125  13.435  0.7489  3.6131  1.2973
 5125TIP3   OH236789   1.441   5.163  16.041 -0.5313  0.6418  0.1544
 5125TIP3    H136790   1.471   5.082  16.082 -2.4481  0.3516  1.0830
 5125TIP3    H236791   1.374   5.135  15.978  0.5262  1.3232 -1.3388
 5126TIP3   OH236792   3.105   0.400  15.975 -0.1414  0.3026  0.1533
 5126TIP3    H136793   3.028   0.457  15.968 -0.4377 -0.1793 -0.4718
 5126TIP3    H236794   3.146   0.403  15.889 -0.1669 -0.4496  0.1118
 5127TIP3   OH236795   1.548   1.367  10.793 -0.4362  0.3214 -0.2878
 5127TIP3    H136796   1.626   1.318  10.765 -0.5678  0.1211 -0.3040
 5127TIP3    H236797   1.582   1.454  10.816 -0.4592  0.8728 -2.1268
 5128TIP3   OH236798   5.616   2.026  13.148  0.5099 -0.0295  0.2307
 5128TIP3    H136799   5.547   2.090  13.164 -1.4614 -1.5539 -1.5670
 5128TIP3    H236800   5.658   2.013  13.233 -0.7720  1.6529  1.1704
 5129TIP3   OH236801   5.750   3.054  17.332  0.4531  0.2215  0.3081
 5129TIP3    H136802   5.744   3.111  17.255  2.5527  1.4490  0.9701
 5129TIP3    H236803   5.844   3.047  17.349  0.2799 -3.2027  0.5102
 5130TIP3   OH236804   4.621   3.312   5.001  0.0976  0.0582 -0.3755
 5130TIP3    H136805   4.693   3.367   4.970  0.3269 -0.0266  0.0127
 5130TIP3    H236806   4.663   3.235   5.039 -0.2181 -0.3008 -0.7357
 5131TIP3   OH236807   5.584   3.788   0.676 -0.3555 -0.3555 -0.3690
 5131TIP3    H136808   5.502   3.744   0.653 -0.1008 -0.9881 -0.0753
 5131TIP3    H236809   5.569   3.879   0.651 -0.8819 -0.6026 -1.0047
 5132TIP3   OH236810   3.132   5.463   1.220 -0.3003  0.5444  0.2762
 5132TIP3    H136811   3.068   5.517   1.266 -0.6937 -0.8240  1.4101
 5132TIP3    H236812   3.153   5.393   1.282  2.2816  0.9121 -0.0528
 5133TIP3   OH236813   4.585   2.889   1.378  0.5837 -0.0456  0.2396
 5133TIP3    H136814   4.651   2.959   1.379 -0.0942  0.6205 -0.5255
 5133TIP3    H236815   4.583   2.859   1.288  0.5818 -0.7831  0.4834
 5134TIP3   OH236816   4.733   3.078   5.106 -0.1023  0.3250 -0.1333
 5134TIP3    H136817   4.745   2.997   5.057 -1.1539 -0.7737  1.3335
 5134TIP3    H236818   4.817   3.123   5.099  0.8217 -1.3479 -0.1788
 5135TIP3   OH236819   4.270   0.952   1.246 -0.1732  0.5023 -0.1988
 5135TIP3    H136820   4.178   0.943   1.272 -0.2750 -0.9684 -0.9247
 5135TIP3    H236821   4.313   0.876   1.285  0.3952  0.3005 -1.1881
 5136TIP3   OH236822   0.930   1.122  12.005  0.7096  0.2255  0.3159
 5136TIP3    H136823   0.987   1.156  12.073 -0.5913  0.9314  1.1077
 5136TIP3    H236824   0.936   1.026  12.013 -0.6131  0.2678  2.5199
 5137TIP3   OH236825   3.203   4.570  13.198 -0.8859  0.2752 -0.0732
 5137TIP3    H136826   3.287   4.540  13.233 -1.6740 -0.5914  1.1211
 5137TIP3    H236827   3.219   4.662  13.174  0.0904  0.4613  1.1828
 5138TIP3   OH236828   0.629   1.467   0.516  0.2462  0.1837  0.7647
 5138TIP3    H136829   0.599   1.489   0.428  0.6929 -1.3372  0.2020
 5138TIP3    H236830   0.581   1.388   0.539  0.0580  0.6242  1.9396
 5139TIP3   OH236831   3.462   1.571  11.844 -0.6722 -0.2778  0.1995
 5139TIP3    H136832   3.383   1.519  11.825 -0.6088 -0.3413  0.1069
 5139TIP3    H236833   3.534   1.514  11.820 -0.5540 -0.7420  1.5731
 5140TIP3   OH236834   4.163   2.778  14.046  0.0925 -0.3275 -0.5674
 5140TIP3    H136835   4.100   2.847  14.026  0.8210  0.2095 -1.0572
 5140TIP3    H236836   4.168   2.777  14.142 -1.5173 -1.1842 -0.4436
 5141TIP3   OH236837   0.507   5.593  12.289  0.5958 -0.2019  0.0504
 5141TIP3    H136838   0.424   5.597  12.241 -0.0426  1.2780  1.2256
 5141TIP3    H236839   0.486   5.544  12.369  0.7761  0.4321  0.4901
 5142TIP3   OH236840   2.094   4.564  16.762 -0.3629  0.4968 -0.2773
 5142TIP3    H136841   2.130   4.478  16.740 -2.5603 -0.5964  0.0215
 5142TIP3    H236842   2.008   4.544  16.801  0.1087  2.7113  2.1654
 5143TIP3   OH236843   0.955   2.828   3.752 -0.1369 -0.1506 -0.2355
 5143TIP3    H136844   0.877   2.783   3.786  0.2949 -0.4838  0.3278
 5143TIP3    H236845   0.935   2.921   3.764 -0.9586 -0.1689 -1.2412
 5144TIP3   OH236846   2.259   2.605   5.721  0.4851 -0.3592 -0.3501
 5144TIP3    H136847   2.305   2.686   5.699  0.9350 -0.4963  0.0503
 5144TIP3    H236848   2.284   2.588   5.813  0.9333 -1.2898 -0.6314
 5145TIP3   OH236849   5.511   2.823  13.079 -0.0333 -0.5337  0.8907
 5145TIP3    H136850   5.487   2.746  13.028  2.6428 -0.1147 -1.1992
 5145TIP3    H236851   5.495   2.897  13.020  1.3109  0.1465  1.3514
 5146TIP3   OH236852   6.287   0.063  16.129  0.0045 -0.2264 -0.1508
 5146TIP3    H136853   6.248   0.147  16.107  1.8865  0.3843 -1.4121
 5146TIP3    H236854   6.371   0.086  16.169 -0.8349 -1.4702  2.6174
 5147TIP3   OH236855   2.537   0.702   0.213 -0.4372 -0.5402 -0.0053
 5147TIP3    H136856   2.628   0.702   0.184  0.2229  1.0193  1.8658
 5147TIP3    H236857   2.509   0.793   0.201 -1.2446 -0.6658  0.9001
 5148TIP3   OH236858   0.967   4.393   6.512 -0.0996 -0.2325  0.1167
 5148TIP3    H136859   1.000   4.415   6.425  1.6685  0.7425  0.9868
 5148TIP3    H236860   0.998   4.464   6.568 -0.9987 -0.9656  1.5975
 5149TIP3   OH236861   5.370   0.811   5.365 -0.1978 -0.1436 -0.4099
 5149TIP3    H136862   5.350   0.761   5.443 -0.4928 -0.6934 -0.8313
 5149TIP3    H236863   5.369   0.902   5.394 -1.1726 -0.2819  0.0478
 5150TIP3   OH236864   6.075   2.409   0.030  0.2782  0.2769  0.0901
 5150TIP3    H136865   6.158   2.376   0.065 -0.0022 -0.9827 -0.3755
 5150TIP3    H236866   6.018   2.414   0.107  0.2690 -0.5221  0.1387
 5151TIP3   OH236867   3.860   2.974  12.018  0.1806 -0.1232  0.0255
 5151TIP3    H136868   3.946   2.934  12.005  0.3969 -0.2163  1.6073
 5151TIP3    H236869   3.829   2.939  12.101 -0.2510  1.8975  0.7680
 5152TIP3   OH236870   1.018   6.178   2.006  0.2171 -0.3373  0.3595
 5152TIP3    H136871   1.030   6.133   1.923  0.4864 -1.7307  1.1163
 5152TIP3    H236872   0.962   6.120   2.057  0.5994  0.1642  1.3860
 5153TIP3   OH236873   5.624   5.591   0.866 -0.0043 -0.0378  0.3854
 5153TIP3    H136874   5.644   5.625   0.954  2.1095  1.0078 -0.4443
 5153TIP3    H236875   5.562   5.654   0.830  1.8857  1.6176 -0.1545
 5154TIP3   OH236876   4.900   6.167   6.114 -0.2446 -0.1247  0.1706
 5154TIP3    H136877   4.808   6.159   6.092 -0.3936  2.2456 -0.3733
 5154TIP3    H236878   4.901   6.218   6.196  0.5535  2.0147 -1.0785
 5155TIP3   OH236879   1.523   0.852   6.559  0.0572 -0.6590 -0.1460
 5155TIP3    H136880   1.535   0.943   6.585  1.7891  0.0145 -2.8801
 5155TIP3    H236881   1.456   0.856   6.490  0.2928 -1.4159 -0.4227
 5156TIP3   OH236882   1.308   4.698  13.260  0.4718  0.0390  0.3181
 5156TIP3    H136883   1.342   4.690  13.171 -0.7333  1.5429 -0.3252
 5156TIP3    H236884   1.371   4.755  13.305  0.3014  0.5259 -0.0431
 5157TIP3   OH236885   0.119   2.066  16.862  0.8910 -0.4018  0.0781
 5157TIP3    H136886   0.134   1.978  16.827 -1.7908 -1.3015  0.9004
 5157TIP3    H236887   0.175   2.123  16.809  1.2243 -2.3506 -1.8184
 5158TIP3   OH236888   1.864   6.430   0.182 -0.7318  0.0224  0.4377
 5158TIP3    H136889   1.891   6.338   0.180 -0.1421  0.1547  1.6026
 5158TIP3    H236890   1.768   6.426   0.186 -0.6957 -0.5739  1.1343
 5159TIP3   OH236891   1.964   2.493  16.064 -0.1772 -0.5719  0.2889
 5159TIP3    H136892   1.950   2.512  15.971 -1.8458  0.3914  0.6917
 5159TIP3    H236893   2.045   2.539  16.086  0.7279 -1.5434 -0.8622
 5160TIP3   OH236894   0.662   2.315  13.024  0.4142  0.2338  0.0554
 5160TIP3    H136895   0.716   2.307  12.946 -0.4476  0.0363 -0.5290
 5160TIP3    H236896   0.677   2.232  13.071  1.3691  0.5859  0.4074
 5161TIP3   OH236897   0.351   6.132  13.178 -0.1880 -1.1605 -0.2512
 5161TIP3    H136898   0.311   6.212  13.213 -0.6755 -2.1150  1.5121
 5161TIP3    H236899   0.305   6.115  13.097  0.1418  0.5052 -0.8306
 5162TIP3   OH236900   4.203   0.799   6.057  0.2305  0.7750  0.5518
 5162TIP3    H136901   4.173   0.888   6.043 -2.0448  0.1446  1.0410
 5162TIP3    H236902   4.232   0.797   6.148 -0.5754  0.7932  0.8102
 5163TIP3   OH236903   1.141   1.925   4.861  0.6210  0.0501  0.3465
 5163TIP3    H136904   1.165   1.930   4.768 -0.5406  0.9764  0.0837
 5163TIP3    H236905   1.167   2.010   4.896  1.0941 -0.3153  0.8985
 5164TIP3   OH236906   0.559   6.006   0.061 -0.1775  0.1978  0.3847
 5164TIP3    H136907   0.609   5.925   0.051 -0.1938  0.0673  1.3058
 5164TIP3    H236908   0.481   5.980   0.109 -1.3747  0.3180 -1.4017
 5165TIP3   OH236909   2.241   4.423  15.759 -0.6101 -0.2672  0.2183
 5165TIP3    H136910   2.222   4.493  15.821 -0.9009  0.7448 -0.9819
 5165TIP3    H236911   2.250   4.467  15.675  0.0931 -1.5724 -0.4206
 5166TIP3   OH236912   3.797   2.464  16.741 -0.0513 -0.3755 -0.8460
 5166TIP3    H136913   3.822   2.510  16.821 -2.8565 -0.5783  0.2733
 5166TIP3    H236914   3.830   2.375  16.753 -0.4771 -0.4161  0.1557
 5167TIP3   OH236915   0.227   3.456   2.107  0.3050 -0.0699  0.4595
 5167TIP3    H136916   0.177   3.505   2.172 -0.0095  2.0942 -1.2694
 5167TIP3    H236917   0.318   3.463   2.135  0.4045  2.5582 -0.2559
 5168TIP3   OH236918   0.681   5.921   3.629 -0.2914  0.1365 -0.1326
 5168TIP3    H136919   0.622   5.856   3.666 -3.2258  2.5263 -0.2665
 5168TIP3    H236920   0.704   5.978   3.702  0.4282  0.2460 -0.4358
 5169TIP3   OH236921   4.475   4.837   5.212  0.7359 -0.3252 -0.0016
 5169TIP3    H136922   4.383   4.852   5.193  0.9540 -2.0549 -3.1388
 5169TIP3    H236923   4.521   4.912   5.174  0.6797  0.2309  1.0121
 5170TIP3   OH236924   2.664   3.757  14.444  0.1419 -0.2912  0.8004
 5170TIP3    H136925   2.620   3.828  14.491 -1.2141 -0.0148 -0.7676
 5170TIP3    H236926   2.672   3.789  14.354  0.2785 -1.7918  0.2435
 5171TIP3   OH236927   4.717   2.038  13.635  0.2311 -0.6577  0.1084
 5171TIP3    H136928   4.763   2.075  13.560 -0.1112 -0.5386 -0.0457
 5171TIP3    H236929   4.784   1.989  13.683  0.1227 -2.1091 -1.1668
 5172TIP3   OH236930   2.505   2.037   1.928 -0.0854  0.2609  0.5474
 5172TIP3    H136931   2.480   1.984   2.004  0.6748  1.7221  1.8781
 5172TIP3    H236932   2.499   2.128   1.960  3.0804  0.8393 -0.2059
 5173TIP3   OH236933   6.323   2.254  15.440 -0.6051 -0.3610 -0.0286
 5173TIP3    H136934   6.346   2.340  15.404  0.9340 -1.0961 -0.8924
 5173TIP3    H236935   6.380   2.244  15.515  0.3423 -1.2635 -0.8500
 5174TIP3   OH236936   6.383   6.549   2.484  0.5202  0.3421 -0.9459
 5174TIP3    H136937   6.332   6.619   2.443  1.5662  0.9197 -1.2824
 5174TIP3    H236938   6.325   6.515   2.552  0.1417  1.8456 -0.4581
 5175TIP3   OH236939   4.137   2.025  14.235 -0.4691  0.3082 -0.6059
 5175TIP3    H136940   4.173   1.994  14.152  1.8266 -1.1339  0.8007
 5175TIP3    H236941   4.204   2.082  14.271 -0.8527 -0.0768  0.8004
 5176TIP3   OH236942   3.400   1.374   1.443 -0.1310  0.4243 -0.0311
 5176TIP3    H136943   3.314   1.362   1.485 -0.1957 -0.6622 -0.4567
 5176TIP3    H236944   3.440   1.287   1.444  0.7854  0.8322 -0.2516
 5177TIP3   OH236945   3.841   1.877   6.075  0.5163 -0.2428 -0.2896
 5177TIP3    H136946   3.908   1.882   6.144  0.5459  1.8181 -0.3989
 5177TIP3    H236947   3.770   1.826   6.115  0.7672  0.4186  1.0816
 5178TIP3   OH236948   2.415   5.432   1.242  0.7231  0.4565 -0.5094
 5178TIP3    H136949   2.508   5.439   1.264  0.8712 -0.8215 -0.6195
 5178TIP3    H236950   2.400   5.500   1.178  1.8057  0.1279 -1.1420
 5179TIP3   OH236951   0.596   5.908  16.997 -0.1665  0.5085  0.4080
 5179TIP3    H136952   0.664   5.882  17.059  1.7909  2.3397 -0.8107
 5179TIP3    H236953   0.531   5.954  17.050  1.5138  2.1226  1.1549
 5180TIP3   OH236954   5.247   2.513   2.115 -0.0759  0.2714  0.3801
 5180TIP3    H136955   5.259   2.491   2.208 -1.1618 -2.0078  0.0484
 5180TIP3    H236956   5.153   2.506   2.101  0.2434 -1.3739 -1.3105
 5181TIP3   OH236957   6.435   3.319  17.185 -0.2606 -0.0811 -0.1054
 5181TIP3    H136958   6.404   3.402  17.148 -0.0689  0.4508  0.9177
 5181TIP3    H236959   6.460   3.340  17.275  0.9286 -0.9863 -0.1940
 5182TIP3   OH236960   6.613   3.599   3.020  0.1934  0.5584  0.2224
 5182TIP3    H136961   6.686   3.550   2.982 -0.3223  0.4324 -0.6377
 5182TIP3    H236962   6.617   3.685   2.978 -1.2381 -0.0456 -1.2604
 5183TIP3   OH236963   4.688   2.339   2.990  0.5352 -0.0407  0.1801
 5183TIP3    H136964   4.613   2.356   2.932  0.4330  0.0615  0.3417
 5183TIP3    H236965   4.720   2.426   3.014  0.0429 -0.0680  0.9705
 5184TIP3   OH236966   5.848   0.426  11.843 -0.0472  0.4910 -0.7315
 5184TIP3    H136967   5.850   0.521  11.852  1.4288  0.3418  1.1888
 5184TIP3    H236968   5.929   0.396  11.885 -1.7812 -1.7841  1.2857
 5185TIP3   OH236969   5.600   1.316  16.669 -0.3195  0.0065 -0.0840
 5185TIP3    H136970   5.556   1.400  16.656  1.5285  1.2435  1.1613
 5185TIP3    H236971   5.585   1.295  16.761  0.0039 -0.5895 -0.1596
 5186TIP3   OH236972   5.095   2.525   4.824 -0.0625  0.2774 -0.1612
 5186TIP3    H136973   5.175   2.547   4.777  0.7005 -2.3436 -0.2687
 5186TIP3    H236974   5.036   2.490   4.757 -0.4029  0.0049  0.2688
 5187TIP3   OH236975   3.124   5.412  13.809 -0.3156  0.3635  0.2525
 5187TIP3    H136976   3.039   5.367  13.814 -0.7661  1.0921 -0.7462
 5187TIP3    H236977   3.167   5.389  13.892 -0.6518 -1.6472 -0.0657
 5188TIP3   OH236978   2.351   3.967   0.909  0.0627  0.0287 -0.1899
 5188TIP3    H136979   2.359   3.953   0.814  0.5374  0.8154 -0.2797
 5188TIP3    H236980   2.284   4.034   0.918  1.3923  1.4060 -0.1164
 5189TIP3   OH236981   0.366   3.198  13.189 -0.2195  0.3699  0.3447
 5189TIP3    H136982   0.323   3.115  13.165 -1.3276  1.2266 -0.7905
 5189TIP3    H236983   0.407   3.180  13.273 -2.1116 -0.7780  1.0878
 5190TIP3   OH236984   6.073   2.028  15.506 -0.0744 -0.1982  0.0857
 5190TIP3    H136985   6.017   2.002  15.579 -1.2427 -0.9816 -1.0477
 5190TIP3    H236986   6.094   2.120  15.524 -2.3050  0.3453  0.2148
 5191TIP3   OH236987   2.911   1.275  15.542 -0.1358 -0.1746  0.0826
 5191TIP3    H136988   2.840   1.225  15.503  1.0706  0.4865 -3.2194
 5191TIP3    H236989   2.897   1.364  15.512  1.7296  0.0845 -0.1185
 5192TIP3   OH236990   4.069   4.043   4.526 -0.2001 -0.5487  0.0268
 5192TIP3    H136991   3.988   4.055   4.576  0.1771  2.3708  0.0974
 5192TIP3    H236992   4.092   4.131   4.496  2.4794 -1.4275 -0.7654
 5193TIP3   OH236993   2.908   1.429   2.940 -0.0687 -0.6300 -0.4062
 5193TIP3    H136994   2.883   1.473   3.022  2.5948  0.8857 -0.2961
 5193TIP3    H236995   2.967   1.358   2.968 -0.7471 -1.4178 -0.9154
 5194TIP3   OH236996   4.089   3.810  11.035  0.5166 -0.7587  0.0203
 5194TIP3    H136997   4.002   3.829  10.999  0.6278  0.2115  0.2251
 5194TIP3    H236998   4.097   3.870  11.110  1.6915 -0.2258 -0.5100
 5195TIP3   OH236999   1.708   3.240  14.126  0.1983 -0.2961 -0.4257
 5195TIP3    H137000   1.761   3.203  14.196 -1.5079  0.4842  1.3649
 5195TIP3    H237001   1.769   3.251  14.053  2.2557 -0.2986  1.2028
 5196TIP3   OH237002   2.401   4.813  15.711 -0.4979 -0.4156 -0.2054
 5196TIP3    H137003   2.468   4.745  15.708 -1.5941 -1.5356 -0.1741
 5196TIP3    H237004   2.427   4.876  15.643  1.4718  0.0682  0.9330
 5197TIP3   OH237005   1.595   3.517   2.198  0.6542 -0.4291  0.1266
 5197TIP3    H137006   1.576   3.581   2.267  1.7039 -0.1847  0.2052
 5197TIP3    H237007   1.599   3.569   2.118  0.4722 -0.5550  0.0367
 5198TIP3   OH237008   3.629   4.139   0.652 -0.2005 -0.7494 -0.4745
 5198TIP3    H137009   3.596   4.225   0.626  1.4751  0.1986  0.3576
 5198TIP3    H237010   3.680   4.109   0.577 -0.6307 -0.9439 -0.6928
 5199TIP3   OH237011   0.111   5.297  11.733  0.1167 -0.0691 -0.0253
 5199TIP3    H137012   0.047   5.244  11.781  0.7343 -1.6050 -0.8014
 5199TIP3    H237013   0.058   5.352  11.676 -0.5508 -0.0833  0.5639
 5200TIP3   OH237014   3.439   3.905   1.601  0.1730 -0.3543 -0.0640
 5200TIP3    H137015   3.474   3.962   1.533 -1.6323  1.9891  0.8260
 5200TIP3    H237016   3.344   3.913   1.592 -0.1182 -1.7739  1.3267
 5201TIP3   OH237017   2.250   3.069   3.532  0.4170 -0.5957 -0.6212
 5201TIP3    H137018   2.242   3.164   3.542  1.6516 -0.4050 -1.2432
 5201TIP3    H237019   2.335   3.048   3.569  0.3776 -1.3927 -0.9647
 5202TIP3   OH237020   5.662   6.144  13.698  0.0340 -0.2398 -0.1099
 5202TIP3    H137021   5.581   6.195  13.699  0.3560  0.2893  1.5290
 5202TIP3    H237022   5.674   6.116  13.789  1.1270 -1.2316 -0.5355
 5203TIP3   OH237023   2.827   0.758  16.755 -0.8872 -0.5610 -0.1056
 5203TIP3    H137024   2.746   0.765  16.704 -1.1199  2.3844  0.5036
 5203TIP3    H237025   2.852   0.849  16.773  2.1877 -1.3818  0.3395
 5204TIP3   OH237026   2.518   6.021   2.704 -0.2059  0.0925  0.3813
 5204TIP3    H137027   2.584   5.994   2.640  1.2292  0.5965  1.5941
 5204TIP3    H237028   2.491   5.939   2.746  0.7143  0.0199  0.8564
 5205TIP3   OH237029   5.666   0.064  15.926  0.6233 -0.1053 -0.3374
 5205TIP3    H137030   5.595   0.106  15.974 -0.6463 -1.1366 -1.2269
 5205TIP3    H237031   5.727   0.033  15.993 -0.2538 -0.0273  0.5060
 5206TIP3   OH237032   4.428   1.692   0.694  0.1639  0.5181 -0.0262
 5206TIP3    H137033   4.418   1.683   0.600  1.0030  0.8344 -0.1579
 5206TIP3    H237034   4.342   1.718   0.726 -0.2720 -0.1601 -0.6297
 5207TIP3   OH237035   2.448   1.674  13.938  0.1617  0.0573 -0.3540
 5207TIP3    H137036   2.480   1.711  13.856 -1.0906  0.1841 -0.8112
 5207TIP3    H237037   2.372   1.728  13.961 -0.9408 -1.4096 -0.3805
 5208TIP3   OH237038   6.454   2.230  17.113  0.3690  0.1274 -0.3784
 5208TIP3    H137039   6.527   2.179  17.148 -0.8339 -0.8876  0.7981
 5208TIP3    H237040   6.482   2.255  17.025  2.3170  0.2150  0.2081
 5209TIP3   OH237041   1.259   2.788   5.912  0.1632  0.3149  0.3508
 5209TIP3    H137042   1.320   2.857   5.938  1.2054 -0.5145  0.1677
 5209TIP3    H237043   1.177   2.834   5.895  0.5520  1.3738  1.2335
 5210TIP3   OH237044   5.902   2.703  17.336 -0.0864  0.2965  0.0688
 5210TIP3    H137045   5.916   2.797  17.351  0.3142  0.2107  0.2629
 5210TIP3    H237046   5.988   2.671  17.308 -0.1198 -0.0834  0.3918
 5211TIP3   OH237047   2.537   4.216  14.532  0.6994  0.7213 -0.4394
 5211TIP3    H137048   2.448   4.251  14.530  0.4102 -0.0150 -1.9094
 5211TIP3    H237049   2.526   4.126  14.564  1.0286  0.8824  0.1441
 5212TIP3   OH237050   5.182   6.501   2.656  0.5491  0.3025  0.3097
 5212TIP3    H137051   5.177   6.572   2.592 -0.3612 -0.6685 -0.7347
 5212TIP3    H237052   5.100   6.507   2.706  0.3037 -0.2247 -0.0220
 5213TIP3   OH237053   1.238   1.313   4.305  0.0203 -0.4875 -0.3702
 5213TIP3    H137054   1.241   1.275   4.393 -0.7003  0.7205  0.1920
 5213TIP3    H237055   1.216   1.239   4.248 -0.7264 -1.0575  0.6217
 5214TIP3   OH237056   1.868   3.454   2.144  0.0828  0.4354  0.1690
 5214TIP3    H137057   1.897   3.533   2.097 -0.7600  0.6268 -0.0390
 5214TIP3    H237058   1.786   3.480   2.186  1.2011  0.5208  2.4439
 5215TIP3   OH237059   1.924   3.738   0.754  1.0274 -0.0422  0.0347
 5215TIP3    H137060   1.958   3.827   0.749 -0.5399  0.6213  0.4411
 5215TIP3    H237061   1.840   3.742   0.709  1.0217 -1.3751 -0.1147
 5216TIP3   OH237062   1.750   4.683  14.585 -0.3443 -0.2850  0.3120
 5216TIP3    H137063   1.810   4.758  14.578 -0.2481 -0.4635 -1.0099
 5216TIP3    H237064   1.792   4.624  14.648 -0.0800  0.4456  0.8344
 5217TIP3   OH237065   5.600   2.196  17.392  0.4472 -0.1980 -0.5026
 5217TIP3    H137066   5.554   2.193  17.475  1.5909 -0.0403  0.1575
 5217TIP3    H237067   5.601   2.288  17.367  0.2014 -0.2319 -0.6425
 5218TIP3   OH237068   4.901   5.926   0.137  0.1320 -0.3312  0.0416
 5218TIP3    H137069   4.827   5.890   0.186 -2.4733  0.1882 -3.1585
 5218TIP3    H237070   4.906   6.018   0.165 -1.1782 -0.0920 -0.4306
 5219TIP3   OH237071   0.053   0.208  11.477  0.0250 -0.1521 -0.6355
 5219TIP3    H137072   0.082   0.122  11.507 -0.3639 -0.3274 -0.7625
 5219TIP3    H237073   0.127   0.241  11.425  0.8806  0.3335  0.8096
 5220TIP3   OH237074   5.575   1.729  15.236 -0.1974  0.0712 -0.1391
 5220TIP3    H137075   5.567   1.737  15.331 -0.2181 -1.6673  0.0259
 5220TIP3    H237076   5.607   1.641  15.221  2.4354  1.1734 -1.6533
 5221TIP3   OH237077   0.027   1.704   4.691  0.5129  0.1975 -0.8610
 5221TIP3    H137078   0.024   1.765   4.764 -0.1388 -0.2356 -0.5207
 5221TIP3    H237079   0.077   1.629   4.723  0.1725 -0.0208 -0.8390
 5222TIP3   OH237080   0.046   0.364  14.345  0.4962  0.0353 -0.0194
 5222TIP3    H137081   0.132   0.342  14.380  0.9203  0.8024 -0.5334
 5222TIP3    H237082   0.045   0.325  14.258 -0.5246 -1.8006  0.7749
 5223TIP3   OH237083   3.174   1.495   1.564  0.1852  0.4486  0.0523
 5223TIP3    H137084   3.182   1.495   1.659 -1.7573  1.7376  0.2786
 5223TIP3    H237085   3.122   1.416   1.544  1.4165 -0.3515 -0.0587
 5224TIP3   OH237086   4.650   1.158   2.602  0.1471 -0.0302  0.3347
 5224TIP3    H137087   4.612   1.073   2.581 -1.2445  0.7686 -0.5139
 5224TIP3    H237088   4.735   1.137   2.641 -0.5657 -1.8275  1.0426
 5225TIP3   OH237089   1.450   2.856   4.145 -0.1509 -0.3297 -0.0347
 5225TIP3    H137090   1.380   2.907   4.104 -0.1401 -0.5567 -0.3399
 5225TIP3    H237091   1.406   2.805   4.213 -0.1534  0.1200  0.3029
 5226TIP3   OH237092   1.014   0.305  14.775  0.4153 -0.1924 -0.4981
 5226TIP3    H137093   1.105   0.329  14.795  0.2558 -0.9700  1.3582
 5226TIP3    H237094   0.967   0.388  14.773  1.2336  0.2621 -1.9842
 5227TIP3   OH237095   0.372   0.599  16.704  0.2170  0.0280 -0.0191
 5227TIP3    H137096   0.338   0.513  16.678 -0.4540  0.1599  0.3950
 5227TIP3    H237097   0.466   0.585  16.716 -0.1092 -1.0495  1.6031
 5228TIP3   OH237098   6.374   2.391   2.865  0.0443 -0.3408  0.2960
 5228TIP3    H137099   6.279   2.395   2.877  0.1249  1.7895  0.5351
 5228TIP3    H237100   6.385   2.372   2.771 -0.6828  2.2438 -0.3878
 5229TIP3   OH237101   2.252   4.797  14.438 -0.5138  0.0347 -0.7005
 5229TIP3    H137102   2.334   4.752  14.419  0.2648  1.6382 -1.3154
 5229TIP3    H237103   2.240   4.858  14.365 -1.1621  1.2951  0.4141
 5230TIP3   OH237104   5.166   6.539  13.929  0.5907  0.7665 -0.2939
 5230TIP3    H137105   5.077   6.556  13.962  0.3469  0.1763 -0.6316
 5230TIP3    H237106   5.223   6.592  13.985  0.2367 -0.4887  1.3350
 5231TIP3   OH237107   3.074   3.059  17.292  0.1387  0.0772  0.3818
 5231TIP3    H137108   3.066   3.140  17.343  1.6480 -0.2718  1.2319
 5231TIP3    H237109   3.013   2.998  17.333  0.5685  0.1332  1.1237
 5232TIP3   OH237110   3.323   5.480  14.801  0.3324  0.0649 -0.0251
 5232TIP3    H137111   3.411   5.492  14.836  0.4940 -1.6302  0.2475
 5232TIP3    H237112   3.329   5.399  14.751 -0.7592  0.6388 -1.1218
 5233TIP3   OH237113   3.711   0.284   4.264 -0.2251  0.7990  0.2156
 5233TIP3    H137114   3.743   0.325   4.183 -1.0612  1.0750  0.0050
 5233TIP3    H237115   3.780   0.299   4.328  0.2010  1.0869 -0.3007
 5234TIP3   OH237116   5.680   1.313  13.420  0.3737 -0.2857  1.0920
 5234TIP3    H137117   5.742   1.321  13.348 -0.2585  1.5296  0.6806
 5234TIP3    H237118   5.707   1.381  13.482 -1.0998  0.4795  0.9392
 5235TIP3   OH237119   4.033   4.991  11.591 -0.6226 -0.2173 -0.0059
 5235TIP3    H137120   4.126   4.985  11.571 -0.5762  0.2576  0.0623
 5235TIP3    H237121   4.007   5.077  11.558 -0.5984  0.4960  1.7397
 5236TIP3   OH237122   2.443   3.227   2.924 -0.7338 -0.1985 -0.4064
 5236TIP3    H137123   2.442   3.277   3.006 -2.5200  0.6704 -0.9049
 5236TIP3    H237124   2.458   3.136   2.952 -2.0420 -0.0333  0.9956
 5237TIP3   OH237125   6.221   4.454  11.345 -0.6097  0.2039  0.3873
 5237TIP3    H137126   6.233   4.513  11.419 -1.9012 -1.1941  1.7800
 5237TIP3    H237127   6.308   4.447  11.305  0.2772  0.4940  2.1671
 5238TIP3   OH237128   1.135   6.495  15.212 -0.3652 -0.3139  0.6921
 5238TIP3    H137129   1.119   6.539  15.129  1.6397 -0.8808 -0.0545
 5238TIP3    H237130   1.118   6.561  15.279 -0.4359  0.6305 -0.2433
 5239TIP3   OH237131   5.410   3.041  14.504  0.2798  0.1791  0.6100
 5239TIP3    H137132   5.427   2.984  14.429 -3.3324  0.4715 -0.5960
 5239TIP3    H237133   5.376   2.983  14.572 -0.2619  0.4517  0.5742
 5240TIP3   OH237134   3.508   4.694  12.518  0.3152 -0.1312  0.6051
 5240TIP3    H137135   3.555   4.677  12.600 -1.7764 -0.7577  1.7742
 5240TIP3    H237136   3.561   4.653  12.450  0.9320 -1.7349  1.9813
 5241TIP3   OH237137   1.604   2.615  16.813 -0.1777  0.9397  0.6625
 5241TIP3    H137138   1.607   2.561  16.892  0.4675 -0.6631 -0.4059
 5241TIP3    H237139   1.522   2.589  16.771  0.0483  0.9344  0.2296
 5242TIP3   OH237140   3.584   5.804  11.596  0.4510 -0.0510 -0.3708
 5242TIP3    H137141   3.542   5.770  11.675  2.0314  1.1602  1.0590
 5242TIP3    H237142   3.585   5.729  11.536 -0.0011 -1.2687  1.0773
 5243TIP3   OH237143   3.295   5.653   0.477 -0.3528  0.1785 -0.3776
 5243TIP3    H137144   3.275   5.676   0.568 -2.0326  0.6566 -0.8183
 5243TIP3    H237145   3.381   5.612   0.480  0.0764  1.1323  1.2813
 5244TIP3   OH237146   2.586   3.481  13.027  0.2119 -0.1092 -0.0251
 5244TIP3    H137147   2.493   3.485  13.007 -0.0187  1.3050  1.1648
 5244TIP3    H237148   2.628   3.470  12.942 -0.8841  2.5389 -1.0150
 5245TIP3   OH237149   0.005   1.609  16.936 -0.7301  0.4882 -0.0316
 5245TIP3    H137150  -0.052   1.676  16.972 -0.6502  1.2082 -1.1938
 5245TIP3    H237151   0.093   1.635  16.964 -0.6694  1.0362 -0.7036
 5246TIP3   OH237152   3.379   1.191   6.100 -0.4262  0.2380  0.1588
 5246TIP3    H137153   3.392   1.098   6.119  1.4586  0.0697 -1.6003
 5246TIP3    H237154   3.411   1.236   6.178  2.0230 -0.5407 -0.3148
 5247TIP3   OH237155   4.920   0.934   1.075  0.4770 -0.0474 -0.6357
 5247TIP3    H137156   4.899   0.850   1.034  1.4313 -0.0839 -1.0672
 5247TIP3    H237157   5.001   0.918   1.124  0.3391  0.4721 -0.2170
 5248TIP3   OH237158   3.053   5.059   1.503  0.6620 -0.3075  0.3637
 5248TIP3    H137159   3.020   5.096   1.421 -0.1415 -1.8843 -0.0860
 5248TIP3    H237160   2.980   5.068   1.565 -0.2529 -2.5925 -0.2526
 5249TIP3   OH237161   4.019   1.293  15.266  0.1103  0.1403  0.2546
 5249TIP3    H137162   4.048   1.306  15.357 -0.7151 -0.3048  0.5913
 5249TIP3    H237163   3.958   1.365  15.251  2.1571  1.7589 -0.8346
 5250TIP3   OH237164   3.631   1.539   2.413 -0.2469 -0.4252  0.0729
 5250TIP3    H137165   3.591   1.605   2.357  1.1607  0.8913  0.5382
 5250TIP3    H237166   3.698   1.498   2.357  0.4638  0.1831  0.4617
 5251TIP3   OH237167   4.943   4.963   3.545  0.0004  0.3045 -0.0380
 5251TIP3    H137168   4.966   4.871   3.559  1.3428  0.6298  0.0279
 5251TIP3    H237169   4.914   4.994   3.631  1.2072  0.3800  0.3612
 5252TIP3   OH237170   5.859   3.640  11.331  0.7473  0.2471 -0.3767
 5252TIP3    H137171   5.805   3.693  11.271 -0.5719  0.6158  1.0600
 5252TIP3    H237172   5.796   3.583  11.375  1.5532  0.4952  1.1687
 5253TIP3   OH237173   1.303   0.739  16.090  0.2955 -0.4390  0.2890
 5253TIP3    H137174   1.230   0.677  16.094 -0.0747  0.0347  1.6171
 5253TIP3    H237175   1.271   0.817  16.136  1.5991 -0.1859  0.8244
 5254TIP3   OH237176   0.102   3.011  12.270  0.8419  0.5209 -0.0564
 5254TIP3    H137177   0.022   3.049  12.307  1.3020  0.2837  1.2144
 5254TIP3    H237178   0.071   2.937  12.218  0.2956 -0.1716  1.2202
 5255TIP3   OH237179   2.788   6.518   0.178  0.2219 -0.6584  0.2782
 5255TIP3    H137180   2.776   6.600   0.226 -0.3803 -0.0351 -0.8755
 5255TIP3    H237181   2.875   6.488   0.202  0.0802 -0.1695  1.4391
 5256TIP3   OH237182   2.493   1.805  14.564  0.1330  0.0323 -0.1217
 5256TIP3    H137183   2.415   1.778  14.611 -0.2991  0.8803 -0.3266
 5256TIP3    H237184   2.564   1.793  14.627 -0.2798  0.0515  0.3548
 5257TIP3   OH237185   4.448   5.867  12.932 -0.3394 -0.1155  0.4581
 5257TIP3    H137186   4.466   5.841  13.023 -1.4057 -0.5745  0.5467
 5257TIP3    H237187   4.382   5.804  12.902 -0.3574  0.3420 -0.4781
 5258TIP3   OH237188   1.715   2.033   3.745 -0.0893  0.3285 -0.1882
 5258TIP3    H137189   1.748   2.067   3.828  0.2023  1.0051 -0.5744
 5258TIP3    H237190   1.629   1.997   3.766  0.3027 -0.2019  0.5522
 5259TIP3   OH237191   1.731   1.926   2.106  0.0620  0.1758 -0.0759
 5259TIP3    H137192   1.678   1.885   2.173  0.1257 -0.2337 -0.2735
 5259TIP3    H237193   1.741   1.859   2.038 -1.8182  1.2547 -1.5354
 5260TIP3   OH237194   0.437   4.455   4.840 -0.3810 -0.5827 -0.0187
 5260TIP3    H137195   0.374   4.524   4.861 -1.4257 -1.1730 -1.0308
 5260TIP3    H237196   0.497   4.495   4.778 -0.4068 -0.3094  0.1324
 5261TIP3   OH237197   6.453   1.531  13.632  0.4554 -0.2730  0.3669
 5261TIP3    H137198   6.437   1.437  13.642  2.4856 -0.6183  0.8480
 5261TIP3    H237199   6.445   1.547  13.538  0.0611 -0.9319  0.2826
 5262TIP3   OH237200   5.582   0.873   5.620 -0.2826  0.1980  0.6502
 5262TIP3    H137201   5.636   0.886   5.697 -0.5150 -1.7467  1.1937
 5262TIP3    H237202   5.502   0.833   5.653  0.0564 -1.7109 -0.6841
 5263TIP3   OH237203   2.666   4.546   1.295 -0.0310  0.1381 -0.0656
 5263TIP3    H137204   2.659   4.625   1.242  0.2464  0.0988 -0.1633
 5263TIP3    H237205   2.585   4.543   1.346 -0.3499  0.1180 -0.5702
 5264TIP3   OH237206   3.201   5.819   2.759 -0.4916 -0.3962  0.5969
 5264TIP3    H137207   3.118   5.865   2.771 -0.1879  0.0208  1.1750
 5264TIP3    H237208   3.267   5.888   2.763  0.1469 -1.0279  3.5770
 5265TIP3   OH237209   1.095   5.814  13.962 -0.1134  0.1239 -0.6556
 5265TIP3    H137210   1.184   5.846  13.954 -0.0069 -0.5586 -2.6804
 5265TIP3    H237211   1.103   5.733  14.013  0.4704 -0.1021 -1.1010
 5266TIP3   OH237212   6.117   4.848  13.635 -0.1287  0.0015  0.8156
 5266TIP3    H137213   6.054   4.902  13.684 -0.7650 -0.3812  0.4278
 5266TIP3    H237214   6.064   4.782  13.592  0.4804 -0.0028  0.0410
 5267TIP3   OH237215   6.663   1.359   3.873  0.0056  0.1337  0.1515
 5267TIP3    H137216   6.639   1.309   3.951 -0.9761 -0.6641 -0.6327
 5267TIP3    H237217   6.702   1.295   3.814 -0.9150  0.3343 -0.7184
 5268TIP3   OH237218   4.325   3.466   5.469 -0.4875 -0.0033 -0.1581
 5268TIP3    H137219   4.249   3.512   5.504  0.2134  1.9252 -1.0307
 5268TIP3    H237220   4.288   3.392   5.422 -1.7361  0.2003  0.4557
 5269TIP3   OH237221   3.254   2.289   0.112  0.1615  0.0059  0.5205
 5269TIP3    H137222   3.339   2.270   0.073 -0.0361 -0.3623  0.2639
 5269TIP3    H237223   3.211   2.204   0.118 -0.1853  0.1883  0.6595
 5270TIP3   OH237224   1.885   0.501  11.738 -0.0155  0.2770  0.0798
 5270TIP3    H137225   1.916   0.439  11.672  0.0887  0.3504  0.0601
 5270TIP3    H237226   1.795   0.473  11.757 -0.7280  1.4097 -1.4662
 5271TIP3   OH237227   2.875   5.674   0.539 -0.3889 -0.3293  0.1913
 5271TIP3    H137228   2.850   5.738   0.606 -0.7984 -0.4178  0.1236
 5271TIP3    H237229   2.883   5.725   0.458 -1.9265 -0.5537 -0.1245
 5272TIP3   OH237230   0.245   1.692   1.528 -0.1252  0.7552  0.3994
 5272TIP3    H137231   0.319   1.739   1.564 -0.0605  0.9083  0.0742
 5272TIP3    H237232   0.203   1.651   1.603 -0.7937  2.1773  0.8315
 5273TIP3   OH237233   1.967   3.992  15.964  0.0043 -0.2173 -0.0846
 5273TIP3    H137234   2.034   4.053  15.933 -0.1222 -0.5709 -1.1179
 5273TIP3    H237235   1.923   3.962  15.884 -0.3680 -1.1618  0.4524
 5274TIP3   OH237236   5.225   4.993   2.081  0.3526  0.1503 -0.1962
 5274TIP3    H137237   5.247   5.086   2.082 -1.0103  0.5132  1.1752
 5274TIP3    H237238   5.307   4.948   2.097  0.8818  1.1757  0.0403
 5275TIP3   OH237239   6.645   2.305   4.756  0.3650 -0.2366  0.5068
 5275TIP3    H137240   6.716   2.252   4.721 -0.9729 -2.1205  0.4925
 5275TIP3    H237241   6.685   2.390   4.773  2.1509 -0.6356 -1.2771
 5276TIP3   OH237242   4.979   4.347   3.136 -0.3863  0.7279 -0.3184
 5276TIP3    H137243   4.907   4.409   3.147 -0.5144  0.7061 -1.0011
 5276TIP3    H237244   4.944   4.263   3.166 -0.7611  0.6486 -0.9539
 5277TIP3   OH237245   4.466   6.303   4.873  0.3984  0.4772 -0.2451
 5277TIP3    H137246   4.417   6.231   4.833 -1.2974  2.3241 -1.6877
 5277TIP3    H237247   4.470   6.282   4.966 -1.6277 -0.6138 -0.3608
 5278TIP3   OH237248   3.259   1.310   0.634  0.8289  0.1797  0.2520
 5278TIP3    H137249   3.182   1.340   0.586 -0.3259 -0.3287  1.7007
 5278TIP3    H237250   3.284   1.384   0.689  1.3338  0.3149 -0.1527
 5279TIP3   OH237251   0.196   0.314  13.823  0.4173  0.0860  0.1485
 5279TIP3    H137252   0.274   0.323  13.769 -1.0937 -0.1503 -2.2202
 5279TIP3    H237253   0.180   0.220  13.827  0.7456  0.0690  1.4160
 5280TIP3   OH237254   4.303   5.550   6.099 -0.3714  0.5589  0.0515
 5280TIP3    H137255   4.257   5.504   6.169  0.3601 -0.1167  0.1059
 5280TIP3    H237256   4.381   5.587   6.142  0.1099  0.0900 -0.3995
 5281TIP3   OH237257   1.182   6.486   0.682 -0.6049 -0.3456 -0.4717
 5281TIP3    H137258   1.261   6.436   0.702 -0.7837 -0.8328 -0.9601
 5281TIP3    H237259   1.208   6.577   0.695  1.0188 -0.2096 -3.6533
 5282TIP3   OH237260   0.660   5.011   2.987 -0.4108  0.2642 -0.4391
 5282TIP3    H137261   0.673   5.044   3.076 -1.6085 -1.0597  0.2676
 5282TIP3    H237262   0.703   5.076   2.931 -0.8078  1.8460  1.0051
 5283TIP3   OH237263   4.202   3.951   5.324  0.0364 -0.5116 -0.8825
 5283TIP3    H137264   4.187   3.857   5.338  2.8512 -0.7852  1.2093
 5283TIP3    H237265   4.260   3.954   5.248  1.2586 -0.6483  0.0161
 5284TIP3   OH237266   4.862   5.248   0.617 -0.6788 -0.1240  0.1334
 5284TIP3    H137267   4.911   5.175   0.578 -0.1611  0.6138 -0.6277
 5284TIP3    H237268   4.848   5.222   0.708  1.4732 -0.1895  0.4822
 5285TIP3   OH237269   5.131   4.833  16.041  0.5244 -0.1409  0.1186
 5285TIP3    H137270   5.048   4.843  15.993  1.1853 -0.1678 -1.0627
 5285TIP3    H237271   5.148   4.919  16.078  0.5049  0.1482 -0.5338
 5286TIP3   OH237272   1.576   3.942   5.706 -0.6678  0.2228 -0.0263
 5286TIP3    H137273   1.565   4.031   5.674 -1.0956  0.0363 -0.3962
 5286TIP3    H237274   1.652   3.908   5.658 -0.8198  0.2140 -0.2594
 5287TIP3   OH237275   0.857   1.852  13.592  0.4295  0.2820  0.0901
 5287TIP3    H137276   0.888   1.820  13.507  0.3211 -0.1116  0.1965
 5287TIP3    H237277   0.790   1.789  13.618  0.8674  0.0747  0.7318
 5288TIP3   OH237278   1.812   1.543   4.807 -0.8794  0.2745  0.2029
 5288TIP3    H137279   1.744   1.581   4.862  0.0780  0.2672  1.4346
 5288TIP3    H237280   1.776   1.458   4.780 -1.4061  0.3250  0.7354
 5289TIP3   OH237281   2.070   6.261   3.153 -0.0059 -0.3642 -0.5437
 5289TIP3    H137282   2.080   6.354   3.132  1.1539 -0.4344 -0.3580
 5289TIP3    H237283   2.136   6.244   3.221  0.5280 -1.5609 -1.3300
 5290TIP3   OH237284   0.856   4.073  16.859 -0.4375  0.0398  0.2861
 5290TIP3    H137285   0.839   3.979  16.860 -0.6169  0.0675  1.2464
 5290TIP3    H237286   0.885   4.091  16.770 -0.7717 -0.8559 -0.0241
 5291TIP3   OH237287   3.692   0.793   2.193 -0.3715 -0.0271 -0.0667
 5291TIP3    H137288   3.598   0.800   2.181 -0.8137 -0.1276  2.7514
 5291TIP3    H237289   3.720   0.883   2.214 -0.1557 -0.2861  0.8005
 5292TIP3   OH237290   5.126   2.995   0.037  0.7153  0.2463 -0.3496
 5292TIP3    H137291   5.146   2.955  -0.048  1.2067  0.8918 -0.5435
 5292TIP3    H237292   5.047   3.047   0.021  0.1056 -0.5886 -0.1094
 5293TIP3   OH237293   1.876   2.188  15.572  0.6837 -0.1344 -0.1275
 5293TIP3    H137294   1.815   2.240  15.623 -0.0313 -1.8021  0.8000
 5293TIP3    H237295   1.937   2.151  15.637  0.3585 -1.4974 -0.5688
 5294TIP3   OH237296   1.707   3.948   1.244 -0.1777  0.3474  0.4419
 5294TIP3    H137297   1.732   3.900   1.166 -0.3082  0.2258  0.4745
 5294TIP3    H237298   1.616   3.974   1.228 -0.7180 -0.9830  1.1892
 5295TIP3   OH237299   5.147   4.112   4.121  0.9487 -0.1146 -0.0851
 5295TIP3    H137300   5.077   4.161   4.163  1.2530  1.8802 -1.7294
 5295TIP3    H237301   5.123   4.109   4.028  1.8924 -1.4396 -0.3199
 5296TIP3   OH237302   6.758   1.064  12.133  0.2541  0.4908  0.0419
 5296TIP3    H137303   6.795   1.098  12.051  0.5236 -0.0258 -0.0589
 5296TIP3    H237304   6.675   1.111  12.143  0.3005  0.6859 -0.4386
 5297TIP3   OH237305   3.717   5.440  10.918  0.6308 -0.4272 -0.2012
 5297TIP3    H137306   3.691   5.523  10.878  1.4341 -0.7755 -1.5090
 5297TIP3    H237307   3.795   5.462  10.969  1.6730 -0.5960 -1.6612
 5298TIP3   OH237308   5.220   4.750  12.186  0.0808  0.2136  0.4046
 5298TIP3    H137309   5.265   4.743  12.102  0.3408  0.7551  0.4938
 5298TIP3    H237310   5.243   4.837  12.218  1.2333 -0.5380  1.7412
 5299TIP3   OH237311   1.461   4.320   2.396 -0.3640 -0.4002 -0.3073
 5299TIP3    H137312   1.423   4.251   2.451 -1.6871  0.6736  0.1887
 5299TIP3    H237313   1.543   4.283   2.365 -0.9794 -2.1557  0.0264
 5300TIP3   OH237314   3.854   5.659  15.647 -0.0012 -0.0049  0.2126
 5300TIP3    H137315   3.816   5.686  15.563 -1.9612 -0.9444  0.7497
 5300TIP3    H237316   3.938   5.705  15.650 -0.6473  1.4250 -1.4741
 5301TIP3   OH237317   4.456   0.504  15.548  0.8572  0.1420 -0.0311
 5301TIP3    H137318   4.506   0.515  15.468  1.0286  0.7698  0.1609
 5301TIP3    H237319   4.482   0.577  15.604 -1.2646  1.3163 -0.4310
 5302TIP3   OH237320   1.011   1.567  12.907 -0.0171  0.1208  0.2340
 5302TIP3    H137321   0.990   1.590  12.997 -4.1176 -0.3912 -0.4232
 5302TIP3    H237322   1.047   1.478  12.913  0.1549  0.2539  1.3516
 5303TIP3   OH237323   4.880   2.312   0.308  0.3818 -0.0577 -0.1091
 5303TIP3    H137324   4.870   2.356   0.224  0.5775  0.2654  0.0341
 5303TIP3    H237325   4.973   2.290   0.312  0.3901  0.0066  0.0607
 5304TIP3   OH237326   4.201   5.176   5.307 -0.1593  0.5201 -0.0835
 5304TIP3    H137327   4.255   5.097   5.298 -0.4016  0.5171 -1.7323
 5304TIP3    H237328   4.116   5.144   5.338 -0.5552 -0.0016 -1.6480
 5305TIP3   OH237329   0.256   2.900  16.285  0.3529 -0.1797 -0.6095
 5305TIP3    H137330   0.244   2.806  16.271 -0.4684  0.0565 -1.7158
 5305TIP3    H237331   0.350   2.913  16.285  0.4990 -1.1130  0.4816
 5306TIP3   OH237332   0.009   6.187  14.536  0.0431 -0.9813 -0.1460
 5306TIP3    H137333  -0.000   6.280  14.518 -0.4995 -1.1201 -0.5947
 5306TIP3    H237334  -0.015   6.144  14.454  0.1607 -1.5227  0.0985
 5307TIP3   OH237335   4.737   1.327  13.092  0.4436  0.2900 -0.4544
 5307TIP3    H137336   4.749   1.232  13.091  2.2398  0.4852 -2.0377
 5307TIP3    H237337   4.818   1.361  13.130 -0.3613  1.1961  0.5080
 5308TIP3   OH237338   3.040   2.925   4.521 -0.6076  0.1405  0.6990
 5308TIP3    H137339   3.027   2.942   4.427  1.0758 -1.4897  0.1058
 5308TIP3    H237340   3.006   3.003   4.564  0.3193  1.8168 -1.3911
 5309TIP3   OH237341   3.007   0.913  15.414  0.2850 -0.2811  0.4146
 5309TIP3    H137342   3.085   0.882  15.368  0.0407 -2.1986  1.1790
 5309TIP3    H237343   3.038   0.984  15.469  0.5604  2.2550 -2.6845
 5310TIP3   OH237344   4.782   6.076  12.195  0.9341  0.5399  0.3804
 5310TIP3    H137345   4.753   5.985  12.186  0.4373  0.8088 -0.9108
 5310TIP3    H237346   4.877   6.073  12.181  0.9986  0.1605  0.8742
 5311TIP3   OH237347   3.227   5.996  16.301  0.2039  0.0361  0.3462
 5311TIP3    H137348   3.300   6.039  16.258 -0.5824  1.0735  0.0147
 5311TIP3    H237349   3.156   5.998  16.237  0.0274 -1.4669  0.4455
 5312TIP3   OH237350   0.097   3.802   2.444  0.4830 -0.1681 -0.1249
 5312TIP3    H137351   0.149   3.881   2.432  0.1514  0.5530  2.4497
 5312TIP3    H237352   0.122   3.770   2.530 -4.4960  1.3697  2.3161
 5313TIP3   OH237353   1.500   5.453   4.810  0.5056  0.1437 -0.1199
 5313TIP3    H137354   1.576   5.476   4.864 -0.0597 -1.8141  1.6544
 5313TIP3    H237355   1.525   5.372   4.767  0.1153  0.5381 -1.1163
 5314TIP3   OH237356   1.417   4.696   1.006  0.4091  0.5209  0.4740
 5314TIP3    H137357   1.344   4.758   1.014  0.0891  0.0912  1.0082
 5314TIP3    H237358   1.495   4.751   0.997 -0.1810  1.0189 -2.5597
 5315TIP3   OH237359   0.943   1.114  16.815  0.5643  0.2538  0.0145
 5315TIP3    H137360   1.003   1.042  16.835  0.3307 -0.3085 -1.2336
 5315TIP3    H237361   0.980   1.189  16.862  0.4229 -0.7982  1.9331
 5316TIP3   OH237362   4.822   2.608   6.127  0.6929 -0.4924 -0.2394
 5316TIP3    H137363   4.864   2.530   6.162 -0.8933 -1.3274 -0.0796
 5316TIP3    H237364   4.732   2.581   6.110  0.2307  1.1711 -0.6653
 5317TIP3   OH237365   0.768   6.679  13.592  0.6734 -0.2951 -0.3755
 5317TIP3    H137366   0.698   6.738  13.562 -0.1921 -0.3033  1.5009
 5317TIP3    H237367   0.777   6.615  13.521 -2.5778 -1.4248  0.0470
 5318TIP3   OH237368   4.938   0.378  11.957  0.0642 -0.3677  0.2532
 5318TIP3    H137369   4.995   0.404  11.884 -0.3101 -0.0740  0.0592
 5318TIP3    H237370   4.859   0.431  11.945 -1.0821 -2.1536 -0.6263
 5319TIP3   OH237371   5.480   6.520  15.630  0.1573 -0.4660 -0.4177
 5319TIP3    H137372   5.453   6.431  15.606 -3.8643  0.6642 -0.7478
 5319TIP3    H237373   5.508   6.512  15.721  2.3090 -2.4082 -1.1367
 5320TIP3   OH237374   5.228   3.240   2.354 -0.1976 -0.3198  0.5268
 5320TIP3    H137375   5.197   3.191   2.430  1.3379 -2.0638  0.1226
 5320TIP3    H237376   5.284   3.309   2.391  0.1085 -0.8250  1.0214
 5321TIP3   OH237377   2.545   1.562   3.454  0.3650 -0.3674  0.3815
 5321TIP3    H137378   2.499   1.645   3.457  2.3686  0.8064  0.5426
 5321TIP3    H237379   2.516   1.521   3.373 -2.1095 -0.4594  1.2353
 5322TIP3   OH237380   0.978   5.243   2.584  0.1914  0.4468 -0.6524
 5322TIP3    H137381   1.069   5.272   2.583  1.3034 -2.6179 -0.6924
 5322TIP3    H237382   0.963   5.207   2.496 -0.6229 -0.2244 -0.2567
 5323TIP3   OH237383   6.636   1.063   5.960  0.5881  0.3350  0.0329
 5323TIP3    H137384   6.628   1.092   6.051  3.0765 -0.7207  0.6694
 5323TIP3    H237385   6.557   1.012   5.944 -0.3937  1.4192  1.2326
 5324TIP3   OH237386   5.365   6.185  13.606  0.1306  0.3643  0.2129
 5324TIP3    H137387   5.319   6.255  13.653  1.4277  0.9660  0.6409
 5324TIP3    H237388   5.296   6.131  13.568 -0.9558  2.8993 -1.6926
 5325TIP3   OH237389   0.826   5.969  11.093  0.3130  0.2996  0.2774
 5325TIP3    H137390   0.874   5.980  11.011  0.6792 -0.4323  0.3815
 5325TIP3    H237391   0.743   5.929  11.067  0.2319  0.5070  0.2159
 5326TIP3   OH237392   6.686   6.251  13.010 -0.4507  0.0214  0.5487
 5326TIP3    H137393   6.681   6.299  13.092  0.1790  0.1406  0.5261
 5326TIP3    H237394   6.670   6.318  12.942  2.2056  0.6293  0.4190
 5327TIP3   OH237395   4.525   2.290  15.067  0.5339 -0.0131 -0.0141
 5327TIP3    H137396   4.550   2.376  15.032 -0.5706  0.4422  0.2712
 5327TIP3    H237397   4.539   2.298  15.161 -2.9787  1.1759  0.5600
 5328TIP3   OH237398   5.260   0.072  16.811  0.2436  0.1719  0.0854
 5328TIP3    H137399   5.265   0.162  16.843 -1.8862  0.1416  0.6679
 5328TIP3    H237400   5.170   0.064  16.778 -0.5347 -2.4987  2.5131
 5329TIP3   OH237401   5.634   0.039   2.611 -0.3550  0.4204 -0.4250
 5329TIP3    H137402   5.563   0.064   2.670  0.0469 -0.6080  0.5325
 5329TIP3    H237403   5.590  -0.010   2.541 -0.7994  1.4081 -0.8593
 5330TIP3   OH237404   2.892   6.253   4.202  0.2070  0.1507 -0.3957
 5330TIP3    H137405   2.913   6.346   4.212 -0.5257  0.1404  1.7560
 5330TIP3    H237406   2.940   6.226   4.124  1.1407  2.1210 -0.5661
 5331TIP3   OH237407   2.773   2.610   3.427 -0.5066 -0.1901 -0.4161
 5331TIP3    H137408   2.768   2.610   3.332 -1.5712  0.2515 -0.3733
 5331TIP3    H237409   2.783   2.703   3.450 -0.1971 -0.2990 -0.0997
 5332TIP3   OH237410   1.165   0.699   5.938 -0.2249 -0.1364  0.7198
 5332TIP3    H137411   1.149   0.672   5.847 -0.5831 -0.2207  0.8057
 5332TIP3    H237412   1.162   0.795   5.936 -4.2982 -0.0900  1.3074
 5333TIP3   OH237413   0.732   0.311   4.094 -0.0259 -0.6017 -0.1770
 5333TIP3    H137414   0.735   0.289   4.187  0.5120 -0.4043 -0.1448
 5333TIP3    H237415   0.820   0.342   4.074 -0.7760  1.6741 -0.1825
 5334TIP3   OH237416   0.665   6.672   4.909  0.8204  0.3006  0.3409
 5334TIP3    H137417   0.695   6.706   4.825  3.1037 -0.4504  0.7983
 5334TIP3    H237418   0.617   6.592   4.887  1.8342 -0.1655 -0.2375
 5335TIP3   OH237419   5.453   3.423  11.724  0.0610  0.2378  0.3400
 5335TIP3    H137420   5.478   3.501  11.773  0.6377 -1.6444  3.3191
 5335TIP3    H237421   5.363   3.405  11.751  0.7746 -1.4884  1.8292
 5336TIP3   OH237422   2.543   2.850   5.804  0.1801  0.2769  0.3608
 5336TIP3    H137423   2.607   2.785   5.833 -0.2506 -0.7399 -0.8389
 5336TIP3    H237424   2.584   2.894   5.730 -0.2582  0.0295 -0.0401
 5337TIP3   OH237425   2.060   1.059  13.183  0.4419  0.3873 -0.0541
 5337TIP3    H137426   2.150   1.047  13.211  0.2790 -1.1465 -0.0751
 5337TIP3    H237427   2.055   1.015  13.097 -0.7534 -1.3575  0.8352
 5338TIP3   OH237428   2.819   3.593  11.500 -0.0733  0.6618 -0.4466
 5338TIP3    H137429   2.808   3.604  11.405 -4.4422  0.1071 -0.1968
 5338TIP3    H237430   2.836   3.682  11.532  3.1630  0.6461 -1.7455
 5339TIP3   OH237431   2.390   4.271   3.920  0.0212 -0.4277  0.1347
 5339TIP3    H137432   2.359   4.181   3.909 -1.6179  0.1679 -0.4501
 5339TIP3    H237433   2.481   4.262   3.946 -0.3167 -2.2798  0.8320
 5340TIP3   OH237434   1.417   5.431  14.365  0.2939 -0.4280 -0.3452
 5340TIP3    H137435   1.408   5.523  14.343  0.2106 -0.5935 -1.0238
 5340TIP3    H237436   1.511   5.413  14.360  0.2117 -0.6428 -1.3393
 5341TIP3   OH237437   4.849   5.548  13.160  0.2628  0.0210  0.3811
 5341TIP3    H137438   4.843   5.613  13.230 -1.1014  1.1074 -0.6948
 5341TIP3    H237439   4.758   5.528  13.138  0.6307 -2.2874  0.6688
 5342TIP3   OH237440   2.704   2.182  14.393 -0.3594 -0.2733  0.1635
 5342TIP3    H137441   2.642   2.189  14.320 -0.7240 -0.8409  0.4094
 5342TIP3    H237442   2.648   2.171  14.470 -0.1812  3.8547  1.0878
 5343TIP3   OH237443   2.676   6.420   3.017 -0.1194 -0.2287 -0.3614
 5343TIP3    H137444   2.717   6.362   2.953 -0.6179 -0.2815 -0.6295
 5343TIP3    H237445   2.618   6.363   3.067 -0.4982  0.0129 -0.5283
 5344TIP3   OH237446   1.154   5.567   4.393 -0.3642  0.6671 -0.9705
 5344TIP3    H137447   1.122   5.619   4.320  0.3029  0.6418 -1.2929
 5344TIP3    H237448   1.202   5.495   4.352 -0.4819  0.3226 -0.5150
 5345TIP3   OH237449   0.865   3.513   1.740  0.2253 -0.8823 -0.5896
 5345TIP3    H137450   0.874   3.563   1.660 -0.9230 -0.1211 -0.2551
 5345TIP3    H237451   0.940   3.540   1.794 -0.7728  1.0729 -0.1139
 5346TIP3   OH237452   0.311   2.364   4.516 -0.1447  0.5743  0.6171
 5346TIP3    H137453   0.245   2.309   4.475  0.2185 -0.8148  1.8108
 5346TIP3    H237454   0.262   2.440   4.549 -0.6763  0.9265 -0.8690
 5347TIP3   OH237455   1.448   4.374   4.030  0.3444 -0.4121 -0.1234
 5347TIP3    H137456   1.357   4.346   4.043  0.2660  0.2475  0.8789
 5347TIP3    H237457   1.482   4.316   3.963 -1.0419 -0.2052 -1.0343
 5348TIP3   OH237458   4.038   2.234  15.454  0.0752  0.0815 -0.0690
 5348TIP3    H137459   4.051   2.172  15.526 -2.4951  2.0186  2.2533
 5348TIP3    H237460   3.964   2.198  15.405 -0.0121  0.2234 -0.0395
 5349TIP3   OH237461   3.743   3.071   2.980  0.1376  0.1322  0.1279
 5349TIP3    H137462   3.836   3.079   3.000 -0.2041  1.6577  1.3411
 5349TIP3    H237463   3.718   2.986   3.016  1.0814 -0.3378 -0.3072
 5350TIP3   OH237464   2.904   4.989   4.449  0.2378 -0.0533 -0.6406
 5350TIP3    H137465   2.955   5.024   4.523 -0.5926  1.0308 -0.5636
 5350TIP3    H237466   2.856   4.915   4.487 -0.8635  1.0341  0.1564
 5351TIP3   OH237467   4.689   2.218  12.316 -0.2089  0.2101 -0.3239
 5351TIP3    H137468   4.626   2.219  12.243  0.8276 -2.4727 -1.3695
 5351TIP3    H237469   4.774   2.233  12.275  0.2399  0.1941  0.5692
 5352TIP3   OH237470   1.714   3.293   1.931 -0.4718 -0.4057  0.2557
 5352TIP3    H137471   1.759   3.319   2.011 -0.6508  0.0228  0.2172
 5352TIP3    H237472   1.782   3.250   1.879  0.0632  0.8037 -0.0799
 5353TIP3   OH237473   3.953   4.105  12.246  0.0235  0.4559  0.3592
 5353TIP3    H137474   3.999   4.085  12.327  0.0801 -0.0695  0.2057
 5353TIP3    H237475   3.970   4.029  12.190  4.0288  2.7316 -1.9747
 5354TIP3   OH237476   6.348   4.290   5.119  0.4805  0.0152 -0.3207
 5354TIP3    H137477   6.371   4.374   5.158  1.0567 -0.1682 -0.2576
 5354TIP3    H237478   6.275   4.309   5.061 -0.7022  0.2224  1.1829
 5355TIP3   OH237479   6.106   1.154   2.285 -0.6173 -0.1632 -0.0441
 5355TIP3    H137480   6.088   1.092   2.215  0.6711 -1.6791  0.8866
 5355TIP3    H237481   6.024   1.160   2.334 -0.8950 -0.8003 -0.4159
 5356TIP3   OH237482   2.665   6.018  11.132 -0.0924 -0.0344  0.2989
 5356TIP3    H137483   2.664   6.096  11.188  0.1408  0.3010 -0.1524
 5356TIP3    H237484   2.582   6.021  11.085  0.6913  1.0092 -1.1255
 5357TIP3   OH237485   4.537   3.264  14.271  0.0908 -0.0604 -0.1148
 5357TIP3    H137486   4.586   3.280  14.352  1.4317 -0.7851 -0.7384
 5357TIP3    H237487   4.585   3.314  14.205 -0.0932 -0.6805 -0.7185
 5358TIP3   OH237488   4.983   0.649  16.824  0.4321 -0.4919  0.7463
 5358TIP3    H137489   4.894   0.677  16.844 -0.1109 -1.1568 -0.5942
 5358TIP3    H237490   5.004   0.691  16.740  0.1378 -2.8136 -0.5815
 5359TIP3   OH237491   3.825   5.525  11.522  0.6050 -0.2408 -0.5502
 5359TIP3    H137492   3.900   5.468  11.539  0.9496 -0.7046 -3.1086
 5359TIP3    H237493   3.853   5.581  11.450 -0.8396  0.9496 -0.2314
 5360TIP3   OH237494   4.083   5.831  11.665 -0.6280  0.1659 -0.0060
 5360TIP3    H137495   4.041   5.755  11.705  1.1091 -0.8251  0.0207
 5360TIP3    H237496   4.139   5.866  11.734 -1.1405  1.2762 -0.1365
 5361TIP3   OH237497   2.441   4.361   0.129  0.4103 -0.0873 -0.5944
 5361TIP3    H137498   2.434   4.291   0.194 -1.6557 -0.3912 -1.0852
 5361TIP3    H237499   2.396   4.435   0.170 -1.7681 -0.5669 -1.9997
 5362TIP3   OH237500   4.574   3.162   2.570 -0.0554  0.2458  0.4539
 5362TIP3    H137501   4.506   3.178   2.504  0.8641  0.9430 -0.3582
 5362TIP3    H237502   4.623   3.244   2.575  2.0570 -0.8630 -0.5745
 5363TIP3   OH237503   4.063   1.113   4.954  0.3916  0.4578 -0.0451
 5363TIP3    H137504   4.148   1.068   4.954  0.5293  0.7027 -0.6257
 5363TIP3    H237505   3.999   1.043   4.942  0.5499  0.3238 -0.1103
 5364TIP3   OH237506   3.423   4.473  11.294  0.2021 -0.1621  0.5335
 5364TIP3    H137507   3.381   4.483  11.209 -0.1335  0.9120  0.8167
 5364TIP3    H237508   3.501   4.528  11.289  0.5490 -0.6300  0.6925
 5365TIP3   OH237509   5.129   5.876  15.875 -0.0394  0.5792  0.0193
 5365TIP3    H137510   5.153   5.867  15.783 -0.4138  0.1607 -0.0413
 5365TIP3    H237511   5.177   5.954  15.904  2.2164 -0.8005  0.1962
 5366TIP3   OH237512   2.828   0.013   3.413 -0.2148 -0.0376  0.2921
 5366TIP3    H137513   2.817  -0.037   3.331 -1.8527  0.1565  0.3627
 5366TIP3    H237514   2.816   0.104   3.387  0.0470  0.0893  0.6176
 5367TIP3   OH237515   3.281   3.164  17.113 -0.1064 -0.8418 -0.1574
 5367TIP3    H137516   3.220   3.132  17.179  1.1044  0.5183  1.6877
 5367TIP3    H237517   3.238   3.241  17.075 -0.1827 -0.7862  0.0442
 5368TIP3   OH237518   1.881   4.307   3.759 -0.6163 -0.1838 -0.1808
 5368TIP3    H137519   1.897   4.283   3.851 -0.9008 -1.1410 -0.3719
 5368TIP3    H237520   1.922   4.237   3.709 -2.1989 -0.7353 -0.7508
 5369TIP3   OH237521   2.602   4.387   2.682  0.2717  0.1298  0.4917
 5369TIP3    H137522   2.560   4.472   2.690  0.8249  0.3130  1.5719
 5369TIP3    H237523   2.558   4.346   2.608 -0.7207  0.9314  0.6135
 5370TIP3   OH237524   6.269   4.114  15.704  0.6246 -0.3825 -0.2929
 5370TIP3    H137525   6.352   4.143  15.667 -0.7877  2.5882 -1.4242
 5370TIP3    H237526   6.221   4.077  15.629 -0.2387  0.8526 -0.3801
 5371TIP3   OH237527   6.685   3.074   0.020  0.0004  0.2807 -0.4127
 5371TIP3    H137528   6.751   3.030   0.073  0.1998 -0.6803 -1.4325
 5371TIP3    H237529   6.734   3.138  -0.032  0.0678 -0.1209 -0.8433
 5372TIP3   OH237530   1.516   2.735   4.603  0.7399  0.3542 -0.0601
 5372TIP3    H137531   1.433   2.783   4.607 -0.0174 -0.8508 -0.7251
 5372TIP3    H237532   1.521   2.689   4.687  0.0140 -0.6677 -0.5453
 5373TIP3   OH237533   4.262   4.014   3.302  0.3208 -0.6299 -0.4247
 5373TIP3    H137534   4.181   4.053   3.334  0.9332  0.2691  0.0634
 5373TIP3    H237535   4.271   4.046   3.212  0.6686  0.1281 -0.1258
 5374TIP3   OH237536   4.071   5.411   3.400  0.0398 -0.5010 -0.1068
 5374TIP3    H137537   3.998   5.369   3.355  1.3028 -1.3223 -1.4989
 5374TIP3    H237538   4.045   5.502   3.410 -1.0224 -0.7035 -0.8919
 5375TIP3   OH237539   5.744   2.453   4.642 -0.2636  0.0415 -0.0386
 5375TIP3    H137540   5.672   2.405   4.683 -1.8051  1.2627 -1.1942
 5375TIP3    H237541   5.705   2.535   4.613  0.8511 -0.4237 -3.3113
 5376TIP3   OH237542   2.053   0.787  17.288  0.5545 -0.1950 -0.2782
 5376TIP3    H137543   2.054   0.723  17.217 -0.1876 -0.7610  0.2103
 5376TIP3    H237544   2.073   0.736  17.366  0.9696  0.3550 -0.0191
 5377TIP3   OH237545   3.062   6.546   1.893  0.0472 -0.1871 -0.1639
 5377TIP3    H137546   3.101   6.481   1.951 -0.5327 -0.4321 -0.0333
 5377TIP3    H237547   2.993   6.586   1.945 -0.9167 -0.8652 -0.8642
 5378TIP3   OH237548   3.772   2.884   3.807 -0.0025 -0.5192 -0.4082
 5378TIP3    H137549   3.800   2.889   3.716 -1.0204  1.2880 -0.6627
 5378TIP3    H237550   3.798   2.968   3.845  0.3947 -1.2431  0.9841
 5379TIP3   OH237551   6.016   0.220   5.220 -0.0444 -0.1504  0.1205
 5379TIP3    H137552   6.017   0.153   5.288  0.0011  0.7366  1.0191
 5379TIP3    H237553   5.988   0.174   5.141  1.0492 -1.4506  0.4562
 5380TIP3   OH237554   5.870   3.507  14.723  0.1910 -0.2304  0.1037
 5380TIP3    H137555   5.892   3.589  14.767  0.8021  0.5916 -1.6310
 5380TIP3    H237556   5.879   3.440  14.790 -0.9969  1.1729  1.7494
 5381TIP3   OH237557   2.139   4.874   4.489 -0.0630 -0.0290 -0.1870
 5381TIP3    H137558   2.193   4.879   4.410  1.1728  1.9719  0.6930
 5381TIP3    H237559   2.049   4.884   4.458  0.3035 -0.3248 -1.4109
 5382TIP3   OH237560   5.474   3.185  11.523  0.2203 -0.2240  0.1857
 5382TIP3    H137561   5.455   3.271  11.561  1.4426  0.0406  0.2574
 5382TIP3    H237562   5.388   3.145  11.508 -0.3425  0.6455  0.9830
 5383TIP3   OH237563   3.762   1.319  14.556  0.2839 -0.0438 -0.5595
 5383TIP3    H137564   3.778   1.395  14.500 -1.9025 -0.1959 -1.4893
 5383TIP3    H237565   3.765   1.354  14.645 -3.6226  1.9626 -0.9693
 5384TIP3   OH237566   3.684   6.108  17.040  0.0149  0.5857  0.3214
 5384TIP3    H137567   3.722   6.145  16.960 -1.1736  0.5131 -0.3000
 5384TIP3    H237568   3.751   6.122  17.107  0.8544  1.0492 -0.5841
 5385TIP3   OH237569   1.670   5.827  11.765  0.1706 -0.4492 -0.0977
 5385TIP3    H137570   1.676   5.760  11.697 -0.5298 -0.8299  0.2077
 5385TIP3    H237571   1.631   5.903  11.721 -0.4203 -0.7444 -0.0961
 5386TIP3   OH237572   3.150   6.713  16.784 -0.0366  0.1152  0.1904
 5386TIP3    H137573   3.061   6.739  16.759  0.4586  0.6539 -1.0934
 5386TIP3    H237574   3.145   6.700  16.879 -1.7797 -1.0753 -0.0101
 5387TIP3   OH237575   2.546   5.495   4.560  0.3047 -0.1567  0.2386
 5387TIP3    H137576   2.585   5.582   4.566 -1.6508  0.7688  0.3910
 5387TIP3    H237577   2.493   5.498   4.481 -1.6150 -0.3894  1.4572
 5388TIP3   OH237578   4.024   4.229   2.943 -0.8909 -0.4700 -0.1637
 5388TIP3    H137579   3.935   4.195   2.954 -1.2853  0.8467  1.0049
 5388TIP3    H237580   4.080   4.162   2.983 -0.9405 -2.8891 -3.6480
 5389TIP3   OH237581   3.682   3.777  16.108 -0.3706 -0.0575 -0.3135
 5389TIP3    H137582   3.742   3.830  16.161  2.2853 -2.0381 -1.1546
 5389TIP3    H237583   3.638   3.720  16.172  1.7750 -1.4491  0.0299
 5390TIP3   OH237584   1.242   4.258  13.368  0.3616 -0.1967  0.3306
 5390TIP3    H137585   1.176   4.194  13.341 -0.2007  0.5943 -0.2280
 5390TIP3    H237586   1.231   4.265  13.463  0.5825 -1.0763  0.4303
 5391TIP3   OH237587   3.013   5.203   5.815  0.2580 -0.3440 -0.0022
 5391TIP3    H137588   2.995   5.141   5.744 -0.5304 -0.2219  0.0826
 5391TIP3    H237589   3.102   5.234   5.798 -0.0789  0.0208 -1.1913
 5392TIP3   OH237590   3.426   2.730  14.786  0.2419 -0.5377 -0.0763
 5392TIP3    H137591   3.519   2.737  14.761  0.3291  0.7260  0.5319
 5392TIP3    H237592   3.428   2.729  14.881 -0.4555  1.0432 -0.0297
 5393TIP3   OH237593   1.324   3.967  16.353  0.6094 -0.1861  0.3689
 5393TIP3    H137594   1.312   3.937  16.443 -1.2555 -0.4294  0.0785
 5393TIP3    H237595   1.366   4.053  16.362  0.9618 -0.4574  1.4446
 5394TIP3   OH237596   4.665   3.457  17.302  0.0641 -0.1275  0.0484
 5394TIP3    H137597   4.607   3.385  17.280  0.0546 -0.4886  1.2080
 5394TIP3    H237598   4.612   3.536  17.290 -0.0095 -0.3037 -0.9343
 5395TIP3   OH237599   3.267   3.615  15.993 -0.1327 -0.2741  0.3536
 5395TIP3    H137600   3.190   3.571  15.956  1.2891 -1.6885 -1.0764
 5395TIP3    H237601   3.255   3.707  15.968 -1.3985 -0.4567  0.2217
 5396TIP3   OH237602   2.488   3.927  17.091 -0.3895 -0.1447  0.0104
 5396TIP3    H137603   2.471   3.833  17.087 -0.9268 -0.0685  0.4445
 5396TIP3    H237604   2.463   3.953  17.180 -1.9010  0.7051 -0.6038
 5397TIP3   OH237605   4.082   2.619   1.929  0.1625 -0.3652  0.3899
 5397TIP3    H137606   4.081   2.605   2.024  0.2843 -0.7449  0.3400
 5397TIP3    H237607   4.097   2.531   1.893  1.5685 -0.0193  0.0684
 5398TIP3   OH237608   1.596   0.287   0.858  0.0087  0.2477 -0.1937
 5398TIP3    H137609   1.526   0.349   0.838  0.3720  0.9594  0.7282
 5398TIP3    H237610   1.670   0.316   0.804 -0.0919  0.0914 -0.4171
 5399TIP3   OH237611   4.511   5.177  13.579 -0.9383 -0.2293  0.1147
 5399TIP3    H137612   4.532   5.098  13.630 -0.3359 -0.2458 -0.1522
 5399TIP3    H237613   4.415   5.177  13.573 -1.0339 -0.1388  1.3862
 5400TIP3   OH237614   0.465   1.314  12.407  0.0930 -0.3325 -0.0551
 5400TIP3    H137615   0.519   1.393  12.418  1.7894 -1.4034 -0.2582
 5400TIP3    H237616   0.480   1.289  12.315 -1.4744 -0.1877 -0.3735
 5401TIP3   OH237617   6.013   6.321   0.297 -0.0087  0.0536  0.6642
 5401TIP3    H137618   6.088   6.302   0.240  0.3507  0.3674  1.0292
 5401TIP3    H237619   5.942   6.268   0.261  0.3936 -0.2646  0.3298
 5402TIP3   OH237620   0.102   3.285   4.987 -0.1766 -0.8731 -0.1565
 5402TIP3    H137621   0.034   3.327   4.933  0.7826 -0.2684 -0.9151
 5402TIP3    H237622   0.116   3.200   4.945 -1.1204 -1.4069  0.5614
 5403TIP3   OH237623   2.266   4.178  14.504  0.4226  0.1645 -0.0262
 5403TIP3    H137624   2.203   4.228  14.453  0.9445  0.7185 -0.1498
 5403TIP3    H237625   2.219   4.152  14.583 -0.5463 -1.1469 -1.0014
 5404TIP3   OH237626   3.413   1.492  13.546 -0.4201  0.5985  0.3395
 5404TIP3    H137627   3.450   1.569  13.504 -0.3611  0.3668 -0.0387
 5404TIP3    H237628   3.380   1.439  13.474 -1.8964  1.0084  0.6852
 5405TIP3   OH237629   0.018   2.727  16.974  0.1318  0.2764  0.5829
 5405TIP3    H137630  -0.050   2.747  16.910  1.4878  0.3087 -0.9072
 5405TIP3    H237631   0.058   2.646  16.942  3.0798  2.0510 -0.6283
 5406TIP3   OH237632   3.073   5.201  17.277 -0.1256 -0.3507  0.0131
 5406TIP3    H137633   3.141   5.203  17.345 -0.2884 -0.3662  0.1773
 5406TIP3    H237634   3.044   5.291  17.270  0.5930 -0.1729 -0.7485
 5407TIP3   OH237635   2.518   6.614   1.575 -0.2785  0.4615  0.4299
 5407TIP3    H137636   2.459   6.558   1.626  1.1314 -0.7194  0.8546
 5407TIP3    H237637   2.538   6.687   1.634  0.0688 -0.0628  0.9775
 5408TIP3   OH237638   6.131   0.548  12.311  0.2757  0.8582 -0.2510
 5408TIP3    H137639   6.129   0.639  12.340  0.4860  1.8713 -3.1288
 5408TIP3    H237640   6.222   0.533  12.284  0.4845 -0.5602  1.1046
 5409TIP3   OH237641   1.957   1.632   6.458  0.3037  0.0478  0.3125
 5409TIP3    H137642   2.045   1.635   6.495  0.9291 -0.6649 -1.0303
 5409TIP3    H237643   1.924   1.545   6.481  0.4614 -0.1709 -0.2694
 5410TIP3   OH237644   5.810   1.893   3.040 -0.5849  0.1313 -0.6170
 5410TIP3    H137645   5.832   1.986   3.033  1.9068 -0.3202  0.1591
 5410TIP3    H237646   5.876   1.848   2.987 -1.5758 -1.2255 -0.7620
 5411TIP3   OH237647   3.611   5.333  17.067 -0.1792  0.4580 -0.4447
 5411TIP3    H137648   3.621   5.409  17.124  3.7983  0.0034 -0.2532
 5411TIP3    H237649   3.610   5.258  17.126 -0.5477  0.1834 -0.7917
 5412TIP3   OH237650   1.018   3.333  13.375  0.1632 -0.1100  0.1295
 5412TIP3    H137651   0.962   3.280  13.433 -1.8858  0.2245 -1.4042
 5412TIP3    H237652   1.048   3.271  13.309 -0.8477  0.2489 -0.7006
 5413TIP3   OH237653   6.477   2.720  14.619 -0.3344  0.7236 -0.2343
 5413TIP3    H137654   6.441   2.689  14.703 -0.3638 -1.6162 -1.0366
 5413TIP3    H237655   6.413   2.784  14.588 -1.6749 -0.2912  0.3234
 5414TIP3   OH237656   2.567   2.920   5.235  0.2977 -0.0688 -0.2255
 5414TIP3    H137657   2.656   2.935   5.265  0.7271 -0.6150 -1.1789
 5414TIP3    H237658   2.537   3.005   5.201 -0.1427  0.5171  1.5493
 5415TIP3   OH237659   5.636   5.140   5.109  0.3803  0.0827  0.0625
 5415TIP3    H137660   5.691   5.212   5.078 -0.2366  0.7153  0.3981
 5415TIP3    H237661   5.606   5.097   5.029 -1.5901  1.9984 -0.3495
 5416TIP3   OH237662   6.253   4.740  15.793  0.2538  0.0629 -0.2470
 5416TIP3    H137663   6.272   4.785  15.711  0.1855  0.6356  0.0411
 5416TIP3    H237664   6.164   4.766  15.815  0.6565  0.8358  0.5745
 5417TIP3   OH237665   4.140   5.836  16.623 -0.2258  0.4833  0.7458
 5417TIP3    H137666   4.191   5.833  16.542 -0.4412  1.1180  0.5825
 5417TIP3    H237667   4.136   5.929  16.646 -2.0239  0.5433  0.2932
 5418TIP3   OH237668   2.293   3.444  15.752  0.5428  0.0778  0.2647
 5418TIP3    H137669   2.227   3.427  15.685  2.0605  1.5410 -1.7347
 5418TIP3    H237670   2.340   3.360  15.760  0.0913 -0.2320 -0.2189
 5419TIP3   OH237671   5.458   4.425  15.441 -0.2955 -0.7430 -0.1605
 5419TIP3    H137672   5.422   4.404  15.527 -0.6962 -1.5750 -0.5145
 5419TIP3    H237673   5.386   4.407  15.380  0.4845 -1.7423 -0.8193
 5420TIP3   OH237674   4.143   2.571   3.912  0.2958 -0.1154 -0.0901
 5420TIP3    H137675   4.129   2.664   3.894 -2.2854 -0.6924 -1.5212
 5420TIP3    H237676   4.057   2.539   3.939 -0.0593 -2.8754 -3.7342
 5421TIP3   OH237677   1.132   6.155  11.553  0.0708  0.3570  0.4218
 5421TIP3    H137678   1.215   6.167  11.508  0.7138  1.3358  1.8070
 5421TIP3    H237679   1.086   6.238  11.541 -0.4826  0.0088  0.1176
 5422TIP3   OH237680   5.292   1.626  11.789 -0.3232  0.4132 -0.9822
 5422TIP3    H137681   5.274   1.685  11.716 -0.1186 -1.7570 -2.8911
 5422TIP3    H237682   5.350   1.677  11.847 -1.1520  2.4759 -1.8805
 5423TIP3   OH237683   6.006   0.367  13.058 -0.5111  0.0855 -0.5390
 5423TIP3    H137684   5.947   0.305  13.015  0.9913 -0.5370 -1.7638
 5423TIP3    H237685   6.056   0.314  13.120 -1.0049  0.5615  0.2924
 5424TIP3   OH237686   6.196   3.583   2.199 -0.2485 -0.5434  0.1252
 5424TIP3    H137687   6.194   3.494   2.235 -2.9998 -0.6887 -0.1296
 5424TIP3    H237688   6.169   3.571   2.107 -0.4612  0.5289  0.0386
 5425TIP3   OH237689   2.940   4.607   1.810 -0.2620  0.2803  0.2027
 5425TIP3    H137690   3.021   4.619   1.860  0.8937 -0.9724 -1.2780
 5425TIP3    H237691   2.943   4.675   1.743  0.0453 -0.3662 -0.4433
 5426TIP3   OH237692   0.804   4.398   1.439 -0.0068 -0.3771  0.0969
 5426TIP3    H137693   0.790   4.399   1.533 -1.1709 -1.0040 -0.0528
 5426TIP3    H237694   0.891   4.358   1.427 -0.5652 -1.8755  0.8341
 5427TIP3   OH237695   4.593   6.247   1.067  0.5192 -0.3317  0.0586
 5427TIP3    H137696   4.577   6.207   0.982 -2.1160 -3.3195  1.7227
 5427TIP3    H237697   4.680   6.218   1.092 -0.0673 -2.4879 -0.1964
 5428TIP3   OH237698   4.996   3.730   1.641  0.3106  0.0355 -0.5860
 5428TIP3    H137699   5.065   3.749   1.705 -0.1280 -0.7834  0.1506
 5428TIP3    H237700   4.915   3.727   1.692 -0.2004  0.3795 -1.3455
 5429TIP3   OH237701   5.085   5.039  14.602  0.0198 -0.2350 -0.1223
 5429TIP3    H137702   5.098   4.964  14.544  0.6443 -0.8860  0.8231
 5429TIP3    H237703   5.050   5.001  14.683  1.2299  0.3514  0.7086
 5430TIP3   OH237704   3.696   5.032   4.352  0.4156 -0.1549  0.1860
 5430TIP3    H137705   3.679   4.941   4.377 -1.1241  0.8652  3.3195
 5430TIP3    H237706   3.733   5.071   4.431  1.7914  1.8031 -1.3492
 5431TIP3   OH237707   6.544   5.586   1.631 -0.1119  0.2154  0.6521
 5431TIP3    H137708   6.476   5.592   1.698  0.9977  0.9356  1.7495
 5431TIP3    H237709   6.546   5.493   1.608 -0.9879  0.0744  1.1040
 5432TIP3   OH237710   5.634   4.613  14.174 -0.2438 -0.0791  0.2922
 5432TIP3    H137711   5.716   4.592  14.128 -1.1111  0.5299 -1.6244
 5432TIP3    H237712   5.604   4.528  14.207  0.4274 -0.5520 -0.2578
 5433TIP3   OH237713   3.859   4.977  15.848  0.5016  0.2263 -0.1541
 5433TIP3    H137714   3.817   4.892  15.858  1.1261 -0.2363 -1.3155
 5433TIP3    H237715   3.794   5.030  15.802  1.1628 -0.5171 -2.0381
 5434TIP3   OH237716   6.504   0.350  13.971  0.5889  0.3793  0.1441
 5434TIP3    H137717   6.479   0.353  13.879  1.2619 -3.5588 -0.3607
 5434TIP3    H237718   6.590   0.392  13.974 -0.0089  1.7086 -0.7487
 5435TIP3   OH237719   1.526   0.458   5.483 -0.4209 -0.0695  0.3375
 5435TIP3    H137720   1.519   0.390   5.415 -0.6307 -0.3220  0.6097
 5435TIP3    H237721   1.566   0.532   5.438 -0.5687 -0.2310 -0.0703
 5436TIP3   OH237722   2.429   1.616  12.959  0.4801 -0.5776 -0.1828
 5436TIP3    H137723   2.482   1.595  13.036 -0.0171 -1.9927 -0.1930
 5436TIP3    H237724   2.460   1.702  12.931  1.6150 -0.6433  0.7848
 5437TIP3   OH237725   1.765   1.544  14.850 -0.1485  0.6094 -0.8894
 5437TIP3    H137726   1.833   1.520  14.913 -0.3192 -0.1501 -0.9856
 5437TIP3    H237727   1.717   1.615  14.893 -0.1379  0.2363 -0.2472
 5438TIP3   OH237728   0.061   2.049  12.303 -0.3830  0.1496  0.1818
 5438TIP3    H137729   0.125   2.090  12.361  0.0468  2.4290 -1.7949
 5438TIP3    H237730  -0.010   2.112  12.297  0.0991  0.5533 -2.5987
 5439TIP3   OH237731   6.719   6.059   3.504 -0.4084  0.3995 -0.1844
 5439TIP3    H137732   6.796   6.113   3.522 -0.0784  0.2152 -0.9854
 5439TIP3    H237733   6.653   6.090   3.566  0.5782 -0.0428  1.1329
 5440TIP3   OH237734   1.190   1.452  15.954  0.1670  0.3492  0.2158
 5440TIP3    H137735   1.232   1.400  15.885  0.6861  2.1143 -0.8706
 5440TIP3    H237736   1.107   1.481  15.915 -0.2252  0.1525  0.8944
 5441TIP3   OH237737   6.484   5.905  14.516 -0.3219  0.5330 -0.0091
 5441TIP3    H137738   6.390   5.917  14.505 -0.4041 -0.7281 -0.8804
 5441TIP3    H237739   6.518   5.902  14.427  0.0932 -2.0825  0.1670
 5442TIP3   OH237740   3.092   6.424   5.793  0.1360  0.0325 -0.0333
 5442TIP3    H137741   3.186   6.430   5.772  0.3449  1.2961  1.0655
 5442TIP3    H237742   3.077   6.332   5.810  1.4366 -0.0646  0.7663
 5443TIP3   OH237743   2.958   6.135   6.366  0.4909 -0.5344 -0.2756
 5443TIP3    H137744   2.916   6.219   6.382 -0.2399 -1.3108  2.3746
 5443TIP3    H237745   2.898   6.089   6.307 -2.4531 -1.5039  3.1708
 5444TIP3   OH237746   1.487   3.028   2.137  0.0150 -0.5400 -0.2868
 5444TIP3    H137747   1.462   3.119   2.123  1.0647 -0.2759 -0.4871
 5444TIP3    H237748   1.513   2.997   2.051 -0.7966 -1.1846 -0.3129
 5445TIP3   OH237749   5.638   5.012  16.431  0.2465  0.1040  0.1187
 5445TIP3    H137750   5.665   4.941  16.373  0.0100 -0.3780  0.5800
 5445TIP3    H237751   5.719   5.046  16.467  0.3551 -0.0390  0.0066
 5446TIP3   OH237752   6.343   5.038   5.270  0.4592  0.1860  0.2077
 5446TIP3    H137753   6.316   5.058   5.181 -2.4972  0.4137  1.0289
 5446TIP3    H237754   6.262   5.041   5.321  2.0808  0.4659  3.0008
 5447TIP3   OH237755   0.550   5.783   3.832 -0.4805  0.1479 -0.5728
 5447TIP3    H137756   0.602   5.842   3.886  2.2669 -1.0218 -1.7295
 5447TIP3    H237757   0.559   5.697   3.874  0.3464 -0.4676 -1.9350
 5448TIP3   OH237758   2.944   4.609   2.584 -0.4477 -0.2692  0.6244
 5448TIP3    H137759   2.915   4.697   2.608  2.0009  0.6751  0.3876
 5448TIP3    H237760   2.900   4.552   2.647 -0.7131  1.2942  1.9436
 5449TIP3   OH237761   2.860   2.011  12.347 -0.1159  0.1631 -0.2156
 5449TIP3    H137762   2.863   2.029  12.440  0.2239  1.1512 -0.4118
 5449TIP3    H237763   2.882   1.918  12.340  0.5506  0.2470  0.6345
 5450TIP3   OH237764   5.397   4.014   0.676 -0.5649 -0.4247  0.1582
 5450TIP3    H137765   5.366   4.025   0.586 -1.8152  0.5657  0.6748
 5450TIP3    H237766   5.318   4.023   0.729  0.3359  0.2446  1.4287
 5451TIP3   OH237767   5.179   3.302  13.114 -0.0960  0.5264 -0.2682
 5451TIP3    H137768   5.242   3.291  13.185 -0.2114 -0.0340 -0.2455
 5451TIP3    H237769   5.190   3.223  13.060  2.1760  2.2594 -2.6203
 5452TIP3   OH237770   4.788   1.583  15.660 -0.3693  0.0371 -0.2005
 5452TIP3    H137771   4.836   1.587  15.743  2.3970  2.4817 -1.7432
 5452TIP3    H237772   4.721   1.651  15.668 -0.8641 -0.5131  0.4166
 5453TIP3   OH237773   1.513   1.122  13.635  0.2441  0.3142  0.0993
 5453TIP3    H137774   1.563   1.202  13.618 -1.1907  1.5773  1.4806
 5453TIP3    H237775   1.538   1.097  13.725  0.5469 -0.7166 -0.2550
 5454TIP3   OH237776   2.170   2.620  12.223 -0.3623 -0.0048 -0.1472
 5454TIP3    H137777   2.227   2.551  12.258  0.1015  1.1880  1.5543
 5454TIP3    H237778   2.136   2.665  12.300 -2.0883  0.5511 -1.1856
 5455TIP3   OH237779   1.022   3.995   2.080 -0.0880  0.1411 -0.3495
 5455TIP3    H137780   0.993   3.905   2.091  0.0785  0.3753  2.6783
 5455TIP3    H237781   0.945   4.041   2.046 -1.2041 -0.5470  1.1511
 5456TIP3   OH237782   2.712   0.515   3.552 -0.2408  0.8282  0.2110
 5456TIP3    H137783   2.789   0.510   3.609  0.5812  1.2229 -0.8329
 5456TIP3    H237784   2.743   0.561   3.474 -1.2867  0.1628 -0.6257
 5457TIP3   OH237785   4.710   0.394  12.660  0.3411 -0.2145 -0.4023
 5457TIP3    H137786   4.778   0.392  12.594  0.4037  0.5866 -0.3669
 5457TIP3    H237787   4.757   0.397  12.743  0.2636  0.3164 -0.3766
 5458TIP3   OH237788   4.413   1.425   4.990  0.1443  0.0394  0.1754
 5458TIP3    H137789   4.379   1.361   5.053  0.4080  0.3091  0.5948
 5458TIP3    H237790   4.467   1.484   5.042  1.0885 -0.2480 -0.4389
 5459TIP3   OH237791   2.777   2.942  13.231 -0.1551 -0.3788  0.2787
 5459TIP3    H137792   2.834   2.952  13.155 -0.4386 -0.5270  0.0481
 5459TIP3    H237793   2.710   2.880  13.203 -0.5742 -0.0155  0.4699
 5460TIP3   OH237794   2.194   2.417  13.596 -0.4965 -0.0014 -0.0766
 5460TIP3    H137795   2.203   2.363  13.675 -0.1353  1.2504  0.7651
 5460TIP3    H237796   2.194   2.507  13.628  0.5355  0.5792 -1.5718
 5461TIP3   OH237797   5.463   1.771  16.442 -0.3542 -0.9180 -0.2659
 5461TIP3    H137798   5.440   1.839  16.506 -2.1463 -1.8431  0.1359
 5461TIP3    H237799   5.512   1.818  16.374 -0.5216  0.5549  0.5874
 5462TIP3   OH237800   1.720   5.962  16.531 -0.0497 -0.0122 -0.3336
 5462TIP3    H137801   1.627   5.938  16.525 -0.4963  1.3314  0.7176
 5462TIP3    H237802   1.733   6.024  16.459  0.5641 -1.6503 -1.7033
 5463TIP3   OH237803   0.868   0.217   1.928  0.4100 -0.1261 -0.2163
 5463TIP3    H137804   0.803   0.233   1.860  0.2608 -0.9472 -0.2788
 5463TIP3    H237805   0.904   0.131   1.907  1.0962  0.0658  0.1552
 5464TIP3   OH237806   0.012   5.085  15.072  0.3072  0.0787 -0.2521
 5464TIP3    H137807   0.028   4.991  15.085  0.4495  0.1091 -0.1986
 5464TIP3    H237808   0.052   5.126  15.149 -0.1315  0.1504 -0.0600
 5465TIP3   OH237809   3.721   2.927  12.608 -0.0780  0.4796 -0.4609
 5465TIP3    H137810   3.662   2.994  12.641 -1.6944 -1.5502  0.9820
 5465TIP3    H237811   3.797   2.931  12.667  0.5283  1.9644 -1.2912
 5466TIP3   OH237812   1.711   4.907   1.882 -0.3174  0.0656 -0.0779
 5466TIP3    H137813   1.732   4.941   1.796  0.4824 -1.8332 -0.6940
 5466TIP3    H237814   1.792   4.912   1.931 -0.3836 -0.2323  0.0660
 5467TIP3   OH237815   0.245   0.083   0.146 -0.2646 -0.2171 -0.4621
 5467TIP3    H137816   0.325   0.090   0.095  0.2001  1.5720  0.4167
 5467TIP3    H237817   0.174   0.089   0.082  0.3048 -0.7486 -1.1436
 5468TIP3   OH237818   5.508   4.737  17.246 -0.2091 -0.1944 -0.1764
 5468TIP3    H137819   5.553   4.807  17.199 -1.6782  0.8344 -0.1252
 5468TIP3    H237820   5.576   4.695  17.298  0.8978  0.5226 -1.0081
 5469TIP3   OH237821   1.310   0.745  14.095 -0.3149 -0.0805  0.1974
 5469TIP3    H137822   1.379   0.803  14.126 -3.2824  4.6022 -0.9557
 5469TIP3    H237823   1.320   0.746  14.000  0.4986 -2.9801  0.1756
 5470TIP3   OH237824   2.481   6.168   4.923 -0.0712  0.2800 -0.3204
 5470TIP3    H137825   2.536   6.245   4.905  1.0125 -0.4171 -0.0837
 5470TIP3    H237826   2.523   6.125   4.997 -2.0657  0.7715  1.1593
 5471TIP3   OH237827   1.468   0.191  11.880 -0.3466 -0.8237 -0.0212
 5471TIP3    H137828   1.502   0.156  11.797 -1.6389 -2.1021 -0.0417
 5471TIP3    H237829   1.521   0.149  11.947 -0.1290 -0.7531 -0.1460
 5472TIP3   OH237830   2.310   6.321   0.247  0.6702  0.0639 -0.0623
 5472TIP3    H137831   2.380   6.386   0.239  0.4069  0.3050 -0.4991
 5472TIP3    H237832   2.353   6.237   0.230  0.7647  0.2586 -0.8437
 5473TIP3   OH237833   4.753   4.122  14.087  0.3096  0.2811  0.5349
 5473TIP3    H137834   4.739   4.042  14.036 -0.9677 -0.5692  2.1345
 5473TIP3    H237835   4.764   4.091  14.177  0.4290  1.8696  1.0898
 5474TIP3   OH237836   1.476   5.988  12.567  0.0171 -0.1038 -0.6704
 5474TIP3    H137837   1.509   5.956  12.651 -0.4373  0.7386 -0.1529
 5474TIP3    H237838   1.381   5.995  12.580  0.1918  2.3693 -0.4242
 5475TIP3   OH237839   1.476   0.348  17.336 -0.2848 -1.1362 -0.0326
 5475TIP3    H137840   1.387   0.342  17.369 -0.4445 -0.5263 -0.3366
 5475TIP3    H237841   1.504   0.257  17.326 -1.0233 -1.3392 -0.3406
 5476TIP3   OH237842   2.520   4.274   4.748 -0.6575 -0.5055 -0.9025
 5476TIP3    H137843   2.614   4.287   4.734 -0.2175 -2.0976  0.3189
 5476TIP3    H237844   2.480   4.299   4.664  0.6459  1.8226 -0.9287
 5477TIP3   OH237845   3.978   1.435  13.847  0.4347 -0.1280  0.2298
 5477TIP3    H137846   4.060   1.461  13.889  1.0786  1.2405 -1.7457
 5477TIP3    H237847   4.000   1.354  13.801  0.6291  0.1388 -0.1483
 5478TIP3   OH237848   5.956   5.403  14.416  0.4601 -0.0115  0.0630
 5478TIP3    H137849   5.880   5.452  14.384  0.1946 -1.2940 -1.3967
 5478TIP3    H237850   5.918   5.326  14.459  0.8156 -1.8464 -2.5946
 5479TIP3   OH237851   2.487   0.078  17.145 -0.8587 -0.1965  0.5836
 5479TIP3    H137852   2.466   0.113  17.232 -0.3682  0.0595  0.6006
 5479TIP3    H237853   2.429   0.003  17.135 -0.2917 -0.7852  1.5174
 5480TIP3   OH237854   1.509   3.807   4.536 -0.2461 -0.4976  0.1503
 5480TIP3    H137855   1.486   3.727   4.490  1.8076 -1.1279  0.1340
 5480TIP3    H237856   1.580   3.846   4.485  0.2632  0.1836  1.3205
 5481TIP3   OH237857   3.794   5.119  15.400  0.1168  0.0323  0.2679
 5481TIP3    H137858   3.821   5.027  15.402  1.5401  0.4353  1.7603
 5481TIP3    H237859   3.870   5.165  15.365 -0.1250  0.7691  0.6928
 5482TIP3   OH237860   6.476   3.775  12.212 -0.1348 -0.1854 -0.6519
 5482TIP3    H137861   6.523   3.693  12.227  1.0145  0.2207 -1.8621
 5482TIP3    H237862   6.458   3.776  12.118  0.1858  1.1073 -0.7250
 5483TIP3   OH237863   1.710   1.475   0.101 -0.5068 -0.2802 -0.3084
 5483TIP3    H137864   1.662   1.393   0.092 -1.6512  0.3054  0.2875
 5483TIP3    H237865   1.708   1.494   0.195 -0.8934  0.8073 -0.5215
 5484TIP3   OH237866   0.764   1.943   1.895  0.0519 -0.1519 -0.3883
 5484TIP3    H137867   0.702   1.999   1.943  1.4128  0.8144  0.2993
 5484TIP3    H237868   0.801   2.000   1.828  0.1312 -0.7493 -0.8570
 5485TIP3   OH237869   3.262   1.932  16.197 -0.5882 -0.3617 -0.4379
 5485TIP3    H137870   3.245   1.876  16.272  1.9730  1.3053  1.5574
 5485TIP3    H237871   3.289   1.871  16.128  1.0902 -1.7242  1.3230
 5486TIP3   OH237872   4.832   3.751  14.742 -0.5775  0.0586 -0.8155
 5486TIP3    H137873   4.782   3.685  14.695 -0.0315  0.8581 -2.5774
 5486TIP3    H237874   4.876   3.702  14.812 -3.4186 -0.7360  0.5872
 5487TIP3   OH237875   1.206   6.642   2.078  0.5677 -0.0336 -0.4955
 5487TIP3    H137876   1.243   6.597   2.154 -0.0630  0.7187  0.2747
 5487TIP3    H237877   1.190   6.573   2.014  1.7237 -0.5938 -0.2056
 5488TIP3   OH237878   4.893   5.533  12.012  0.3473  0.0024 -0.5587
 5488TIP3    H137879   4.804   5.555  11.986  0.7389  1.0319 -1.0747
 5488TIP3    H237880   4.897   5.438  12.005 -0.9781 -0.1474  0.3605
 5489TIP3   OH237881   5.814   1.905  14.837 -0.1505 -0.4045 -0.1903
 5489TIP3    H137882   5.767   1.926  14.918 -0.7901  0.3974 -0.7527
 5489TIP3    H237883   5.902   1.940  14.851 -0.5887  0.7928 -0.2683
 5490TIP3   OH237884   2.079   0.690  16.890  0.3361  0.1251 -0.2612
 5490TIP3    H137885   2.105   0.606  16.852 -1.2227 -0.7568  0.5065
 5490TIP3    H237886   1.995   0.672  16.933  0.7854  1.6746  1.4032
 5491TIP3   OH237887   2.986   4.250  14.899  0.1367 -0.0446  0.6545
 5491TIP3    H137888   3.075   4.247  14.936  0.3559 -1.0392  0.0668
 5491TIP3    H237889   2.957   4.340  14.916  0.3111 -0.3494  3.0158
 5492TIP3   OH237890   6.323   3.368   1.974  0.2032  0.4298  1.0116
 5492TIP3    H137891   6.296   3.293   2.027  1.3642  0.0788  1.1507
 5492TIP3    H237892   6.242   3.406   1.942 -0.4201 -0.6712  1.2435
 5493TIP3   OH237893   6.661   3.145  16.795  0.1353  0.4532  0.2624
 5493TIP3    H137894   6.664   3.174  16.886  0.9136  1.9159 -0.1990
 5493TIP3    H237895   6.747   3.106  16.779 -0.2368 -0.4114  0.3313
 5494TIP3   OH237896   2.353   6.159  11.840  0.2043 -0.2673 -0.3401
 5494TIP3    H137897   2.341   6.070  11.874  0.8825 -0.0829  0.4142
 5494TIP3    H237898   2.307   6.215  11.903 -0.2336 -0.0804 -0.8198
 5495TIP3   OH237899   4.372   6.363   2.895  0.3697 -0.3569  0.0213
 5495TIP3    H137900   4.414   6.422   2.832  1.1019  0.5064  1.2865
 5495TIP3    H237901   4.441   6.302   2.921  0.9529  1.0659  2.1049
 5496TIP3   OH237902   2.205   0.959   2.833  0.1809  0.0415  0.2148
 5496TIP3    H137903   2.195   0.943   2.739  0.7358  1.3892 -0.0894
 5496TIP3    H237904   2.200   1.054   2.842  2.8676  0.1796  1.1879
 5497TIP3   OH237905   3.558   1.359   5.709  0.0806 -0.2492 -0.1665
 5497TIP3    H137906   3.471   1.318   5.715 -0.7675  1.1503 -2.0048
 5497TIP3    H237907   3.540   1.453   5.712  1.9031  0.1290  3.0315
 5498TIP3   OH237908   2.239   6.337  12.518 -0.2324  0.5328 -0.1680
 5498TIP3    H137909   2.289   6.408  12.558  1.2955 -0.5594 -0.0502
 5498TIP3    H237910   2.207   6.286  12.592  2.8288 -1.6487 -0.1767
 5499TIP3   OH237911   3.714   5.788  13.203 -0.2233  0.6656  0.7008
 5499TIP3    H137912   3.794   5.820  13.162  0.6502 -0.8427  1.1689
 5499TIP3    H237913   3.708   5.696  13.178 -1.1363  0.4236  1.7033
 5500TIP3   OH237914   1.420   4.835   3.603  0.1266  0.3058  0.0536
 5500TIP3    H137915   1.339   4.883   3.586  0.7484  1.4978  0.3408
 5500TIP3    H237916   1.475   4.855   3.527  1.1024  1.6547  1.0695
 5501TIP3   OH237917   3.791   3.131   5.566  0.1222  0.5731 -0.3328
 5501TIP3    H137918   3.762   3.068   5.500  0.8560  1.4839 -1.5592
 5501TIP3    H237919   3.710   3.159   5.608 -0.4330  0.4223 -1.2660
 5502TIP3   OH237920   1.420   5.540  16.232  0.1176 -0.0475  0.9504
 5502TIP3    H137921   1.448   5.569  16.319  0.2389  1.2279  0.5019
 5502TIP3    H237922   1.394   5.448  16.245  2.3536 -0.6323  1.8634
 5503TIP3   OH237923   1.115   1.157  12.197  0.1684 -0.4092  0.2808
 5503TIP3    H137924   1.177   1.086  12.181  1.2055  0.7530 -1.1152
 5503TIP3    H237925   1.149   1.202  12.274 -0.9905 -1.9031  1.7279
 5504TIP3   OH237926   1.278   5.761   1.153 -0.5684 -0.4048 -0.2254
 5504TIP3    H137927   1.288   5.677   1.198  2.2944  1.2979  2.7396
 5504TIP3    H237928   1.190   5.791   1.178 -0.8796 -1.6467  0.2514
 5505TIP3   OH237929   0.776   1.591  17.145  0.6849  0.1041 -0.0954
 5505TIP3    H137930   0.700   1.603  17.089  0.4301 -1.5239 -0.1465
 5505TIP3    H237931   0.780   1.670  17.198 -2.1437 -0.5053  1.1913
 5506TIP3   OH237932   0.437   3.322  16.205  0.3117  0.0197 -0.0982
 5506TIP3    H137933   0.349   3.335  16.241  0.2607 -1.6080  0.4324
 5506TIP3    H237934   0.476   3.410  16.204 -0.5970  0.4704  1.5495
 5507TIP3   OH237935   2.534   0.331  12.886 -0.3656  0.1193 -0.2758
 5507TIP3    H137936   2.451   0.289  12.906 -0.8229  1.2640  0.2826
 5507TIP3    H237937   2.577   0.271  12.824 -1.6987 -0.3622 -0.7560
 5508TIP3   OH237938   2.131   4.442  14.180 -0.1333 -0.5378  0.3502
 5508TIP3    H137939   2.218   4.466  14.210 -0.2153  0.2134  0.0180
 5508TIP3    H237940   2.093   4.524  14.148 -1.1330 -0.7605  0.9181
 5509TIP3   OH237941   3.133   0.780   4.922  0.4551  0.0738  0.0634
 5509TIP3    H137942   3.214   0.731   4.913  0.8490  0.3436  1.7868
 5509TIP3    H237943   3.103   0.762   5.011 -0.6439  1.0631 -0.0713
 5510TIP3   OH237944   4.791   1.115  11.940  0.2883  0.4267 -0.2282
 5510TIP3    H137945   4.766   1.116  12.032 -0.0354  1.0756 -0.3171
 5510TIP3    H237946   4.725   1.168  11.896 -0.6631 -1.4368 -1.1385
 5511TIP3   OH237947   5.410   4.721   4.466  0.4705  0.6167 -0.2524
 5511TIP3    H137948   5.389   4.638   4.509  0.1369 -0.2953 -2.0737
 5511TIP3    H237949   5.346   4.783   4.501  0.5758  0.0811  0.9588
 5512TIP3   OH237950   1.340   3.362   5.967 -0.0210  0.3694 -0.0690
 5512TIP3    H137951   1.390   3.433   6.007  1.2253  0.0982 -1.0858
 5512TIP3    H237952   1.405   3.297   5.942 -1.0362 -0.6582 -0.1209
 5513TIP3   OH237953   3.911   6.223   0.233  0.4022 -0.4768  0.0118
 5513TIP3    H137954   3.849   6.296   0.225  1.6730  1.0549  2.7245
 5513TIP3    H237955   3.979   6.242   0.169 -0.2033 -0.3320 -0.6030
 5514TIP3   OH237956   0.395   5.456   1.346  0.2485  0.0186 -0.2822
 5514TIP3    H137957   0.480   5.487   1.375  1.1737 -2.1127 -0.5485
 5514TIP3    H237958   0.372   5.513   1.272  1.0517  1.1091  0.2927
 5515TIP3   OH237959   2.474   1.139  14.263  0.0827 -0.5294 -0.0545
 5515TIP3    H137960   2.411   1.141  14.336  1.3497 -2.0139  1.1480
 5515TIP3    H237961   2.547   1.192  14.293  0.4354 -0.7997 -0.4245
 5516TIP3   OH237962   1.965   5.210  15.482 -0.1963 -0.2043  0.3166
 5516TIP3    H137963   1.905   5.151  15.528 -0.4828  0.8834  1.3771
 5516TIP3    H237964   1.915   5.241  15.406 -0.1838 -0.9968 -0.0252
 5517TIP3   OH237965   2.489   2.735   2.561  0.2556  0.3363 -0.1712
 5517TIP3    H137966   2.566   2.691   2.524 -0.3042  0.5279 -1.6204
 5517TIP3    H237967   2.525   2.806   2.614  1.0840  0.2428 -0.5869
 5518TIP3   OH237968   4.278   5.130   6.625  0.5514 -0.1984 -0.2952
 5518TIP3    H137969   4.213   5.127   6.695 -0.6156 -0.4432 -1.3639
 5518TIP3    H237970   4.332   5.207   6.646 -0.7777  0.6829  0.0098
 5519TIP3   OH237971   5.659   1.501  14.120 -0.7284 -0.6522 -0.0104
 5519TIP3    H137972   5.722   1.573  14.120 -0.5666 -0.7915  0.0089
 5519TIP3    H237973   5.597   1.522  14.190 -0.3904 -0.7825  0.3336
 5520TIP3   OH237974   5.985   1.444  11.642  0.1208 -0.2412  0.2873
 5520TIP3    H137975   6.009   1.402  11.725 -2.7132 -1.6556  0.4931
 5520TIP3    H237976   5.929   1.381  11.599 -0.5229  1.5213 -1.5864
 5521TIP3   OH237977   2.048   4.758   1.653 -0.6301  0.0105 -0.1496
 5521TIP3    H137978   2.061   4.698   1.727 -0.9443  0.4562  0.2737
 5521TIP3    H237979   2.074   4.844   1.687 -0.9267  0.2450 -0.5032
 5522TIP3   OH237980   0.139   0.998   4.839 -0.3392 -0.4845 -0.9318
 5522TIP3    H137981   0.195   1.051   4.895  0.1289 -1.1848 -0.7218
 5522TIP3    H237982   0.191   0.919   4.820 -2.0822 -2.3058  1.2274
 5523TIP3   OH237983   5.549   4.966   0.719 -0.0779  0.3134 -0.2752
 5523TIP3    H137984   5.571   4.874   0.737  0.0106  0.3349 -0.2721
 5523TIP3    H237985   5.493   4.992   0.792  0.6165  0.5225  0.1927
 5524TIP3   OH237986   5.918   0.121   0.885  0.5111 -0.8902  0.6834
 5524TIP3    H137987   6.008   0.088   0.894  1.1165  0.6562  0.5640
 5524TIP3    H237988   5.898   0.113   0.792  1.0673  0.0634  0.4706
 5525TIP3   OH237989   0.156   3.218   5.659 -0.0738  0.1544  0.8167
 5525TIP3    H137990   0.112   3.187   5.580 -0.4306  1.4399  0.4742
 5525TIP3    H237991   0.199   3.299   5.631  0.1055  0.4253  1.8577
 5526TIP3   OH237992   0.995   1.605  14.265 -0.8019 -0.3445  0.4894
 5526TIP3    H137993   1.012   1.609  14.171 -0.0076  2.6218  0.6580
 5526TIP3    H237994   0.906   1.639  14.275 -0.9144 -0.7207  0.8115
 5527TIP3   OH237995   6.110   2.817   2.077 -0.5946 -0.2592 -0.6422
 5527TIP3    H137996   6.186   2.819   2.136 -0.7042  2.6057 -0.4695
 5527TIP3    H237997   6.042   2.771   2.127 -0.2378  0.8358  0.9356
 5528TIP3   OH237998   4.499   5.454  11.053  0.2681 -0.6278 -0.4781
 5528TIP3    H137999   4.552   5.463  11.133  2.1535 -0.2400 -1.6877
 5528TIP3    H238000   4.507   5.362  11.029 -0.5474 -0.8112 -0.0928
 5529TIP3   OH238001   4.321   3.725  11.555 -0.6910 -0.3535  0.2000
 5529TIP3    H138002   4.277   3.641  11.554 -0.8814 -0.2728 -2.1499
 5529TIP3    H238003   4.251   3.789  11.537 -0.0163 -0.0424 -1.4757
 5530TIP3   OH238004   1.341   1.287  15.436 -0.2007 -0.2653 -0.0431
 5530TIP3    H138005   1.381   1.288  15.349 -0.5592  0.5801 -0.2130
 5530TIP3    H238006   1.412   1.263  15.495  1.2813  3.3580 -0.0511
 5531TIP3   OH238007   1.986   0.119  13.705 -0.2879 -0.3862  0.4408
 5531TIP3    H138008   2.005   0.175  13.630  1.7612 -1.5169  0.0300
 5531TIP3    H238009   1.933   0.049  13.670  0.0654 -0.5316  0.1914
 5532TIP3   OH238010   2.383   5.126   4.690  0.5303 -0.2279 -0.2011
 5532TIP3    H138011   2.446   5.056   4.706  2.4294  1.3763 -0.3075
 5532TIP3    H238012   2.415   5.200   4.742  0.1644  1.4114 -2.1892
 5533TIP3   OH238013   0.420   3.218   5.967  0.7141 -0.4723  0.3169
 5533TIP3    H138014   0.377   3.192   6.049 -0.3748  0.4356  0.0610
 5533TIP3    H238015   0.394   3.151   5.904  0.0724 -0.2088  0.2919
 5534TIP3   OH238016   3.410   5.018  15.635  0.2989  0.6665 -0.1515
 5534TIP3    H138017   3.351   5.065  15.695  1.3331  1.3528  0.3560
 5534TIP3    H238018   3.354   4.955  15.591 -0.5479  0.3083  1.3767
 5535TIP3   OH238019   4.443   0.182  15.974 -0.0011  0.3647  0.5789
 5535TIP3    H138020   4.484   0.104  16.011  3.0408  1.0147 -1.0219
 5535TIP3    H238021   4.431   0.160  15.881  0.3204  1.5418  0.2431
 5536TIP3   OH238022   6.065   1.676  11.535 -0.4947  0.0590  0.5953
 5536TIP3    H138023   6.057   1.598  11.589 -1.3331 -0.3687 -0.1297
 5536TIP3    H238024   6.065   1.749  11.598  1.3567 -0.5364  1.3530
 5537TIP3   OH238025   6.450   5.621   5.262 -0.0110 -0.1178 -0.4673
 5537TIP3    H138026   6.367   5.575   5.253  0.1547 -0.6220  0.4059
 5537TIP3    H238027   6.460   5.633   5.357 -0.4873  2.5571 -0.6837
 5538TIP3   OH238028   3.625   6.296  11.815 -0.0308  0.3633 -0.0461
 5538TIP3    H138029   3.658   6.225  11.761 -0.2792  0.4813 -0.3541
 5538TIP3    H238030   3.531   6.299  11.797 -0.1367  0.3247  0.4824
 5539TIP3   OH238031   3.925   0.636  12.357 -0.0276 -0.0499 -0.1400
 5539TIP3    H138032   3.950   0.708  12.299 -2.1145 -1.0375 -2.4306
 5539TIP3    H238033   3.831   0.646  12.370  0.2922 -0.0701  2.9417
 5540TIP3   OH238034   0.257   3.676   3.969 -0.4375 -0.5513  0.3935
 5540TIP3    H138035   0.265   3.768   3.944 -2.8504 -0.1885  0.7027
 5540TIP3    H238036   0.259   3.628   3.887 -2.8853  0.1595 -0.1578
 5541TIP3   OH238037   1.965   3.292   6.140  0.5390  0.4944 -0.6739
 5541TIP3    H138038   1.882   3.261   6.177  0.8130 -0.7123 -1.0143
 5541TIP3    H238039   2.000   3.215   6.095  2.1909  0.7713  0.0798
 5542TIP3   OH238040   4.479   5.569  14.966 -0.2707 -0.1935  0.1739
 5542TIP3    H138041   4.452   5.489  14.920  0.1156 -0.6230  0.6798
 5542TIP3    H238042   4.532   5.617  14.903 -0.4073 -0.3968 -0.0949
 5543TIP3   OH238043   4.821   6.105   0.507  0.2718 -0.6558 -0.2606
 5543TIP3    H138044   4.911   6.072   0.512  0.2550 -0.6242  0.4135
 5543TIP3    H238045   4.805   6.118   0.414  1.1615 -0.1192 -0.3527
 5544TIP3   OH238046   4.735   5.133   2.646 -0.7773 -0.6633  0.2488
 5544TIP3    H138047   4.709   5.214   2.690  1.0740 -0.5495  1.2643
 5544TIP3    H238048   4.661   5.073   2.660 -2.3114  0.8990 -0.7995
 5545TIP3   OH238049   6.424   1.502  10.939 -0.6832 -0.5526 -0.1270
 5545TIP3    H138050   6.470   1.419  10.924 -0.2021 -0.3321  0.1323
 5545TIP3    H238051   6.414   1.539  10.851  0.2940 -0.2500 -0.1203
 5546TIP3   OH238052   1.455   2.212  11.053  0.8320  0.2978  0.0609
 5546TIP3    H138053   1.478   2.260  11.133  1.0911 -0.4382  0.4327
 5546TIP3    H238054   1.414   2.131  11.084 -1.2077  1.0250 -0.5620
 5547TIP3   OH238055   1.352   0.344   3.524  0.0278 -0.4218 -0.5756
 5547TIP3    H138056   1.378   0.419   3.471 -0.2205  0.1928  0.1423
 5547TIP3    H238057   1.419   0.339   3.593 -0.0233 -0.7825 -0.5505
 5548TIP3   OH238058   0.137   4.380  12.637 -0.6205  0.3054  0.1506
 5548TIP3    H138059   0.143   4.287  12.659  0.6234  0.0801 -0.9645
 5548TIP3    H238060   0.176   4.425  12.712 -0.5157 -0.1327  0.3627
 5549TIP3   OH238061   2.672   1.116   1.501 -0.6084 -0.3776  0.4526
 5549TIP3    H138062   2.590   1.159   1.525 -0.5830  0.9033 -1.5354
 5549TIP3    H238063   2.648   1.056   1.430  0.3247  1.1649 -1.2737
 5550TIP3   OH238064   6.263   5.993   0.748  0.2214  0.2841  0.0920
 5550TIP3    H138065   6.290   5.967   0.660  2.8426  0.4777  0.7498
 5550TIP3    H238066   6.170   5.970   0.753  0.6600 -2.3643 -1.7555
 5551TIP3   OH238067   1.303   4.274   2.168 -0.1386  0.2656 -0.8018
 5551TIP3    H138068   1.228   4.332   2.178  0.6153  0.9497  1.4003
 5551TIP3    H238069   1.366   4.304   2.233  1.3631 -1.3733 -1.4066
 5552TIP3   OH238070   4.124   3.496   3.214 -0.6619 -0.0779  0.8835
 5552TIP3    H138071   4.182   3.569   3.192  1.1036 -1.6076  0.1980
 5552TIP3    H238072   4.060   3.495   3.143  0.9507 -0.8104 -0.6487
 5553TIP3   OH238073   3.020   2.897  12.279 -0.4217  0.2280  0.0530
 5553TIP3    H138074   3.029   2.993  12.280 -0.6419  0.2922 -1.6045
 5553TIP3    H238075   3.060   2.871  12.196 -1.3167 -1.0209  0.0037
 5554TIP3   OH238076   3.072   3.352  11.745 -0.0781 -0.7350 -0.1054
 5554TIP3    H138077   3.114   3.288  11.688  0.4399 -1.3456  0.9471
 5554TIP3    H238078   3.030   3.300  11.813  0.8117  0.0469  1.0787
 5555TIP3   OH238079   1.180   3.179   2.846 -0.9861  0.4463 -0.3537
 5555TIP3    H138080   1.221   3.117   2.787 -0.8331 -1.5408  1.7067
 5555TIP3    H238081   1.124   3.232   2.790 -0.4908 -1.0069 -2.3224
 5556TIP3   OH238082   1.453   0.278  16.809 -0.2570 -0.3794 -0.0118
 5556TIP3    H138083   1.523   0.254  16.870 -0.4688 -0.1720  0.3196
 5556TIP3    H238084   1.468   0.223  16.732 -0.8263 -1.6878  0.7946
 5557TIP3   OH238085   0.083   3.645   1.104 -0.2770  0.2199  0.3588
 5557TIP3    H138086   0.050   3.586   1.035 -0.4637  0.9132 -0.1560
 5557TIP3    H238087   0.134   3.711   1.056  1.7529 -0.7182  1.1117
 5558TIP3   OH238088   5.408   0.712  15.841 -0.2599 -0.2541  0.6834
 5558TIP3    H138089   5.366   0.784  15.888  0.0230 -0.9979  2.1208
 5558TIP3    H238090   5.354   0.636  15.859  1.2905 -1.0874  2.0049
 5559TIP3   OH238091   1.266   0.253  14.575 -0.3955  0.7423  0.0988
 5559TIP3    H138092   1.204   0.259  14.648 -0.8978 -0.5731 -0.1817
 5559TIP3    H238093   1.233   0.317  14.511 -2.2376 -0.7533 -0.5533
 5560TIP3   OH238094   3.559   5.392  11.720  0.4488 -0.1179  0.7629
 5560TIP3    H138095   3.556   5.355  11.632  2.7783  0.5867  0.3080
 5560TIP3    H238096   3.501   5.336  11.772 -0.5602 -0.8675 -1.0892
 5561TIP3   OH238097   3.159   1.853  12.584  0.4448 -0.7525  0.4175
 5561TIP3    H138098   3.186   1.893  12.667 -0.6881 -1.7714  1.3034
 5561TIP3    H238099   3.167   1.924  12.520 -1.9628  1.1147  2.0138
 5562TIP3   OH238100   6.317   5.092   6.422  0.1948  0.0155  0.1047
 5562TIP3    H138101   6.251   5.159   6.405 -1.6664 -1.4212  1.3704
 5562TIP3    H238102   6.303   5.067   6.513  2.2084 -0.6898  0.2804
 5563TIP3   OH238103   4.857   2.340  14.373  0.2486  0.2427  0.1592
 5563TIP3    H138104   4.895   2.283  14.306 -0.9752  0.1001 -0.4375
 5563TIP3    H238105   4.814   2.409  14.323 -1.1643 -0.1718  0.7736
 5564TIP3   OH238106   3.354   3.771  12.453  0.4021  0.1107  0.2221
 5564TIP3    H138107   3.380   3.758  12.544  0.6451 -0.8396  0.0276
 5564TIP3    H238108   3.292   3.844  12.456 -1.0062 -1.0692  1.4030
 5565TIP3   OH238109   6.678   0.083   5.054  0.2540  0.0746 -0.2430
 5565TIP3    H138110   6.613   0.031   5.101 -0.5460  1.3154  0.0567
 5565TIP3    H238111   6.673   0.051   4.964 -0.1267 -0.4584 -0.0373
 5566TIP3   OH238112   5.456   5.958  12.436 -0.3201 -0.2798 -0.3192
 5566TIP3    H138113   5.498   5.884  12.479 -1.3210 -1.0145 -0.5829
 5566TIP3    H238114   5.415   6.008  12.507 -0.7719 -0.7152 -0.2710
 5567TIP3   OH238115   5.806   4.255  14.276 -0.1552 -0.7523 -0.2595
 5567TIP3    H138116   5.722   4.220  14.245 -1.1994  0.3720  1.1579
 5567TIP3    H238117   5.848   4.290  14.197 -0.6305 -2.0480 -1.1242
 5568TIP3   OH238118   0.290   1.208  15.082 -0.2676  0.2399 -0.1131
 5568TIP3    H138119   0.221   1.265  15.116  0.6148  1.2768  0.0243
 5568TIP3    H238120   0.316   1.250  14.999  0.6502  0.2616  0.1722
 5569TIP3   OH238121   4.731   5.961  15.512  0.5062 -0.1266 -0.4118
 5569TIP3    H138122   4.820   5.991  15.493  0.7094  1.0859  2.0527
 5569TIP3    H238123   4.678   6.041  15.511  0.3583 -0.0849  2.6477
 5570TIP3   OH238124   1.540   1.143   5.333 -0.6602 -0.3363 -0.5532
 5570TIP3    H138125   1.611   1.203   5.314 -1.4861  1.0396  0.5186
 5570TIP3    H238126   1.532   1.145   5.429 -2.0291 -0.5832 -0.6459
 5571TIP3   OH238127   5.351   4.358  14.885 -0.1400  0.4032  1.0942
 5571TIP3    H138128   5.262   4.352  14.849  0.6285  1.2947 -1.1538
 5571TIP3    H238129   5.383   4.268  14.886 -0.7181  0.1900  1.0067
 5572TIP3   OH238130   3.513   2.197   5.928  0.4069  0.6377 -0.9351
 5572TIP3    H138131   3.548   2.244   6.004  1.9901 -1.0453 -0.5514
 5572TIP3    H238132   3.418   2.199   5.941  0.6231  0.5266  1.0410
 5573TIP3   OH238133   4.087   1.128  12.183 -0.0721  0.4333  0.2239
 5573TIP3    H138134   4.110   1.219  12.165 -0.0677  0.5150  0.6261
 5573TIP3    H238135   4.035   1.100  12.107  0.2724  0.6421 -0.0895
 5574TIP3   OH238136   4.788   0.416  12.211  0.0848 -0.1838 -0.0578
 5574TIP3    H138137   4.849   0.373  12.270  1.2399 -0.9224 -1.7259
 5574TIP3    H238138   4.843   0.449  12.140 -1.2966  0.4143 -0.8842
 5575TIP3   OH238139   3.286   1.737   2.028 -0.7458 -0.1946 -0.5343
 5575TIP3    H138140   3.236   1.732   2.109 -2.2270 -0.3094 -1.4301
 5575TIP3    H238141   3.237   1.684   1.966  1.0497 -1.1894 -1.1901
 5576TIP3   OH238142   3.477   1.059   2.519  0.1129 -0.3559  0.0802
 5576TIP3    H138143   3.453   1.144   2.481 -1.2783 -2.2786 -3.8845
 5576TIP3    H238144   3.428   1.055   2.602  0.3756  2.6862  0.5045
 5577TIP3   OH238145   5.767   0.329  14.824 -0.1780  0.1328 -0.0576
 5577TIP3    H138146   5.862   0.317  14.821 -0.1973 -0.3111  0.6994
 5577TIP3    H238147   5.732   0.260  14.767 -0.1555 -1.7163  2.0224
 5578TIP3   OH238148   6.561   1.801   1.523 -0.6489 -0.0465  0.3310
 5578TIP3    H138149   6.547   1.863   1.594 -1.6986 -0.3960  0.4443
 5578TIP3    H238150   6.538   1.850   1.443 -0.4887  0.0137  0.3195
 5579TIP3   OH238151   0.535   5.178   1.479 -0.2516  0.4938  0.1115
 5579TIP3    H138152   0.492   5.250   1.525 -0.3689  0.6329 -0.2159
 5579TIP3    H238153   0.471   5.150   1.413 -0.4079 -0.2394  0.5653
 5580TIP3   OH238154   6.434   4.713  17.279  0.3285  0.2314  0.1760
 5580TIP3    H138155   6.479   4.672  17.353  0.6036  1.2440  0.5869
 5580TIP3    H238156   6.358   4.756  17.318 -0.3193 -0.4305 -0.3431
 5581TIP3   OH238157   4.526   1.712  12.221  0.9771  0.3421  0.3533
 5581TIP3    H138158   4.436   1.683  12.234  1.3469 -0.3676  1.4353
 5581TIP3    H238159   4.551   1.677  12.135  0.7670 -0.8857  0.7775
 5582TIP3   OH238160   4.852   1.160  13.432  0.3634  0.1579 -0.1581
 5582TIP3    H138161   4.881   1.245  13.398 -2.0929  1.6802  1.2081
 5582TIP3    H238162   4.774   1.140  13.380  1.0372 -1.4270 -0.6060
 5583TIP3   OH238163   4.664   3.902  17.214 -0.8446 -0.3003  0.4265
 5583TIP3    H138164   4.759   3.891  17.207 -0.6425  0.6458  1.3917
 5583TIP3    H238165   4.629   3.813  17.209  0.0690 -0.6422 -0.1937
 5584TIP3   OH238166   1.586   5.736   1.770  0.0572 -0.0415 -0.4780
 5584TIP3    H138167   1.672   5.762   1.804  0.0196  0.0433 -0.4493
 5584TIP3    H238168   1.605   5.658   1.716  0.1133 -0.1814 -0.2562
 5585TIP3   OH238169   4.205   0.830  16.065 -0.7119 -0.3681 -0.3320
 5585TIP3    H138170   4.298   0.818  16.085 -0.6240 -0.5567 -0.8316
 5585TIP3    H238171   4.203   0.843  15.970 -1.0094  1.6262 -0.0923
 5586TIP3   OH238172   1.682   3.126   1.099  0.1475 -0.2245  0.2360
 5586TIP3    H138173   1.708   3.056   1.039  0.0167  0.6941 -0.9304
 5586TIP3    H238174   1.704   3.093   1.186  1.8206 -0.9475 -0.4291
 5587TIP3   OH238175   1.814   1.731  15.555 -0.2285 -0.1539  0.1425
 5587TIP3    H138176   1.775   1.811  15.518 -1.0110 -0.1666  0.8951
 5587TIP3    H238177   1.880   1.705  15.491 -0.3371  0.7912 -0.3844
 5588TIP3   OH238178   1.450   3.328  13.452  0.0430  0.5418  0.0963
 5588TIP3    H138179   1.505   3.278  13.393 -2.3797 -2.1726 -0.0943
 5588TIP3    H238180   1.458   3.283  13.536 -2.6582 -0.7101 -0.2197
 5589TIP3   OH238181   4.394   2.812  13.879  0.0049 -0.1794 -0.1813
 5589TIP3    H138182   4.451   2.850  13.945  0.9002 -1.9520  0.1257
 5589TIP3    H238183   4.317   2.782  13.929  0.6319 -1.4184  0.0799
 5590TIP3   OH238184   1.088   4.153  16.355  0.3012 -0.0251 -0.4106
 5590TIP3    H138185   1.095   4.216  16.283  0.6554  0.8244  0.3518
 5590TIP3    H238186   1.144   4.081  16.328  0.3393  0.2314 -1.0416
 5591TIP3   OH238187   3.718   1.190   5.331 -0.7530 -0.0315 -0.0308
 5591TIP3    H138188   3.754   1.102   5.347 -0.8983  0.1748  1.6335
 5591TIP3    H238189   3.722   1.201   5.236 -0.7695 -1.8573 -0.2816
 5592TIP3   OH238190   3.993   0.061  10.741 -0.4340  0.7754 -0.4063
 5592TIP3    H138191   3.900   0.082  10.749 -0.1456  1.9056  0.1036
 5592TIP3    H238192   4.017   0.022  10.825 -0.3483  0.8916 -0.3760
 5593TIP3   OH238193   3.907   5.933   0.246 -0.2054  0.3384  0.3687
 5593TIP3    H138194   3.959   5.938   0.165 -1.9011 -1.8390 -0.9626
 5593TIP3    H238195   3.899   6.024   0.274  0.2405  1.2254 -2.0817
 5594TIP3   OH238196   0.442   0.214   3.106 -0.0831  0.5061 -0.7200
 5594TIP3    H138197   0.354   0.238   3.078 -1.7195 -1.2460  2.3851
 5594TIP3    H238198   0.471   0.287   3.160 -0.8035 -0.0026  0.3994
 5595TIP3   OH238199   1.300   1.814  14.497 -0.2499  0.3331  0.0333
 5595TIP3    H138200   1.342   1.893  14.464 -0.3530  0.0609 -0.7530
 5595TIP3    H238201   1.370   1.767  14.543  0.0081  0.4838 -0.2041
 5596TIP3   OH238202   6.587   2.401   4.414 -0.4132  0.9336  0.1343
 5596TIP3    H138203   6.618   2.355   4.336 -2.0316  1.5127 -0.9045
 5596TIP3    H238204   6.587   2.334   4.483 -2.0839 -0.5196 -1.1757
 5597TIP3   OH238205   1.817   0.278   5.849  0.3124  0.2918  0.1850
 5597TIP3    H138206   1.773   0.198   5.877 -0.4232 -0.1687 -2.0762
 5597TIP3    H238207   1.887   0.291   5.914 -0.2172 -1.5596  1.2023
 5598TIP3   OH238208   4.797   5.561  12.639 -0.0952  0.3389  0.1670
 5598TIP3    H138209   4.705   5.550  12.663 -0.0562  0.7564  0.5251
 5598TIP3    H238210   4.797   5.631  12.573 -0.1268 -0.2960 -0.5102
 5599TIP3   OH238211   2.526   6.483   0.266  0.0952  0.7577  0.3316
 5599TIP3    H138212   2.544   6.486   0.360  0.6871  2.8495  0.1862
 5599TIP3    H238213   2.613   6.481   0.225 -0.0615 -3.0240 -0.2369
 5600TIP3   OH238214   2.955   3.707   2.996  0.2902 -0.6924  0.0548
 5600TIP3    H138215   2.929   3.738   3.083 -0.0509 -0.3145 -0.1787
 5600TIP3    H238216   2.906   3.625   2.985  0.6616 -0.9621  0.3915
 5601TIP3   OH238217   0.671   4.171   1.145 -0.4709  0.3050 -0.3665
 5601TIP3    H138218   0.757   4.186   1.107 -1.1466 -0.5562 -2.3612
 5601TIP3    H238219   0.612   4.226   1.093 -1.3122 -0.0737  0.1636
 5602TIP3   OH238220   5.150   4.114   3.587 -0.0390  0.2586  0.4152
 5602TIP3    H138221   5.134   4.112   3.492 -0.9770  1.2148  0.5421
 5602TIP3    H238222   5.237   4.076   3.597  0.3708  0.8006 -0.8981
 5603TIP3   OH238223   2.352   0.934   5.917 -0.1569  0.1593 -0.2545
 5603TIP3    H138224   2.286   0.953   5.849  0.5490  1.1672 -0.6766
 5603TIP3    H238225   2.327   0.989   5.991  1.3026  2.0981 -1.1169
 5604TIP3   OH238226   0.746   1.384  13.422  0.0199 -0.2439  0.1540
 5604TIP3    H138227   0.662   1.410  13.461  0.8100  1.1060  1.0215
 5604TIP3    H238228   0.787   1.329  13.489 -0.3394 -1.2871 -0.4565
 5605TIP3   OH238229   6.511   3.752   4.508 -0.3528 -0.0190  0.2936
 5605TIP3    H138230   6.597   3.780   4.479 -1.2244  1.2982 -1.1625
 5605TIP3    H238231   6.520   3.742   4.603  0.3053  4.4919  0.9118
 5606TIP3   OH238232   1.481   4.728   4.736 -0.5190  0.2798  0.0763
 5606TIP3    H138233   1.501   4.635   4.740  0.3921  0.2614 -2.7508
 5606TIP3    H238234   1.533   4.766   4.808  0.3642 -1.2018  0.2744
 5607TIP3   OH238235   2.803   0.662   2.276  0.0069 -0.1769 -0.0539
 5607TIP3    H138236   2.876   0.672   2.215  0.5326  0.3891  0.6436
 5607TIP3    H238237   2.842   0.617   2.351 -0.9125 -1.9717 -0.6068
 5608TIP3   OH238238   0.946   6.369   1.741  0.4752  0.0928  0.2273
 5608TIP3    H138239   0.933   6.392   1.833 -1.8173  1.4588 -0.3702
 5608TIP3    H238240   0.938   6.453   1.695  0.4819 -0.7424 -1.3308
 5609TIP3   OH238241   5.567   5.705   3.985  0.0129  0.1718  0.4200
 5609TIP3    H138242   5.653   5.679   3.951 -0.2177 -0.4975  0.3248
 5609TIP3    H238243   5.555   5.649   4.063 -0.3452  0.2438  0.4152
 5610TIP3   OH238244   3.277   3.783   3.187 -0.3058 -0.2168  0.2536
 5610TIP3    H138245   3.326   3.813   3.111 -0.8809  1.1130  0.3671
 5610TIP3    H238246   3.294   3.689   3.192  1.0386 -0.0420 -0.5519
 5611TIP3   OH238247   4.007   0.086  16.715 -1.3485 -0.0562  0.3830
 5611TIP3    H138248   3.920   0.082  16.675 -0.8492  1.3387 -0.9585
 5611TIP3    H238249   4.061   0.131  16.649  0.6411 -1.7986  0.7441
 5612TIP3   OH238250   0.898   5.256  11.673 -0.2683 -0.3483  0.0226
 5612TIP3    H138251   0.850   5.280  11.752 -1.6213  1.1856 -1.2074
 5612TIP3    H238252   0.977   5.310  11.676 -0.7785  0.4136 -0.1410
 5613TIP3   OH238253   6.694   4.923  12.942 -0.3340  0.3393  0.1327
 5613TIP3    H138254   6.771   4.893  12.991  0.1667  2.1418  0.5456
 5613TIP3    H238255   6.673   4.850  12.883  3.1889  0.6052 -1.7436
 5614TIP3   OH238256   2.191   5.821   6.608 -0.0194 -0.0994 -0.0934
 5614TIP3    H138257   2.256   5.842   6.541  1.5025  1.1211  1.6429
 5614TIP3    H238258   2.132   5.896   6.609 -0.2872 -0.3047 -0.3309
 5615TIP3   OH238259   3.505   5.275  10.947 -0.2533 -0.2626  0.0970
 5615TIP3    H138260   3.448   5.278  10.870  0.1305 -1.1311 -0.2354
 5615TIP3    H238261   3.587   5.314  10.918 -0.0193 -0.8356 -0.0170
 5616TIP3   OH238262   0.296   5.523   5.717 -0.5684  0.7558  0.1097
 5616TIP3    H138263   0.381   5.484   5.696 -1.1208 -0.7070  0.4416
 5616TIP3    H238264   0.233   5.459   5.685 -1.5100  1.1764  1.0888
 5617TIP3   OH238265   3.377   5.640   2.676 -0.4105  0.1730 -0.1348
 5617TIP3    H138266   3.343   5.684   2.598  0.5936  1.2839  0.0213
 5617TIP3    H238267   3.322   5.673   2.747 -0.9532 -0.3948 -0.2812
 5618TIP3   OH238268   6.027   0.428  15.766 -0.3801  0.1500  0.1882
 5618TIP3    H138269   5.990   0.342  15.789 -1.2927  0.6376  0.6178
 5618TIP3    H238270   6.103   0.408  15.712 -0.8856 -0.9188 -0.1541
 5619TIP3   OH238271   3.679   4.678   5.894 -0.5352  0.3497 -0.1134
 5619TIP3    H138272   3.711   4.657   5.806  0.2053 -0.0506  0.2434
 5619TIP3    H238273   3.645   4.596   5.928 -0.8807  0.5182 -0.0466
 5620TIP3   OH238274   5.869   0.724   2.480  1.2251  0.3745 -0.0096
 5620TIP3    H138275   5.814   0.653   2.446 -0.5672  0.6480  2.0689
 5620TIP3    H238276   5.959   0.696   2.462  0.5359 -1.8737 -0.2937
 5621TIP3   OH238277   6.379   4.989  12.320 -0.0711 -0.0638  0.3289
 5621TIP3    H138278   6.456   5.045  12.328  0.1026 -0.2719  0.1484
 5621TIP3    H238279   6.400   4.911  12.373 -0.4709  0.2078  0.8973
 5622TIP3   OH238280   3.050   5.973  16.975 -0.4752  0.0775 -0.4280
 5622TIP3    H138281   3.118   5.907  16.961 -1.3065 -1.8460  3.2599
 5622TIP3    H238282   2.981   5.926  17.021 -1.8834  3.1616  0.8551
 5623TIP3   OH238283   0.373   2.000  15.804 -0.0818 -0.1545  0.6533
 5623TIP3    H138284   0.389   1.984  15.711  0.4971 -0.0962  0.7380
 5623TIP3    H238285   0.300   2.061  15.806 -1.2402 -1.4747  0.2873
 5624TIP3   OH238286   0.058   6.214  12.554  0.2150  0.1632  0.1070
 5624TIP3    H138287   0.014   6.298  12.560  1.9724  1.0880  0.7596
 5624TIP3    H238288   0.122   6.215  12.625  1.9413 -0.6903 -1.3392
 5625TIP3   OH238289   3.578   2.753  14.000 -0.0719  0.0125 -0.2187
 5625TIP3    H138290   3.570   2.659  13.981 -1.1144  0.3677 -1.7047
 5625TIP3    H238291   3.594   2.756  14.095  0.1168 -1.6596 -0.1531
 5626TIP3   OH238292   1.811   3.845  14.908 -0.0851 -0.5811  0.2842
 5626TIP3    H138293   1.784   3.860  14.999 -0.7645  0.4192 -0.0665
 5626TIP3    H238294   1.894   3.798  14.915 -0.4817 -1.1453  1.4164
 5627TIP3   OH238295   5.340   0.009   0.562 -0.1555 -0.0257  0.3011
 5627TIP3    H138296   5.397  -0.015   0.634  1.5602  2.3581 -0.1152
 5627TIP3    H238297   5.399   0.042   0.494 -1.7843 -1.0023 -1.7233
 5628TIP3   OH238298   0.910   0.612   3.914  0.0732  0.3947 -0.1950
 5628TIP3    H138299   0.881   0.534   3.867 -0.2347  0.7924 -0.6786
 5628TIP3    H238300   0.870   0.605   4.000 -0.4642  0.3265 -0.4483
 5629TIP3   OH238301   0.805   1.798  15.931 -0.3248 -0.2694  0.2156
 5629TIP3    H138302   0.896   1.810  15.902 -0.2969 -0.1704  0.3434
 5629TIP3    H238303   0.767   1.886  15.929 -0.0281 -0.0987  1.4533
 5630TIP3   OH238304   0.636   3.787   3.936 -0.2386 -0.0612 -0.1019
 5630TIP3    H138305   0.697   3.859   3.951 -0.0588 -0.7885  3.7279
 5630TIP3    H238306   0.572   3.794   4.007 -1.4748 -2.4264 -0.8619
 5631TIP3   OH238307   3.609   4.605   5.110  0.2764  0.0860  0.0511
 5631TIP3    H138308   3.672   4.591   5.181  0.0542  0.5291  0.3418
 5631TIP3    H238309   3.532   4.556   5.136 -0.0546  0.8074  0.4633
 5632TIP3   OH238310   6.243   5.303   5.790 -0.7564  0.0661 -0.2113
 5632TIP3    H138311   6.245   5.397   5.776 -1.0232  0.2213  0.7136
 5632TIP3    H238312   6.324   5.284   5.838 -0.6855 -0.1832 -0.4233
 5633TIP3   OH238313   2.099   5.355  11.456  0.0730 -0.2251 -0.3570
 5633TIP3    H138314   2.165   5.383  11.519 -0.2824  0.3536 -0.2335
 5633TIP3    H238315   2.081   5.264  11.478  0.0109 -0.0522  0.3286
 5634TIP3   OH238316   6.440   0.023  13.403 -0.4854  0.0082 -0.0076
 5634TIP3    H138317   6.487  -0.024  13.333 -3.0780 -0.6585 -1.4432
 5634TIP3    H238318   6.365  -0.033  13.423 -0.0971  0.4085  3.0780
 5635TIP3   OH238319   2.821   5.841   3.508  0.1846  0.0085  0.2636
 5635TIP3    H138320   2.756   5.887   3.562  3.2403  4.3215  0.7872
 5635TIP3    H238321   2.899   5.836   3.563  2.0106  0.2992 -2.1358
 5636TIP3   OH238322   4.184   1.898   4.288  0.3226  0.5659  0.3337
 5636TIP3    H138323   4.192   1.837   4.214  0.5603  0.7821  0.1800
 5636TIP3    H238324   4.218   1.848   4.363 -1.8147 -0.4036  0.7298
 5637TIP3   OH238325   4.766   0.382   1.541 -0.6317 -0.4883 -0.0807
 5637TIP3    H138326   4.673   0.373   1.563 -0.5264  0.6440  0.9231
 5637TIP3    H238327   4.793   0.464   1.581  1.1232 -1.3965  0.7451
 5638TIP3   OH238328   1.253   2.765  16.634 -0.5511 -0.2236 -0.4436
 5638TIP3    H138329   1.230   2.842  16.582  2.2102  0.1907 -1.2277
 5638TIP3    H238330   1.337   2.788  16.674 -0.8606 -1.9227  1.3408
 5639TIP3   OH238331   5.952   5.715   2.642 -1.3020  0.1940 -0.0572
 5639TIP3    H138332   5.985   5.660   2.713 -0.4056  0.9718  0.1486
 5639TIP3    H238333   5.874   5.757   2.678 -1.0402  0.3324  0.3453
 5640TIP3   OH238334   6.524   5.189   6.265  0.1093  0.2170 -0.1042
 5640TIP3    H138335   6.606   5.140   6.259 -1.2333 -2.1526 -0.3294
 5640TIP3    H238336   6.463   5.128   6.306 -1.7979  1.5824 -0.7718
 5641TIP3   OH238337   6.055   1.496  14.079 -0.7933  0.3375 -0.3720
 5641TIP3    H138338   6.097   1.550  14.013  1.1587  1.7252  1.8521
 5641TIP3    H238339   5.985   1.551  14.114 -0.6736  0.3170 -0.0927
 5642TIP3   OH238340   3.337   2.725   2.433 -0.1613  0.1720  0.4899
 5642TIP3    H138341   3.246   2.726   2.405 -0.0375 -2.7165 -0.3962
 5642TIP3    H238342   3.333   2.731   2.528 -1.2978  0.0293  0.4659
 5643TIP3   OH238343   0.038   4.571   3.325  0.3731  0.2920  0.1148
 5643TIP3    H138344  -0.008   4.493   3.294 -0.0873  0.2817  0.7955
 5643TIP3    H238345   0.066   4.547   3.414  1.5818  0.3458 -0.2359
 5644TIP3   OH238346   4.348   6.317   4.209 -0.3282 -0.4361  0.6259
 5644TIP3    H138347   4.306   6.397   4.239 -0.8583 -1.1288  1.8069
 5644TIP3    H238348   4.396   6.343   4.130  1.0132  1.4303  1.9890
 5645TIP3   OH238349   2.026   6.268   1.189 -0.0337 -0.3179 -0.0804
 5645TIP3    H138350   1.938   6.289   1.218  0.8181  0.8034  1.8850
 5645TIP3    H238351   2.069   6.232   1.267  1.7752  0.9438 -0.4242
 5646TIP3   OH238352   0.931   2.475   4.172  0.0240  0.0685 -0.1821
 5646TIP3    H138353   1.021   2.509   4.173 -0.3544  1.1287 -0.3186
 5646TIP3    H238354   0.877   2.551   4.148 -1.0540 -0.1867  1.2546
 5647TIP3   OH238355   0.105   2.427  16.143 -0.0490 -0.0690 -0.2744
 5647TIP3    H138356   0.040   2.386  16.200 -1.8531  0.8426 -1.5627
 5647TIP3    H238357   0.129   2.358  16.081 -0.8960 -0.0208 -0.6674
 5648TIP3   OH238358   1.818   6.369  11.121  0.8462 -0.0781  0.0026
 5648TIP3    H138359   1.743   6.425  11.141  0.5187 -0.8265  0.9448
 5648TIP3    H238360   1.796   6.328  11.038 -0.4784 -1.3990  0.9617
 5649TIP3   OH238361   0.971   3.054   4.396 -0.2254  0.0636  0.1873
 5649TIP3    H138362   0.986   3.149   4.400 -1.1873  0.2127  0.6584
 5649TIP3    H238363   1.042   3.021   4.343 -1.1814  1.3503 -2.0437
 5650TIP3   OH238364   0.063   3.364  15.902  0.3414 -0.6897  0.0776
 5650TIP3    H138365   0.112   3.337  15.824  2.1256 -3.1279  1.8790
 5650TIP3    H238366   0.123   3.423  15.948 -0.2482 -0.1454  0.1527
 5651TIP3   OH238367   6.485   1.912  14.462  0.2602 -0.3028 -0.2744
 5651TIP3    H138368   6.485   1.837  14.521 -1.1705  0.9479  1.3970
 5651TIP3    H238369   6.401   1.955  14.477 -0.6284 -0.4174 -3.9331
 5652TIP3   OH238370   0.044   4.649   1.303 -0.0618  0.6239 -0.3076
 5652TIP3    H138371   0.088   4.565   1.300 -0.2617  0.5280 -0.7423
 5652TIP3    H238372   0.101   4.705   1.355  1.0430  0.7741 -1.6209
 5653TIP3   OH238373   0.688   3.613   2.888  0.0518  0.2357  0.6696
 5653TIP3    H138374   0.772   3.619   2.842 -0.2310 -2.5179 -0.4230
 5653TIP3    H238375   0.670   3.702   2.918  2.2131  1.3617 -1.1077
 5654TIP3   OH238376   5.520   3.079  12.917 -0.0624 -0.5229  0.3941
 5654TIP3    H138377   5.553   3.134  12.988  1.4246 -2.9204  1.6923
 5654TIP3    H238378   5.441   3.124  12.887 -0.1340  1.1619  2.7883
 5655TIP3   OH238379   1.436   4.360  15.827  0.1677  0.4773  0.1298
 5655TIP3    H138380   1.343   4.384  15.819  0.2585  0.3315 -2.1237
 5655TIP3    H238381   1.480   4.441  15.852 -0.5951  0.4330  1.7309
 5656TIP3   OH238382   2.700   4.232  12.250 -0.2093 -0.4714  0.0789
 5656TIP3    H138383   2.757   4.273  12.315 -0.6100 -0.4272  0.4120
 5656TIP3    H238384   2.647   4.305  12.216 -1.5546 -0.8144  1.3212
 5657TIP3   OH238385   3.440   1.896   3.366 -0.1524 -0.1950 -0.3907
 5657TIP3    H138386   3.504   1.865   3.431  1.5189 -0.4662 -2.0538
 5657TIP3    H238387   3.393   1.817   3.339  0.9694 -0.5687 -1.3490
 5658TIP3   OH238388   1.353   4.890  17.044  0.0205 -0.0494  0.3644
 5658TIP3    H138389   1.396   4.835  16.979 -2.3211 -1.5698 -0.0214
 5658TIP3    H238390   1.262   4.894  17.016 -0.3939  2.0864  1.7345
 5659TIP3   OH238391   4.349   0.911   2.270 -0.1825 -0.0714  0.5090
 5659TIP3    H138392   4.257   0.900   2.248 -0.0554  1.5535 -1.0401
 5659TIP3    H238393   4.395   0.850   2.212 -0.1063  1.6702 -1.4124
 5660TIP3   OH238394   1.093   0.667   5.397  0.1891 -0.3291  0.3917
 5660TIP3    H138395   1.021   0.616   5.359 -1.3335  0.2057  2.3908
 5660TIP3    H238396   1.103   0.742   5.337 -0.7066 -0.5795 -0.0963
 5661TIP3   OH238397   1.264   2.270  13.970  0.2649 -0.0789  0.1121
 5661TIP3    H138398   1.347   2.302  14.006 -0.6396  0.6737  1.5755
 5661TIP3    H238399   1.219   2.348  13.939  0.9341 -0.6730 -2.6636
 5662TIP3   OH238400   0.514   4.824  14.156  0.7002 -0.1254 -0.5281
 5662TIP3    H138401   0.590   4.787  14.202 -0.3128 -1.2918  0.2770
 5662TIP3    H238402   0.541   4.827  14.064  2.4363  1.3977 -0.0366
 5663TIP3   OH238403   3.127   2.961  11.697  0.1355  0.8240  0.1336
 5663TIP3    H138404   3.103   2.943  11.606  2.6992  1.0127 -0.6773
 5663TIP3    H238405   3.047   2.995  11.737 -1.2627  0.0543 -1.8297
 5664TIP3   OH238406   2.588   2.388   1.298  0.2046 -0.7417 -0.2280
 5664TIP3    H138407   2.589   2.300   1.262 -0.8013 -1.0931  0.5447
 5664TIP3    H238408   2.544   2.379   1.383  2.0833  0.1166  0.9119
 5665TIP3   OH238409   3.963   1.472   0.546 -0.3970  0.5465  0.1051
 5665TIP3    H138410   3.903   1.536   0.586 -0.6654  0.1428  0.3692
 5665TIP3    H238411   3.906   1.399   0.523 -0.0841  0.3839 -0.1476
 5666TIP3   OH238412   4.578   5.486  13.122  0.2301  0.1951 -0.3451
 5666TIP3    H138413   4.551   5.431  13.049  0.1804 -0.3911  0.1031
 5666TIP3    H238414   4.602   5.424  13.191  1.3767  0.7257 -0.2534
 5667TIP3   OH238415   3.027   6.580   2.287 -0.6269 -0.3994  0.2094
 5667TIP3    H138416   3.018   6.485   2.297  0.2416 -0.4445  0.7003
 5667TIP3    H238417   2.937   6.613   2.288 -0.9121 -1.1476  0.8413
 5668TIP3   OH238418   5.945   6.328  11.603  0.2802  0.0796  0.2117
 5668TIP3    H138419   6.022   6.323  11.660  1.0614  0.0823 -0.8200
 5668TIP3    H238420   5.970   6.281  11.524 -1.2709 -1.0836  0.3687
 5669TIP3   OH238421   0.134   2.352   1.682  0.5345 -0.2605  0.2031
 5669TIP3    H138422   0.201   2.329   1.746  1.8654 -0.5228 -1.2416
 5669TIP3    H238423   0.099   2.268   1.652 -0.4929 -0.1252  0.9679
 5670TIP3   OH238424   2.339   0.309  12.595 -0.3633  0.3870 -0.2067
 5670TIP3    H138425   2.305   0.366  12.664 -3.3805  0.0710 -1.2781
 5670TIP3    H238426   2.413   0.263  12.635 -0.6114  1.8364  2.0594
 5671TIP3   OH238427   2.016   4.668   2.536  0.1218 -0.4469  0.0968
 5671TIP3    H138428   2.034   4.585   2.491  1.1111  0.1267 -0.5992
 5671TIP3    H238429   1.935   4.699   2.496 -0.4835 -1.2479  0.6435
 5672TIP3   OH238430   1.873   2.572   2.033 -0.4936 -0.1810  0.4473
 5672TIP3    H138431   1.877   2.628   2.110  3.5250  1.8376 -0.9566
 5672TIP3    H238432   1.936   2.502   2.052  0.8411  0.5553 -1.0331
 5673TIP3   OH238433   4.426   2.802  15.416  0.0757  0.2226  0.1588
 5673TIP3    H138434   4.496   2.824  15.354  0.7062 -0.7075  0.5169
 5673TIP3    H238435   4.355   2.768  15.362  0.4488 -0.1624 -0.0865
 5674TIP3   OH238436   0.613   1.711  13.608 -0.0071 -0.1684  0.1429
 5674TIP3    H138437   0.581   1.632  13.564 -1.5522  1.2982 -1.4866
 5674TIP3    H238438   0.589   1.698  13.700  0.3153 -1.8348  0.0238
 5675TIP3   OH238439   2.559   5.433  11.045 -0.3705  0.3538  0.2774
 5675TIP3    H138440   2.540   5.512  10.995 -1.0280  1.1090  1.6676
 5675TIP3    H238441   2.539   5.361  10.985  2.3902  1.1734 -1.8021
 5676TIP3   OH238442   2.959   2.358  13.028 -0.2571  0.0058  0.0143
 5676TIP3    H138443   3.004   2.296  13.085 -2.6095 -2.0242 -0.1745
 5676TIP3    H238444   2.866   2.344  13.046 -0.9352  3.1906 -0.4104
 5677TIP3   OH238445   5.724   6.570   1.928  0.1232  0.2245 -0.5978
 5677TIP3    H138446   5.731   6.614   2.012 -0.1087 -0.1118 -0.3976
 5677TIP3    H238447   5.741   6.638   1.863 -0.0177  0.5565 -0.2889
 5678TIP3   OH238448   4.359   2.521   1.723 -0.4555  0.4025  0.4815
 5678TIP3    H138449   4.440   2.521   1.672 -1.5913  0.3518 -1.4356
 5678TIP3    H238450   4.372   2.589   1.790  1.7556 -0.7389  1.3020
 5679TIP3   OH238451   0.485   4.467  16.982 -0.4552  0.0033 -0.1294
 5679TIP3    H138452   0.491   4.441  17.074  1.5715  2.1640  0.4543
 5679TIP3    H238453   0.556   4.418  16.939  0.5841  1.2392  0.1197
 5680TIP3   OH238454   4.321   0.213  12.121 -0.1533  0.2905  0.1649
 5680TIP3    H138455   4.349   0.299  12.152 -0.5519  0.2785  0.5856
 5680TIP3    H238456   4.377   0.151  12.168 -1.1036  0.2478  1.3135
 5681TIP3   OH238457   6.511   2.622   1.017 -0.2246 -0.6016 -0.2305
 5681TIP3    H138458   6.562   2.569   1.077 -0.6241 -2.1619 -1.2240
 5681TIP3    H238459   6.571   2.690   0.987  0.5092 -0.9248  0.4812
 5682TIP3   OH238460   6.017   1.397   0.645 -0.5058 -0.1823 -0.3459
 5682TIP3    H138461   5.978   1.484   0.642  0.0798  0.1067  0.2368
 5682TIP3    H238462   6.071   1.391   0.566 -2.4103 -0.9324 -1.6524
 5683TIP3   OH238463   6.015   4.935   1.260  0.1448 -0.4847  0.2053
 5683TIP3    H138464   6.025   4.952   1.166 -1.5766 -0.9860 -0.1038
 5683TIP3    H238465   6.087   4.876   1.282  1.3029  0.5952 -0.5034
 5684TIP3   OH238466   0.076   3.655  15.623  0.4788 -0.3474  0.4868
 5684TIP3    H138467   0.026   3.725  15.580 -1.2315 -1.8834 -0.2090
 5684TIP3    H238468   0.075   3.677  15.716 -1.8028 -0.4211  0.5384
 5685TIP3   OH238469   6.629   4.465   0.305  0.3696 -0.0334 -0.9329
 5685TIP3    H138470   6.617   4.372   0.326  0.6823  0.0455 -0.3752
 5685TIP3    H238471   6.581   4.511   0.374 -2.0554  0.2214 -2.6590
 5686TIP3   OH238472   0.301   2.329   5.108  0.0871  0.5160  0.4082
 5686TIP3    H138473   0.391   2.313   5.138  0.5335 -0.8752 -1.4549
 5686TIP3    H238474   0.281   2.417   5.139  2.0621  0.8332  0.9565
 5687TIP3   OH238475   1.602   3.894  13.484  0.2487 -0.1128  0.7448
 5687TIP3    H138476   1.568   3.958  13.422 -2.7147  0.1351  2.4256
 5687TIP3    H238477   1.602   3.812  13.436  1.5810  0.6454 -0.6409
 5688TIP3   OH238478   2.409   4.439  14.275  0.4035  0.7802 -0.0128
 5688TIP3    H138479   2.485   4.456  14.220  0.7029  1.2822  0.5478
 5688TIP3    H238480   2.409   4.509  14.339 -0.1575  0.4165  0.3978
 5689TIP3   OH238481   0.420   3.937   4.095  0.2721 -0.1067  0.4329
 5689TIP3    H138482   0.367   3.890   4.159  0.4427  0.6710  1.1562
 5689TIP3    H238483   0.357   3.967   4.029  0.0211 -0.4313  0.5207
 5690TIP3   OH238484   2.209   1.423   5.033 -0.5416 -0.1075 -0.1193
 5690TIP3    H138485   2.155   1.448   4.958 -0.8943 -1.3528 -0.3028
 5690TIP3    H238486   2.207   1.327   5.033 -1.6173 -0.1499  2.2672
 5691TIP3   OH238487   2.271   0.040   4.910  0.2644 -0.0682  0.0941
 5691TIP3    H138488   2.287   0.130   4.940 -0.0941 -0.9434  3.2877
 5691TIP3    H238489   2.315  -0.015   4.975 -0.1425 -2.2235 -1.3732
 5692TIP3   OH238490   6.240   0.069  16.933  0.0545 -0.2199  0.8042
 5692TIP3    H138491   6.258  -0.002  16.872  1.7213  1.5372 -0.8982
 5692TIP3    H238492   6.171   0.121  16.890  1.1753  0.9782  0.3769
 5693TIP3   OH238493   5.182   4.492   2.622  0.4484 -0.0306 -0.0081
 5693TIP3    H138494   5.132   4.525   2.697  0.3101 -0.4713  0.0983
 5693TIP3    H238495   5.245   4.432   2.660 -0.8320 -1.6818 -0.3939
 5694TIP3   OH238496   6.710   5.050   3.345  0.2256  0.1813  0.5382
 5694TIP3    H138497   6.662   4.978   3.304 -0.8855  1.3079 -0.1862
 5694TIP3    H238498   6.799   5.016   3.353 -0.1522 -1.1013 -0.2422
 5695TIP3   OH238499   1.814   0.573   4.046  0.0767  0.5300  0.0819
 5695TIP3    H138500   1.733   0.604   4.086  0.2582  1.0185  0.0710
 5695TIP3    H238501   1.884   0.613   4.099  0.3310 -1.0524  1.0245
 5696TIP3   OH238502   0.544   5.930   4.638  0.4832  0.6455  0.6823
 5696TIP3    H138503   0.551   5.949   4.732 -0.5004 -0.2394  0.9582
 5696TIP3    H238504   0.531   5.835   4.634  0.9797  0.6082 -0.3830
 5697TIP3   OH238505   0.972   0.478  15.962  0.4660 -0.1108  0.1113
 5697TIP3    H138506   0.946   0.537  16.033  1.8059  1.2834 -0.4953
 5697TIP3    H238507   1.058   0.445  15.989  0.9055  0.2907 -0.7415
 5698TIP3   OH238508   2.785   5.129  17.192  0.1923 -0.6468  0.3770
 5698TIP3    H138509   2.878   5.108  17.194  0.3595 -0.3497 -1.7722
 5698TIP3    H238510   2.741   5.044  17.184  0.5134 -0.6797 -1.7630
 5699TIP3   OH238511   2.743   0.903  13.782  0.2729  0.1285 -0.5945
 5699TIP3    H138512   2.816   0.856  13.742  2.8440  2.3712  1.1237
 5699TIP3    H238513   2.744   0.989  13.739 -1.1025  0.3295 -0.2562
 5700TIP3   OH238514   4.383   3.101  15.363 -0.4673 -0.4363  1.0947
 5700TIP3    H138515   4.336   3.077  15.283 -2.0104 -0.4582  1.9713
 5700TIP3    H238516   4.335   3.059  15.433  0.1423  0.5708  2.1597
 5701TIP3   OH238517   1.866   4.854   0.294  0.7657 -0.2289 -0.2059
 5701TIP3    H138518   1.958   4.839   0.316  1.0935 -0.3534 -1.6002
 5701TIP3    H238519   1.844   4.784   0.234 -0.9082 -1.5039  1.7712
 5702TIP3   OH238520   6.313   0.467   4.867  0.3602 -0.7263 -0.1361
 5702TIP3    H138521   6.313   0.508   4.780 -0.1245 -0.6402 -0.0969
 5702TIP3    H238522   6.330   0.374   4.850 -1.0045 -0.9298 -0.4307
 5703TIP3   OH238523   5.747   1.879   2.676  0.1531  0.6670 -0.7572
 5703TIP3    H138524   5.793   1.818   2.732 -0.2631 -0.6978 -1.8262
 5703TIP3    H238525   5.712   1.945   2.735  0.6391 -0.1212  0.4446
 5704TIP3   OH238526   5.129   3.451   6.389 -0.1205 -0.5236 -0.4079
 5704TIP3    H138527   5.057   3.408   6.345 -0.1552  1.2762 -2.2474
 5704TIP3    H238528   5.208   3.410   6.354 -0.1779  0.2658 -1.5107
 5705TIP3   OH238529   4.362   3.360   1.469 -0.8783 -0.1919  0.5897
 5705TIP3    H138530   4.362   3.306   1.390  0.7800 -1.0515  1.1168
 5705TIP3    H238531   4.453   3.356   1.500 -0.8214  2.4904  0.9518
 5706TIP3   OH238532   3.962   4.265  17.117  0.0102  0.1806  0.1481
 5706TIP3    H138533   4.014   4.185  17.107 -0.5199 -0.2897  1.0661
 5706TIP3    H238534   3.873   4.235  17.131  0.0290  0.8498  2.0647
 5707TIP3   OH238535   0.619   6.662  12.083 -0.7529 -0.2199 -0.2967
 5707TIP3    H138536   0.608   6.745  12.129  1.1691  0.6453 -1.3070
 5707TIP3    H238537   0.646   6.600  12.151  2.7994  1.2163 -0.2014
 5708TIP3   OH238538   4.776   3.243   0.228 -0.2605  0.3928 -0.1866
 5708TIP3    H138539   4.696   3.251   0.176  0.0883 -1.5471 -1.1312
 5708TIP3    H238540   4.797   3.333   0.254 -1.6797  1.1719 -1.5349
 5709TIP3   OH238541   1.646   1.366  13.566  0.4256 -0.3144  0.1142
 5709TIP3    H138542   1.711   1.374  13.636 -0.0346  0.6358  0.4452
 5709TIP3    H238543   1.693   1.388  13.486  0.7688 -0.6669  0.2186
 5710TIP3   OH238544   5.941   5.475  12.578 -0.1773  0.2127  0.1303
 5710TIP3    H138545   6.006   5.422  12.532 -0.6202 -0.1634 -0.0736
 5710TIP3    H238546   5.990   5.549  12.613 -0.1899  2.0058 -3.1919
 5711TIP3   OH238547   5.175   4.428  12.436  0.1411 -0.2959  0.1572
 5711TIP3    H138548   5.197   4.337  12.457 -0.8232  0.1052  3.6314
 5711TIP3    H238549   5.125   4.422  12.355 -0.6940 -3.0264  0.7542
 5712TIP3   OH238550   2.393   3.784   2.922  0.1201  0.1636 -0.5615
 5712TIP3    H138551   2.405   3.716   2.856  0.2373  0.9666 -1.3875
 5712TIP3    H238552   2.382   3.865   2.872 -1.4072  0.5691  0.3512
 5713TIP3   OH238553   0.104   2.215   4.655 -0.7139  0.4776  0.3456
 5713TIP3    H138554   0.133   2.153   4.588  1.0248  2.8524 -1.2946
 5713TIP3    H238555   0.150   2.187   4.735 -1.7240 -1.5705  0.2786
 5714TIP3   OH238556   4.677   2.508  16.404 -0.0950 -0.7368  0.8985
 5714TIP3    H138557   4.636   2.425  16.381 -0.5216 -0.7870  1.7803
 5714TIP3    H238558   4.626   2.541  16.478 -0.2849  0.6022  0.2000
 5715TIP3   OH238559   3.093   1.606   1.869  0.4883 -0.5270  0.6738
 5715TIP3    H138560   3.016   1.549   1.867 -0.7836  0.9971  2.5153
 5715TIP3    H238561   3.167   1.545   1.877 -0.7751 -1.9790  2.1978
 5716TIP3   OH238562   5.667   0.436  14.571 -0.8786 -0.4649 -0.2986
 5716TIP3    H138563   5.630   0.450  14.484  2.4687 -2.4913 -2.2608
 5716TIP3    H238564   5.624   0.357  14.604 -1.3945 -0.3000 -0.5764
 5717TIP3   OH238565   5.487   0.356   4.549 -0.0398  0.3450  0.3881
 5717TIP3    H138566   5.410   0.390   4.594 -0.6181 -1.3102  0.7273
 5717TIP3    H238567   5.467   0.367   4.456 -0.2653  0.7917  0.4842
 5718TIP3   OH238568   2.217   5.187  15.778  0.0401  0.2112  0.1881
 5718TIP3    H138569   2.229   5.104  15.825  0.8796 -0.2496 -0.8063
 5718TIP3    H238570   2.145   5.230  15.824  1.5260  0.2994  2.6176
 5719TIP3   OH238571   3.783   3.453   5.017 -0.1958 -0.1200 -0.5469
 5719TIP3    H138572   3.799   3.524   5.079 -0.6139  0.0030 -0.5771
 5719TIP3    H238573   3.747   3.382   5.070 -4.0360  1.2030 -1.0918
 5720TIP3   OH238574   4.431   3.004  14.749  0.3013  0.1934 -0.1259
 5720TIP3    H138575   4.422   2.948  14.826  0.1849  0.3483 -0.0242
 5720TIP3    H238576   4.443   3.092  14.786 -0.9893  0.4600 -0.2755
 5721TIP3   OH238577   1.318   0.877  13.816  0.2151 -0.6620  0.0326
 5721TIP3    H138578   1.389   0.930  13.852  0.3841 -0.5224 -0.4837
 5721TIP3    H238579   1.334   0.879  13.721  0.4781 -1.9837  0.0348
 5722TIP3   OH238580   1.123   0.910  15.814 -0.1243 -1.0150 -0.2961
 5722TIP3    H138581   1.038   0.949  15.797  0.3534  1.2769  1.8680
 5722TIP3    H238582   1.183   0.956  15.756  0.0760 -0.2430  0.4991
 5723TIP3   OH238583   2.124   5.529  15.184  0.2303  0.2059  0.3348
 5723TIP3    H138584   2.134   5.624  15.198 -1.0704  0.4073 -0.0187
 5723TIP3    H238585   2.091   5.521  15.095 -0.4273 -0.5379  0.6356
 5724TIP3   OH238586   1.332   6.284   4.433  0.6291  0.0681  0.1452
 5724TIP3    H138587   1.392   6.253   4.365  1.4929 -0.4041  1.1113
 5724TIP3    H238588   1.383   6.281   4.514 -1.2000 -2.1128  1.3290
 5725TIP3   OH238589   0.663   0.860   0.959  0.3256  0.0221  0.6591
 5725TIP3    H138590   0.740   0.825   0.914 -0.2975 -1.7644  0.8857
 5725TIP3    H238591   0.689   0.864   1.051  0.2843 -0.2177  0.6827
 5726TIP3   OH238592   6.622   3.411   5.958  0.0364  0.0475 -0.0956
 5726TIP3    H138593   6.690   3.344   5.961  0.1293  0.0262 -1.9877
 5726TIP3    H238594   6.664   3.490   5.989  1.4001  0.3923 -2.6490
 5727TIP3   OH238595   0.715   3.276   4.091  0.4081  0.3628  0.1310
 5727TIP3    H138596   0.630   3.314   4.069  0.4958 -0.8099 -2.6282
 5727TIP3    H238597   0.776   3.349   4.087 -0.0874  0.7446 -0.6205
 5728TIP3   OH238598   1.508   0.542   1.519 -0.6464 -0.1965 -0.3034
 5728TIP3    H138599   1.556   0.484   1.460  0.1358 -0.8781  0.9444
 5728TIP3    H238600   1.501   0.493   1.601 -1.0380  0.9913  0.4072
 5729TIP3   OH238601   3.860   0.539  17.136  0.0496 -0.2813  0.6760
 5729TIP3    H138602   3.831   0.570  17.050 -2.5545 -1.4222  1.0671
 5729TIP3    H238603   3.868   0.444  17.125  1.7071 -0.2321  1.1926
 5730TIP3   OH238604   1.244   2.767  14.690  0.0490  0.6426 -0.1247
 5730TIP3    H138605   1.245   2.853  14.733  0.5211  0.8501 -0.5421
 5730TIP3    H238606   1.329   2.762  14.646 -0.5323  0.5289 -1.2430
 5731TIP3   OH238607   6.104   1.017   4.169  0.3395  0.1242 -0.4394
 5731TIP3    H138608   6.160   1.083   4.210  0.3518  0.4892 -1.0455
 5731TIP3    H238609   6.032   1.067   4.131 -1.0723 -0.4197  1.3457
 5732TIP3   OH238610   1.910   6.709  14.332 -0.2174  0.5432  0.3223
 5732TIP3    H138611   1.973   6.712  14.260  0.1606 -1.6825  0.5003
 5732TIP3    H238612   1.839   6.653  14.300 -1.0360  1.1726  0.9657
 5733TIP3   OH238613   4.044   6.714   1.505  0.5432  0.0911 -0.1263
 5733TIP3    H138614   3.952   6.697   1.524  0.0983  0.3120 -1.8594
 5733TIP3    H238615   4.059   6.669   1.422  1.6080  1.2407 -0.5796
 5734TIP3   OH238616   1.252   6.670   1.292  0.6570  0.2701 -0.4369
 5734TIP3    H138617   1.270   6.688   1.385  0.4108 -1.1203 -0.0936
 5734TIP3    H238618   1.326   6.616   1.264  0.3347  0.0409 -0.8398
 5735TIP3   OH238619   2.975   3.491   2.254 -0.1604 -0.7027 -1.2034
 5735TIP3    H138620   3.035   3.517   2.324 -1.4576 -0.5227 -0.1127
 5735TIP3    H238621   3.004   3.541   2.177 -0.4374  1.3061 -0.0731
 5736TIP3   OH238622   5.771   5.114   0.933  0.3413 -0.5206  0.2073
 5736TIP3    H138623   5.714   5.050   0.976 -1.7769  0.8306 -0.4171
 5736TIP3    H238624   5.747   5.198   0.973 -0.0799  0.4612 -1.9633
 5737TIP3   OH238625   3.365   3.069   4.612 -0.4810 -0.3635 -0.3181
 5737TIP3    H138626   3.399   3.054   4.700 -0.2932  0.9954 -0.1381
 5737TIP3    H238627   3.362   2.982   4.572 -0.7192 -1.0278  1.0784
 5738TIP3   OH238628   4.280   5.520   4.636  0.1483 -0.6971 -0.2352
 5738TIP3    H138629   4.300   5.598   4.585 -1.7272  0.4830  0.7059
 5738TIP3    H238630   4.365   5.475   4.646  0.9146  0.0817 -2.5413
 5739TIP3   OH238631   5.372   2.214   0.704  0.0977  0.1098 -0.1554
 5739TIP3    H138632   5.298   2.242   0.651  1.2929  1.2086 -1.3005
 5739TIP3    H238633   5.335   2.201   0.791 -1.3363  1.1864 -0.5680
 5740TIP3   OH238634   4.976   1.830   1.089 -0.0508 -0.1039 -0.5553
 5740TIP3    H138635   4.891   1.867   1.065 -0.0827  1.5131  1.6590
 5740TIP3    H238636   5.039   1.900   1.070  0.1954  0.3329  1.6058
 5741TIP3   OH238637   2.998   1.995   3.196  0.8070  0.2199 -0.5147
 5741TIP3    H138638   2.911   1.954   3.197  1.1442 -0.5729  1.5657
 5741TIP3    H238639   3.053   1.932   3.150  0.1243  1.2266 -2.8474
 5742TIP3   OH238640   2.276   2.558   2.179  0.1799  0.5169  0.1190
 5742TIP3    H138641   2.232   2.619   2.120 -0.9135 -1.1853 -0.9363
 5742TIP3    H238642   2.367   2.558   2.150  0.1677  1.5358  0.0592
 5743TIP3   OH238643   6.263   6.168   4.588  0.0320  0.5451  0.4648
 5743TIP3    H138644   6.258   6.236   4.656  0.4357 -1.0392  2.1654
 5743TIP3    H238645   6.173   6.163   4.554 -0.0559  1.7427  0.4562
 5744TIP3   OH238646   1.548   3.476   3.721  0.1250  0.0218  0.2498
 5744TIP3    H138647   1.597   3.512   3.648 -0.5080  2.2351  0.8396
 5744TIP3    H238648   1.589   3.513   3.799  0.7447 -2.2321  1.0895
 5745TIP3   OH238649   4.895   6.581  11.234 -0.4691 -0.5880 -0.1076
 5745TIP3    H138650   4.900   6.487  11.252  0.1605 -0.5130  0.1441
 5745TIP3    H238651   4.939   6.592  11.150  1.6969 -0.2241  1.0041
 5746TIP3   OH238652   4.222   5.052   2.052  0.1904  0.3025  0.5376
 5746TIP3    H138653   4.219   5.045   1.956 -0.1416 -0.7939  0.6139
 5746TIP3    H238654   4.132   5.038   2.080  0.2365  0.9007  1.0048
 5747TIP3   OH238655   6.134   1.609   4.387  0.0433  0.5780 -0.0336
 5747TIP3    H138656   6.112   1.637   4.475 -0.7367  3.9670 -1.1649
 5747TIP3    H238657   6.222   1.643   4.372  0.4779 -0.6259 -0.3593
 5748TIP3   OH238658   0.662   6.364  13.696 -0.6561 -0.1589 -0.4949
 5748TIP3    H138659   0.631   6.356  13.606  0.8333  1.0906 -1.1597
 5748TIP3    H238660   0.613   6.439  13.731 -0.9334 -0.3837 -0.4022
 5749TIP3   OH238661   5.007   0.090   6.220 -0.5002 -0.2527 -0.0062
 5749TIP3    H138662   5.032   0.107   6.311  1.4950 -0.3786 -0.5012
 5749TIP3    H238663   5.033   0.169   6.173 -2.3575  0.1906 -0.3575
 5750TIP3   OH238664   1.245   0.338  17.012  0.9995 -0.6103 -0.0372
 5750TIP3    H138665   1.310   0.334  16.942 -0.9331  3.4064 -2.4017
 5750TIP3    H238666   1.273   0.411  17.067 -0.1299 -0.5370  0.4665
 5751TIP3   OH238667   0.389   0.107   2.253 -0.1156 -0.4151  0.5161
 5751TIP3    H138668   0.482   0.101   2.273  0.0522  0.5952  0.0588
 5751TIP3    H238669   0.345   0.083   2.335  0.5088 -2.3111  0.3456
 5752TIP3   OH238670   2.227   3.041  12.986 -0.3768 -0.4411  0.0986
 5752TIP3    H138671   2.149   3.065  13.037  0.0230  0.6387  0.2358
 5752TIP3    H238672   2.195   2.979  12.920 -1.3862  0.1161  0.0441
 5753TIP3   OH238673   5.717   0.159   3.598  0.4130  0.6262  0.6544
 5753TIP3    H138674   5.671   0.236   3.631 -0.7182  0.0494  0.4881
 5753TIP3    H238675   5.682   0.145   3.510  0.8944  0.1526  0.5295
 5754TIP3   OH238676   3.775   5.107   4.113  0.5972  0.0913  0.5594
 5754TIP3    H138677   3.810   5.053   4.183 -0.0083  1.3784  1.9111
 5754TIP3    H238678   3.823   5.080   4.035  1.3448 -1.3236  1.4786
 5755TIP3   OH238679   4.433   2.145  13.109 -0.2813  0.0348 -0.1506
 5755TIP3    H138680   4.354   2.121  13.157 -1.0031  2.5320  0.0736
 5755TIP3    H238681   4.501   2.089  13.145 -1.5012 -0.5491  1.3380
 5756TIP3   OH238682   1.288   5.375  13.402 -0.3184  0.2531 -0.5904
 5756TIP3    H138683   1.252   5.345  13.485 -2.8337  0.1214 -1.6355
 5756TIP3    H238684   1.288   5.470  13.409  0.9139  0.2326  0.0658
 5757TIP3   OH238685   3.666   3.844  11.823 -0.1384 -0.2856 -0.0601
 5757TIP3    H138686   3.640   3.934  11.845  0.0160 -0.8765  2.8751
 5757TIP3    H238687   3.758   3.851  11.797 -0.2818  0.4566 -0.4023
 5758TIP3   OH238688   1.781   0.128  11.349 -0.3120 -0.0163  0.4793
 5758TIP3    H138689   1.865   0.109  11.392  0.4259  0.2781 -0.7955
 5758TIP3    H238690   1.786   0.220  11.326 -0.6612 -0.1862 -0.3044
 5759TIP3   OH238691   3.437   3.681  16.525  0.3034  0.3331  0.1626
 5759TIP3    H138692   3.456   3.737  16.600 -0.7818  0.8223  0.0848
 5759TIP3    H238693   3.356   3.716  16.488 -0.4958 -1.3746  0.1875
 5760TIP3   OH238694   3.986   4.480   0.406 -0.7810  0.1541  0.3787
 5760TIP3    H138695   4.024   4.524   0.482  0.6679  0.2103 -0.3472
 5760TIP3    H238696   3.990   4.387   0.428 -0.9476  0.2065  0.6303
 5761TIP3   OH238697   2.132   2.814   6.054 -0.0954 -0.8082  0.0252
 5761TIP3    H138698   2.222   2.785   6.073  0.1726 -0.0037  0.0178
 5761TIP3    H238699   2.122   2.894   6.105  0.2536  0.8069 -2.3118
 5762TIP3   OH238700   6.323   1.575   1.557  0.1215 -0.2395  0.3066
 5762TIP3    H138701   6.251   1.617   1.605  0.2760  0.6274 -0.1903
 5762TIP3    H238702   6.360   1.645   1.503  1.2784 -0.7031  0.4731
 5763TIP3   OH238703   3.768   2.463  11.662  0.2236 -0.3933  0.1296
 5763TIP3    H138704   3.672   2.472  11.665  0.2619 -0.0849  0.5377
 5763TIP3    H238705   3.783   2.369  11.671  0.0336 -0.2586  2.8965
 5764TIP3   OH238706   4.818   5.061   3.063  0.0029 -0.2849 -0.2651
 5764TIP3    H138707   4.734   5.053   3.109  0.2519  0.5247  0.3520
 5764TIP3    H238708   4.879   5.089   3.131  0.2102  1.7840 -1.2521
 5765TIP3   OH238709   0.341   3.005   1.418 -0.2295 -0.2893  0.2634
 5765TIP3    H138710   0.339   3.022   1.324  0.4638 -1.5963 -0.0241
 5765TIP3    H238711   0.251   3.019   1.448 -0.1158  1.7705 -0.2543
 5766TIP3   OH238712   1.936   2.993  16.803  0.0625 -0.8223  0.0634
 5766TIP3    H138713   1.963   2.902  16.793  2.0873 -0.2653  0.0160
 5766TIP3    H238714   1.966   3.017  16.891 -1.3848 -0.4797  0.4857
 5767TIP3   OH238715   1.525   1.965   1.743  0.1754 -0.0098 -0.0036
 5767TIP3    H138716   1.487   2.030   1.802  0.6016 -0.0412  0.3109
 5767TIP3    H238717   1.619   1.970   1.759  0.3769  0.5485 -1.2741
 5768TIP3   OH238718   0.871   0.689   5.189 -0.3022 -0.7863  0.2303
 5768TIP3    H138719   0.820   0.739   5.253 -0.6450 -2.6117  1.4422
 5768TIP3    H238720   0.819   0.611   5.173 -0.4301 -0.2176 -2.6536
 5769TIP3   OH238721   3.558   4.471   2.408 -0.1312 -0.0702 -0.6815
 5769TIP3    H138722   3.608   4.463   2.326 -1.1422 -0.7659 -1.2620
 5769TIP3    H238723   3.526   4.382   2.425  0.6021 -0.0635  0.8314
 5770TIP3   OH238724   0.907   2.031  10.939 -0.5794 -0.3023 -0.2204
 5770TIP3    H138725   0.858   2.093  10.993 -0.7164 -0.4887 -0.1314
 5770TIP3    H238726   0.898   2.065  10.850 -0.7143 -0.2358 -0.1817
 5771TIP3   OH238727   0.850   5.502  17.380 -0.3800 -0.3352 -0.7448
 5771TIP3    H138728   0.819   5.483  17.468  0.2494  1.7619 -0.0032
 5771TIP3    H238729   0.945   5.491  17.385 -0.3904 -0.7260 -1.3120
 5772TIP3   OH238730   0.471   4.078  14.552 -0.1939  0.3402 -0.8151
 5772TIP3    H138731   0.479   4.006  14.614 -0.9597  1.7849  1.0420
 5772TIP3    H238732   0.560   4.113  14.543 -0.0508  0.0073 -0.6830
 5773TIP3   OH238733   1.812   2.199  12.588 -1.0353  0.3208  0.0582
 5773TIP3    H138734   1.899   2.217  12.623 -0.9964 -1.1013  0.7595
 5773TIP3    H238735   1.752   2.232  12.656 -1.0862  2.0208 -0.7786
 5774TIP3   OH238736   1.262   6.124   1.572  0.7015  0.1319 -0.3862
 5774TIP3    H138737   1.318   6.065   1.623  0.3197 -0.1724 -0.3158
 5774TIP3    H238738   1.177   6.122   1.617  0.9493  1.4804  0.1781
 5775TIP3   OH238739   4.743   4.306  13.620 -0.2475 -0.5848  0.5462
 5775TIP3    H138740   4.695   4.249  13.680 -0.8112  0.4146  1.0617
 5775TIP3    H238741   4.705   4.393  13.633 -0.4285 -0.3404 -1.2770
 5776TIP3   OH238742   3.195   0.015   2.511 -0.1600 -0.3849 -0.5548
 5776TIP3    H138743   3.285  -0.012   2.529  0.4022  1.0846 -1.0302
 5776TIP3    H238744   3.158   0.034   2.597  0.8005  1.4078 -0.4969
 5777TIP3   OH238745   4.800   4.989   1.705 -0.1634  0.5635  0.1396
 5777TIP3    H138746   4.813   4.935   1.783 -0.1528 -1.2473 -1.0412
 5777TIP3    H238747   4.788   5.077   1.738  0.9689  0.0312  2.1140
 5778TIP3   OH238748   0.319   6.050   5.714 -0.5169  0.1522  0.1902
 5778TIP3    H138749   0.245   6.042   5.774  1.3538 -2.0047  2.4239
 5778TIP3    H238750   0.306   5.978   5.652 -0.0470 -0.5759  0.9192
 5779TIP3   OH238751   2.826   2.176   0.654  0.3991 -0.5303  0.5216
 5779TIP3    H138752   2.856   2.242   0.593 -1.3925  2.0853  2.2639
 5779TIP3    H238753   2.730   2.177   0.647  0.1649 -0.6230  2.8011
 5780TIP3   OH238754   0.280   6.415  14.195  0.2784 -0.2709  0.1256
 5780TIP3    H138755   0.191   6.383  14.176 -0.4073  0.7292  1.4165
 5780TIP3    H238756   0.266   6.503  14.232  1.4855 -1.3454  3.5703
 5781TIP3   OH238757   2.681   0.009   5.207 -0.2150 -0.1713  0.2256
 5781TIP3    H138758   2.706   0.092   5.167 -0.5007 -0.0945  0.2031
 5781TIP3    H238759   2.690   0.024   5.301  0.3715 -0.3244  0.1984
 5782TIP3   OH238760   0.926   5.496   4.534 -0.1179 -0.0373 -0.2436
 5782TIP3    H138761   1.014   5.499   4.496 -1.3655  1.4642 -3.3772
 5782TIP3    H238762   0.899   5.588   4.539 -1.3255 -0.4302  1.2891
 5783TIP3   OH238763   6.169   0.477   5.199 -0.2675  0.5834  0.4391
 5783TIP3    H138764   6.115   0.399   5.210 -0.8442  0.6389 -1.6277
 5783TIP3    H238765   6.125   0.543   5.253  1.2933 -0.8749  3.8062
 5784TIP3   OH238766   1.640   3.024   0.222 -0.4956  0.2285 -0.5727
 5784TIP3    H138767   1.557   3.003   0.178 -0.0298 -0.1658 -1.2813
 5784TIP3    H238768   1.637   3.119   0.234 -0.4378  0.4065 -1.8771
 5785TIP3   OH238769   1.664   4.711  16.178  0.1033 -0.9266  0.1973
 5785TIP3    H138770   1.611   4.644  16.222 -1.0879  0.2250  0.5682
 5785TIP3    H238771   1.740   4.722  16.234 -0.0388 -1.4626  0.5020
 5786TIP3   OH238772   4.007   1.024  15.239 -0.1675  0.1056 -0.3331
 5786TIP3    H138773   4.039   1.115  15.237 -0.6675  0.3081  0.6422
 5786TIP3    H238774   3.945   1.022  15.311  0.4937 -1.2376  0.2138
 5787TIP3   OH238775   3.923   0.995   3.091 -0.5218  0.5400 -0.1670
 5787TIP3    H138776   3.956   0.963   3.007  1.2764 -0.3434  0.8223
 5787TIP3    H238777   3.855   1.059   3.067 -1.7302 -1.3874 -2.2332
 5788TIP3   OH238778   1.492   2.865   3.369 -0.1654  0.1470  0.2509
 5788TIP3    H138779   1.476   2.798   3.435  1.6903 -0.3658  0.2501
 5788TIP3    H238780   1.411   2.915   3.365 -0.1425  0.6492  3.4532
 5789TIP3   OH238781   3.121   3.378  15.846 -0.3188 -0.3528  0.1323
 5789TIP3    H138782   3.213   3.388  15.821 -0.4243 -0.9980 -0.5365
 5789TIP3    H238783   3.072   3.408  15.769 -0.6613 -0.6988  0.2171
 5790TIP3   OH238784   0.335   0.538  17.272 -0.3046 -0.4816 -0.2324
 5790TIP3    H138785   0.277   0.512  17.343 -1.3201  0.2449 -0.7760
 5790TIP3    H238786   0.325   0.468  17.206 -1.9143  0.4614 -1.0607
 5791TIP3   OH238787   6.600   0.941   2.517  0.1308 -0.4937 -0.5635
 5791TIP3    H138788   6.563   1.022   2.552  0.7832  0.4427 -1.9393
 5791TIP3    H238789   6.616   0.886   2.594  0.9215  1.2020  0.5416
 5792TIP3   OH238790   0.530   2.051   5.072  0.0540  0.1977 -0.0568
 5792TIP3    H138791   0.476   2.029   5.148  1.5452 -1.7362  0.5119
 5792TIP3    H238792   0.584   2.125   5.102 -1.0305  1.0082 -0.0596
 5793TIP3   OH238793   6.047   5.579   2.857  0.7145  0.3755  0.2804
 5793TIP3    H138794   6.136   5.613   2.871  0.8569  0.3837 -0.5920
 5793TIP3    H238795   6.055   5.485   2.870  0.9954  0.2945 -0.4238
 5794TIP3   OH238796   2.217   3.770   5.415 -0.1610 -0.0441  0.6989
 5794TIP3    H138797   2.145   3.834   5.417  0.7449  0.9905  0.6361
 5794TIP3    H238798   2.282   3.805   5.477  0.1173 -1.1906  1.0749
 5795TIP3   OH238799   1.960   2.409  14.880  0.0355 -0.7936  0.2002
 5795TIP3    H138800   2.015   2.337  14.912  0.0570 -1.6422 -1.6384
 5795TIP3    H238801   2.016   2.486  14.886  0.3859 -1.1065  1.1614
 5796TIP3   OH238802   6.105   2.931  16.383  0.0402 -0.3898  0.9674
 5796TIP3    H138803   6.091   2.990  16.457 -1.2319 -0.0388  0.4576
 5796TIP3    H238804   6.044   2.859  16.397 -1.0812  0.2647 -0.3402
 5797TIP3   OH238805   5.190   1.513   4.775 -0.5255  0.3799 -0.3321
 5797TIP3    H138806   5.128   1.581   4.801 -0.7276  0.0012  0.2051
 5797TIP3    H238807   5.181   1.445   4.842  2.9886  1.7981  1.8736
 5798TIP3   OH238808   6.564   0.235   3.826  0.8004 -0.5756 -0.1271
 5798TIP3    H138809   6.491   0.261   3.882  2.3686 -0.0074  1.7901
 5798TIP3    H238810   6.599   0.318   3.794  1.4004 -0.7405  0.0826
 5799TIP3   OH238811   2.617   5.682   2.578  0.5906  0.0198 -0.2786
 5799TIP3    H138812   2.525   5.667   2.600  0.1750 -2.0307 -2.9298
 5799TIP3    H238813   2.660   5.599   2.596  2.2994  1.3049  2.0935
 5800TIP3   OH238814   4.737   2.758  14.750  0.1700  0.3105 -0.1335
 5800TIP3    H138815   4.795   2.694  14.791 -1.6657 -1.5693 -0.2554
 5800TIP3    H238816   4.699   2.711  14.676 -2.4020  0.9651  0.6572
 5801TIP3   OH238817   5.377   3.719   2.632 -0.0214  0.3076 -0.5335
 5801TIP3    H138818   5.307   3.780   2.654  1.2490  1.2450  1.1700
 5801TIP3    H238819   5.376   3.655   2.704 -0.2592 -0.7508 -1.4403
 5802TIP3   OH238820   6.745   5.110  14.074  0.5934  0.6293  0.1777
 5802TIP3    H138821   6.723   5.191  14.119 -0.9719  0.4587 -0.1925
 5802TIP3    H238822   6.688   5.044  14.114 -0.1698  0.2914 -1.3628
 5803TIP3   OH238823   3.106   2.034   4.129 -0.1599 -0.5861 -0.3520
 5803TIP3    H138824   3.057   1.953   4.139 -0.5927 -0.2081  0.8248
 5803TIP3    H238825   3.149   2.046   4.214 -0.4856  0.6566 -0.3425
 5804TIP3   OH238826   1.640   6.612  14.285  0.2744  0.0700 -0.1323
 5804TIP3    H138827   1.614   6.574  14.201  1.0942  0.1247 -0.4251
 5804TIP3    H238828   1.558   6.641  14.325 -0.5825 -2.9514  0.5948
 5805TIP3   OH238829   2.041   6.141   4.131  0.0846  0.3577  0.1129
 5805TIP3    H138830   2.128   6.183   4.130 -0.3925  1.3762 -0.4017
 5805TIP3    H238831   2.040   6.091   4.213  0.3874  2.0282  1.2044
 5806TIP3   OH238832   3.042   6.675  16.383 -0.1884  0.1963 -0.4226
 5806TIP3    H138833   3.011   6.653  16.295  0.2542  0.0942 -0.5588
 5806TIP3    H238834   3.006   6.606  16.439 -0.2790  0.1294 -0.5641
 5807TIP3   OH238835   3.709   0.028  12.632  0.2298 -0.4068 -0.0013
 5807TIP3    H138836   3.725  -0.044  12.692  1.2135 -0.1288  0.0802
 5807TIP3    H238837   3.756   0.102  12.670 -2.1747  0.7800  0.8688
 5808TIP3   OH238838   0.671   6.757  15.331  0.6241 -0.5176  0.1167
 5808TIP3    H138839   0.708   6.740  15.245  0.9151  1.0148 -0.0882
 5808TIP3    H238840   0.713   6.838  15.360 -2.6097  1.4459 -0.1896
 5809TIP3   OH238841   2.105   1.277  16.435  0.0773  0.2615  0.4180
 5809TIP3    H138842   2.117   1.238  16.522 -1.9747 -1.5269  0.0094
 5809TIP3    H238843   2.162   1.226  16.377  0.5800  0.6942  0.5263
 5810TIP3   OH238844   3.729   2.065  12.203  0.0451 -0.2700  0.4010
 5810TIP3    H138845   3.694   2.097  12.286 -0.2143  0.4414  0.0179
 5810TIP3    H238846   3.819   2.038  12.224  0.7526  1.9489  0.4688
 5811TIP3   OH238847   4.780   0.016  10.763  0.4527 -0.2845  0.3050
 5811TIP3    H138848   4.810  -0.049  10.700  0.5968  1.0031 -1.0109
 5811TIP3    H238849   4.702   0.054  10.723  0.1613  0.1145  1.2104
 5812TIP3   OH238850   6.690   1.049   6.483 -0.5824  0.5676  0.3320
 5812TIP3    H138851   6.637   1.058   6.562 -0.3488  1.7532  0.3742
 5812TIP3    H238852   6.686   0.956   6.461 -0.4499  0.1726  1.8805
 5813TIP3   OH238853   0.963   2.757  11.650 -0.4636 -0.2325 -0.1997
 5813TIP3    H138854   1.048   2.724  11.620 -1.0087  0.2715 -2.4806
 5813TIP3    H238855   0.904   2.681  11.643 -0.9623  0.2938 -2.1344
 5814TIP3   OH238856   1.544   2.981   2.504 -0.9132 -0.1745 -0.4746
 5814TIP3    H138857   1.468   3.005   2.556 -1.5026  0.3856 -1.5589
 5814TIP3    H238858   1.595   2.923   2.561 -2.2487 -0.7335  0.1913
 5815TIP3   OH238859   3.013   4.279   6.201  0.7887 -0.1390 -0.2059
 5815TIP3    H138860   3.030   4.294   6.108 -2.3891 -1.1038 -1.0480
 5815TIP3    H238861   2.995   4.185   6.208 -2.0716  0.4020  0.7582
 5816TIP3   OH238862   0.720   6.351   3.591 -0.4434  0.1550  0.0381
 5816TIP3    H138863   0.652   6.402   3.548 -2.5339 -1.7806  0.8836
 5816TIP3    H238864   0.728   6.391   3.678 -1.8516 -0.6685  0.5856
 5817TIP3   OH238865   6.259   6.107  14.554 -0.2925  0.0245  0.5135
 5817TIP3    H138866   6.179   6.065  14.525 -0.8493  1.0352  0.5558
 5817TIP3    H238867   6.234   6.158  14.631  0.7115 -0.8503  1.4728
 5818TIP3   OH238868   0.215   5.787   4.140  0.4653 -0.0965  0.0330
 5818TIP3    H138869   0.144   5.723   4.131  0.4479 -0.1142  0.2880
 5818TIP3    H238870   0.285   5.739   4.184  0.5208  0.0110  0.0613
 5819TIP3   OH238871   1.339   2.937  15.851 -0.3755  0.1116 -0.1696
 5819TIP3    H138872   1.384   2.988  15.919 -0.2319  0.0149 -0.1908
 5819TIP3    H238873   1.251   2.974  15.848 -0.6145 -0.3761  0.5886
 5820TIP3   OH238874   0.094   2.722  16.598 -0.1867  0.5540 -0.7360
 5820TIP3    H138875   0.041   2.659  16.648  1.9821 -0.4380  0.4427
 5820TIP3    H238876   0.056   2.720  16.510 -1.3969 -0.9312 -0.2315
 5821TIP3   OH238877   2.794   4.210  15.578 -0.0659  0.0877 -0.0402
 5821TIP3    H138878   2.806   4.142  15.645 -2.3851  0.9687  1.4180
 5821TIP3    H238879   2.821   4.290  15.622  0.3490  0.4260 -0.9053
 5822TIP3   OH238880   6.531   1.369  16.096 -0.2996 -0.6186  0.2023
 5822TIP3    H138881   6.621   1.390  16.119  0.0913  0.1255 -1.8317
 5822TIP3    H238882   6.537   1.286  16.049 -0.3757  0.3989 -1.6819
 5823TIP3   OH238883   2.539   1.778  14.281 -0.5908 -0.1934 -0.0766
 5823TIP3    H138884   2.470   1.727  14.239 -0.1530 -0.4235 -0.5390
 5823TIP3    H238885   2.503   1.803  14.366 -1.6586  0.6240 -0.7348
 5824TIP3   OH238886   0.125   2.553  11.690 -0.0572 -0.1186  0.1241
 5824TIP3    H138887   0.153   2.644  11.702  0.3302 -0.2806  0.4775
 5824TIP3    H238888   0.089   2.551  11.601  1.2600  0.0543 -0.4406
 5825TIP3   OH238889   2.595   4.276  13.228 -0.3641 -0.2561  0.6422
 5825TIP3    H138890   2.532   4.343  13.255  2.0588  0.9267  3.9557
 5825TIP3    H238891   2.549   4.193  13.245 -2.3569  0.4629 -0.8071
 5826TIP3   OH238892   1.579   4.906  13.892 -0.7645  0.1122 -0.0927
 5826TIP3    H138893   1.491   4.869  13.903 -0.4026 -0.4873  0.9113
 5826TIP3    H238894   1.631   4.864  13.961  0.1132  1.0797 -0.1566
 5827TIP3   OH238895   6.713   6.735  11.653  0.6383  0.0742 -0.4759
 5827TIP3    H138896   6.749   6.810  11.701  0.5131 -0.1447 -0.0327
 5827TIP3    H238897   6.619   6.750  11.653  0.2495 -1.6069  2.3506
 5828TIP3   OH238898   3.886   4.797  11.451 -0.3620 -0.1287  0.2399
 5828TIP3    H138899   3.945   4.725  11.428 -0.6115 -0.5401  0.8702
 5828TIP3    H238900   3.941   4.857  11.501 -0.5328 -0.6437  1.0633
 5829TIP3   OH238901   4.765   3.979   2.113  0.2948 -0.3930 -0.0035
 5829TIP3    H138902   4.774   4.048   2.179 -2.0537 -0.0465  0.0307
 5829TIP3    H238903   4.851   3.935   2.112  0.3410 -0.6235  3.4961
 5830TIP3   OH238904   1.519   3.475  16.922  0.0738 -0.4739 -0.0879
 5830TIP3    H138905   1.583   3.459  16.853  2.4446 -0.5971  2.0106
 5830TIP3    H238906   1.560   3.540  16.979 -2.2480  0.4413  0.6538
 5831TIP3   OH238907   4.591   1.826  16.153  0.3795  0.1264  0.3908
 5831TIP3    H138908   4.585   1.898  16.090  0.3387  0.1457  0.4157
 5831TIP3    H238909   4.647   1.860  16.223 -0.3651  0.4558  0.8393
 5832TIP3   OH238910   6.607   4.404  13.456  0.2441  0.1820 -0.1162
 5832TIP3    H138911   6.648   4.459  13.390  0.2563 -0.6034 -0.7791
 5832TIP3    H238912   6.605   4.459  13.535  1.3853  0.6862 -0.4149
 5833TIP3   OH238913   5.071   6.431  15.601 -0.7719  0.0346  0.0165
 5833TIP3    H138914   4.987   6.410  15.561 -0.0283  0.2940 -1.7450
 5833TIP3    H238915   5.106   6.347  15.631 -0.4159 -0.5000 -1.7917
 5834TIP3   OH238916   2.749   1.924   3.229 -0.3236  0.2100 -0.2703
 5834TIP3    H138917   2.680   1.989   3.221  0.1659  0.7780  0.0511
 5834TIP3    H238918   2.749   1.898   3.321  1.7932  2.3946  0.4543
 5835TIP3   OH238919   5.383   0.967  13.221 -0.1620 -0.4236  0.1982
 5835TIP3    H138920   5.406   0.875  13.212 -0.8945 -0.6169  0.2230
 5835TIP3    H238921   5.378   1.000  13.131  0.1053 -0.4063  0.1890
 5836TIP3   OH238922   6.124   4.130   0.172 -0.0644 -0.2152 -0.1045
 5836TIP3    H138923   6.181   4.070   0.124 -0.7939 -1.3553  0.3997
 5836TIP3    H238924   6.042   4.132   0.122 -0.4089 -0.4753  0.4340
 5837TIP3   OH238925   3.999   0.867   2.449  0.9262  0.4593 -0.6076
 5837TIP3    H138926   3.970   0.776   2.439  0.1478  0.3537  1.9828
 5837TIP3    H238927   3.980   0.907   2.364 -0.4496 -1.3343 -1.2188
 5838TIP3   OH238928   2.832   3.323  13.484  0.4851  0.5171  0.6481
 5838TIP3    H138929   2.819   3.308  13.390 -0.4857  0.0912  0.8337
 5838TIP3    H238930   2.908   3.269  13.506 -0.1054 -0.4602  0.3654
 5839TIP3   OH238931   3.091   5.724   5.063  0.7541 -0.0030  0.3824
 5839TIP3    H138932   3.167   5.672   5.036  1.0930  0.3238  0.7022
 5839TIP3    H238933   3.050   5.672   5.132  0.6753 -0.1884  0.1973
 5840TIP3   OH238934   0.573   3.555   1.507  0.4343 -0.5506 -0.0041
 5840TIP3    H138935   0.592   3.462   1.520  0.3798 -0.4314  1.0682
 5840TIP3    H238936   0.531   3.559   1.421 -1.0940 -1.7730  0.6095
 5841TIP3   OH238937   4.397   5.831   2.684  0.0552  0.0909 -0.2507
 5841TIP3    H138938   4.339   5.891   2.730 -0.7440 -0.0161 -1.1090
 5841TIP3    H238939   4.463   5.888   2.644 -0.4638  0.3744 -0.7200
 5842TIP3   OH238940   5.781   5.337  17.110 -0.7611  0.2862 -0.3386
 5842TIP3    H138941   5.852   5.398  17.090  0.8643 -1.2421  0.5553
 5842TIP3    H238942   5.704   5.376  17.067  0.5896  1.9645 -1.3901
 5843TIP3   OH238943   3.802   2.588   1.816  0.2344  0.1670  0.3080
 5843TIP3    H138944   3.893   2.561   1.820  0.8172  2.0940  0.6714
 5843TIP3    H238945   3.772   2.558   1.730  1.7298  1.0799 -0.5662
 5844TIP3   OH238946   4.962   6.524  16.499  0.3630 -0.2862 -0.4891
 5844TIP3    H138947   4.988   6.459  16.564  0.1755  0.7641  0.6711
 5844TIP3    H238948   5.040   6.536  16.445  0.9472 -0.2359  0.3424
 5845TIP3   OH238949   2.845   6.371  11.937 -0.0125 -0.5665  0.0035
 5845TIP3    H138950   2.902   6.306  11.977  1.1492  0.4857  0.1380
 5845TIP3    H238951   2.759   6.330  11.934  0.4742 -1.7073  1.0182
 5846TIP3   OH238952   1.798   1.277   1.646  0.4636 -0.4192 -0.0672
 5846TIP3    H138953   1.844   1.213   1.592  1.3575 -2.2476  2.6523
 5846TIP3    H238954   1.708   1.245   1.650 -0.1455  0.8683 -2.0166
 5847TIP3   OH238955   1.525   4.365  13.517 -0.1483 -0.5875 -0.3009
 5847TIP3    H138956   1.457   4.406  13.570  2.7030  1.3946  2.2219
 5847TIP3    H238957   1.519   4.272  13.537 -2.6855 -0.6435 -1.0113
 5848TIP3   OH238958   3.700   6.349  15.027 -0.6676 -0.2736 -0.2064
 5848TIP3    H138959   3.718   6.256  15.013  0.7180  0.1578 -1.4209
 5848TIP3    H238960   3.701   6.388  14.940 -1.8006  0.8051  0.2281
 5849TIP3   OH238961   4.453   1.905   0.261 -0.1075  0.2386 -0.4415
 5849TIP3    H138962   4.403   1.835   0.219 -0.5882 -0.5646  1.4162
 5849TIP3    H238963   4.516   1.932   0.194 -1.3633 -0.4312 -1.9612
 5850TIP3   OH238964   0.980   3.157   0.289  0.1408 -0.3711  0.4892
 5850TIP3    H138965   1.004   3.195   0.373  1.5963  2.3321 -1.0033
 5850TIP3    H238966   0.898   3.112   0.305 -2.1389  3.9162  2.4887
 5851TIP3   OH238967   5.020   2.938   3.756 -0.5765 -0.1893 -0.2064
 5851TIP3    H138968   4.934   2.972   3.781 -1.4494 -2.1502 -0.4384
 5851TIP3    H238969   5.016   2.845   3.775  0.5090 -0.8501 -2.8235
 5852TIP3   OH238970   3.861   1.408   3.018 -0.7150 -0.1807 -0.2570
 5852TIP3    H138971   3.912   1.372   2.945 -1.0672 -1.6213  0.1728
 5852TIP3    H238972   3.829   1.492   2.986 -0.7787 -0.7373 -1.7384
 5853TIP3   OH238973   0.059   5.329   0.665 -0.2454 -0.4451  0.0573
 5853TIP3    H138974   0.037   5.258   0.725 -0.0820  0.1302  0.8171
 5853TIP3    H238975  -0.024   5.374   0.650  0.2060  1.3341  2.4120
 5854TIP3   OH238976   4.612   4.253   0.998  0.0993  0.4414  0.1989
 5854TIP3    H138977   4.537   4.221   1.048 -0.4099  3.0885  1.2847
 5854TIP3    H238978   4.589   4.235   0.906 -0.5702 -1.2779  0.6735
 5855TIP3   OH238979   5.711   5.667  11.703  0.7644  0.1933  0.1674
 5855TIP3    H138980   5.663   5.722  11.764 -0.0840 -0.2212 -0.1044
 5855TIP3    H238981   5.753   5.728  11.643 -0.3983  0.5547 -0.3060
 5856TIP3   OH238982   1.903   1.561   3.018  0.1902  0.2544  0.1037
 5856TIP3    H138983   1.946   1.639   2.982 -0.8474 -0.3401 -2.6996
 5856TIP3    H238984   1.932   1.490   2.961 -0.8370 -0.9767  1.0673
 5857TIP3   OH238985   0.310   6.598   5.870 -0.2034 -0.1934  0.1516
 5857TIP3    H138986   0.216   6.589   5.857 -0.3373 -0.6896  1.3522
 5857TIP3    H238987   0.320   6.612   5.964  1.0036 -1.3506  0.2296
 5858TIP3   OH238988   1.642   5.240  14.601  0.0900  0.2829 -0.4472
 5858TIP3    H138989   1.610   5.161  14.557  0.1820  1.0398 -1.9395
 5858TIP3    H238990   1.735   5.223  14.616  0.3306  0.4611 -1.6397
 5859TIP3   OH238991   1.456   4.581  11.904 -0.0406  0.7384  0.6182
 5859TIP3    H138992   1.430   4.621  11.986 -1.0722  0.6257  0.3610
 5859TIP3    H238993   1.429   4.490  11.912  0.3546  0.5939  0.3653
 5860TIP3   OH238994   2.379   1.320   2.085 -0.0538  0.1005 -0.7794
 5860TIP3    H138995   2.441   1.256   2.120 -0.3971  0.4339  0.5206
 5860TIP3    H238996   2.300   1.270   2.068 -1.3544  0.5309  3.0365
 5861TIP3   OH238997   3.001   0.699   0.894 -0.2255 -0.4593  0.5859
 5861TIP3    H138998   2.922   0.699   0.841 -0.4823 -0.4247  0.9646
 5861TIP3    H238999   3.072   0.715   0.832 -0.7231  2.0660  0.5565
 5862TIP3   OH239000   3.108   4.065   2.650 -0.4665  0.2825  0.0932
 5862TIP3    H139001   3.137   3.978   2.677 -0.0960  0.3744 -0.0040
 5862TIP3    H239002   3.140   4.123   2.719  0.2350  0.4801 -0.3996
 5863TIP3   OH239003   5.443   6.398   2.612  0.9050 -0.2868 -0.2118
 5863TIP3    H139004   5.355   6.432   2.629  0.6169 -1.3014  0.3520
 5863TIP3    H239005   5.435   6.350   2.530  1.0449 -0.0106 -0.3908
 5864TIP3   OH239006   1.204   3.888  11.967  0.4392 -0.1390 -0.4364
 5864TIP3    H139007   1.235   3.957  12.025 -1.3488  1.6735 -1.4663
 5864TIP3    H239008   1.127   3.852  12.011  2.6327 -3.2326  1.1939
 5865TIP3   OH239009   3.144   3.071  13.204  0.6336  0.8590  0.6228
 5865TIP3    H139010   3.094   3.148  13.178 -1.6329 -0.2896  1.3034
 5865TIP3    H239011   3.096   2.997  13.167  2.0549 -0.2986  0.9988
 5866TIP3   OH239012   3.274   3.947  13.514  0.0097  0.6868  0.1539
 5866TIP3    H139013   3.284   3.995  13.596  1.3304  0.6399  0.0306
 5866TIP3    H239014   3.270   4.015  13.447  2.5540  0.6874 -0.0933
 5867TIP3   OH239015   2.415   5.257  14.037  0.2684  0.5339 -0.7996
 5867TIP3    H139016   2.488   5.230  14.093  1.0222  1.4314 -1.3279
 5867TIP3    H239017   2.345   5.280  14.098  0.9951  1.2596 -0.2141
 5868TIP3   OH239018   5.064   4.678  13.529 -0.0587 -0.6135 -0.6443
 5868TIP3    H139019   5.137   4.739  13.541 -0.5832 -0.0588 -0.2471
 5868TIP3    H239020   5.105   4.601  13.489  0.5492  0.1423 -1.5496
 5869TIP3   OH239021   2.741   2.157   5.219 -0.1503  0.0997  0.1705
 5869TIP3    H139022   2.648   2.133   5.218  0.0665 -0.8063  0.3925
 5869TIP3    H239023   2.769   2.148   5.128 -0.1437 -0.2138  0.2016
 5870TIP3   OH239024   1.233   3.278  15.063  0.4012 -0.2349  0.8742
 5870TIP3    H139025   1.242   3.275  14.968 -0.7313  1.5990  0.6612
 5870TIP3    H239026   1.270   3.195  15.094 -0.0817 -1.2858 -1.2261
 5871TIP3   OH239027   5.213   3.585   4.370 -0.1648 -1.1282 -0.3178
 5871TIP3    H139028   5.308   3.573   4.372 -0.0408 -0.4958 -1.4290
 5871TIP3    H239029   5.202   3.679   4.356 -0.9494 -1.2484 -0.5311
 5872TIP3   OH239030   0.517   0.607   5.873  0.7177  0.4930 -0.6916
 5872TIP3    H139031   0.445   0.669   5.882 -0.2108 -0.7452  0.9898
 5872TIP3    H239032   0.499   0.560   5.792  0.8885  1.7026 -1.4530
 5873TIP3   OH239033   0.194   6.528  16.339 -0.0955 -0.1947 -0.4004
 5873TIP3    H139034   0.172   6.474  16.262  0.9676  0.0409 -0.8794
 5873TIP3    H239035   0.163   6.616  16.315  2.5649  0.4783 -1.7098
 5874TIP3   OH239036   0.769   1.573   4.286  0.1190  0.3456 -0.0812
 5874TIP3    H139037   0.808   1.489   4.313 -1.0459 -0.1911 -0.0341
 5874TIP3    H239038   0.694   1.584   4.343 -0.7537  0.5720 -1.2418
 5875TIP3   OH239039   1.573   6.335   4.588 -0.0677  0.5379 -0.3790
 5875TIP3    H139040   1.636   6.388   4.539 -0.2933 -0.7117 -2.1155
 5875TIP3    H239041   1.621   6.256   4.611 -0.0271  1.0086  1.3311
 5876TIP3   OH239042   0.752   5.494   1.671 -0.7841  0.1597 -0.0467
 5876TIP3    H139043   0.735   5.574   1.622 -2.4194  0.2921  0.6631
 5876TIP3    H239044   0.693   5.499   1.746  1.5131 -0.0943  1.8907
 5877TIP3   OH239045   6.363   3.218  12.287 -1.0102 -0.5293 -0.8430
 5877TIP3    H139046   6.328   3.152  12.347 -2.4971  1.3039  0.4193
 5877TIP3    H239047   6.286   3.268  12.258 -0.0126  0.2470 -2.3113
 5878TIP3   OH239048   3.145   0.594   4.690  0.1088 -0.7773  0.2210
 5878TIP3    H139049   3.082   0.655   4.727  1.0989 -0.7873  2.0924
 5878TIP3    H239050   3.147   0.521   4.753  0.9448 -1.4309 -0.5364
 5879TIP3   OH239051   1.677   5.599  11.601  0.1880  0.0651  0.2683
 5879TIP3    H139052   1.651   5.536  11.668  1.5756 -1.4070 -0.5207
 5879TIP3    H239053   1.772   5.589  11.593  0.4635  2.2932  0.1214
 5880TIP3   OH239054   5.967   2.787  12.621 -0.3433 -0.2509  0.4150
 5880TIP3    H139055   5.962   2.852  12.691 -0.3668  1.6472 -1.2513
 5880TIP3    H239056   6.041   2.732  12.644 -0.5684  0.0865  2.0871
 5881TIP3   OH239057   0.121   3.723   1.493  0.8913  0.1923  0.1796
 5881TIP3    H139058   0.092   3.672   1.569  0.7942  0.5974  0.4147
 5881TIP3    H239059   0.057   3.794   1.486  0.6915 -0.0501 -0.5004
 5882TIP3   OH239060   4.745   0.051   1.057 -0.2588  0.2028  0.4621
 5882TIP3    H139061   4.778   0.019   1.141  0.4285 -0.4408 -0.0440
 5882TIP3    H239062   4.703   0.135   1.077  1.7264  1.0770  1.1052
 5883TIP3   OH239063   6.330   2.936  13.907 -0.5677  0.1850 -0.5921
 5883TIP3    H139064   6.257   2.896  13.953 -0.7053  0.5745 -0.4635
 5883TIP3    H239065   6.337   2.887  13.825  1.0620 -1.9685  0.7254
 5884TIP3   OH239066   5.171   5.593  15.358  0.3864 -0.1799  0.3260
 5884TIP3    H139067   5.116   5.527  15.400  1.2486 -0.6901  0.6808
 5884TIP3    H239068   5.109   5.652  15.314 -0.3595 -2.2416 -1.5467
 5885TIP3   OH239069   3.063   2.023  13.784  0.0703  0.3136 -0.2067
 5885TIP3    H139070   2.997   1.979  13.838  0.6257  0.2988  0.4828
 5885TIP3    H239071   3.078   2.107  13.829  2.0834 -0.5628  0.9229
 5886TIP3   OH239072   4.163   0.363   2.395  0.0795 -0.4343  0.1528
 5886TIP3    H139073   4.092   0.357   2.459  0.6902 -0.1105  0.8760
 5886TIP3    H239074   4.138   0.436   2.338  0.3500  0.3783  1.0635
 5887TIP3   OH239075   1.592   1.045  12.368  0.2091  0.8961 -0.0566
 5887TIP3    H139076   1.606   1.125  12.318  1.3145  0.2075 -0.8871
 5887TIP3    H239077   1.628   1.066  12.455  0.0298  1.4658 -0.1131
 5888TIP3   OH239078   5.022   4.609   3.856 -0.1730 -0.3588  0.6865
 5888TIP3    H139079   5.059   4.687   3.898  0.5496  2.2498 -4.0751
 5888TIP3    H239080   4.943   4.640   3.811  0.5980 -2.0629 -2.1096
 5889TIP3   OH239081   4.190   4.916  13.724 -0.0740 -0.3167  0.0748
 5889TIP3    H139082   4.170   4.906  13.631  1.5318 -0.0479 -0.3267
 5889TIP3    H239083   4.230   5.002  13.731  0.4586 -0.6132  0.8908
 5890TIP3   OH239084   5.483   0.314  16.533 -0.2434 -0.0872 -0.0124
 5890TIP3    H139085   5.472   0.230  16.489 -0.7519  0.3193 -0.6664
 5890TIP3    H239086   5.577   0.332  16.526 -0.2977 -0.0952 -0.8024
 5891TIP3   OH239087   0.026   0.735   6.252 -0.1410  0.6401 -0.0513
 5891TIP3    H139088   0.042   0.789   6.330  0.4373  3.4814 -1.9741
 5891TIP3    H239089   0.111   0.696   6.233  0.4661  2.2014 -0.7553
 5892TIP3   OH239090   6.672   3.576   1.357 -0.4750  0.1068  0.3831
 5892TIP3    H139091   6.742   3.630   1.393 -0.1041  0.5823 -1.0064
 5892TIP3    H239092   6.717   3.506   1.310 -0.8753  0.8138 -1.1271
 5893TIP3   OH239093   5.123   2.862  13.899 -0.0614 -0.3413 -0.1992
 5893TIP3    H139094   5.041   2.910  13.904  0.1341 -0.0846  0.7489
 5893TIP3    H239095   5.103   2.786  13.845 -1.0069 -0.4584  0.2980
 5894TIP3   OH239096   3.408   1.025  12.387  0.2256 -0.1915  0.2552
 5894TIP3    H139097   3.327   1.045  12.340 -0.1700 -0.3886  0.8510
 5894TIP3    H239098   3.477   1.056  12.328 -0.2730 -0.0887 -0.2922
 5895TIP3   OH239099   5.746   2.601   0.468  0.4803  0.4081 -0.1105
 5895TIP3    H139100   5.832   2.597   0.510 -0.0099  1.1643  1.0300
 5895TIP3    H239101   5.715   2.510   0.465  1.9714 -0.0988 -2.0254
 5896TIP3   OH239102   3.215   5.374  15.590 -0.3626 -0.0085  0.2859
 5896TIP3    H139103   3.215   5.379  15.686 -0.3119 -1.5147  0.3863
 5896TIP3    H239104   3.177   5.457  15.562 -1.4584 -0.0143  1.6391
 5897TIP3   OH239105   4.522   6.460  14.149 -0.0543 -0.0126  0.1591
 5897TIP3    H139106   4.439   6.444  14.194 -0.8117  1.2126 -0.7383
 5897TIP3    H239107   4.562   6.532  14.197 -0.2319  0.3963 -0.2906
 5898TIP3   OH239108   6.629   4.913  11.130 -0.5204 -0.2253 -0.5470
 5898TIP3    H139109   6.665   4.827  11.106 -0.9540 -0.4122 -0.5528
 5898TIP3    H239110   6.618   4.908  11.225 -0.7128 -0.2474 -0.5687
 5899TIP3   OH239111   5.331   4.540   0.361 -0.5442 -0.2669  0.0813
 5899TIP3    H139112   5.363   4.609   0.302 -0.1696 -1.6089 -1.3636
 5899TIP3    H239113   5.253   4.578   0.401  0.3614  1.4620  0.3295
 5900TIP3   OH239114   3.511   5.182   5.975  0.1634  0.1239  0.1306
 5900TIP3    H139115   3.538   5.271   5.995  0.2670  0.2664 -0.6354
 5900TIP3    H239116   3.570   5.154   5.905 -1.0141  0.0886 -0.8835
 5901TIP3   OH239117   1.047   3.126   1.650  0.2662 -0.1603 -0.2689
 5901TIP3    H139118   1.032   3.173   1.732  3.4382  1.5779 -0.5136
 5901TIP3    H239119   0.994   3.173   1.586 -0.7324 -0.3221  0.4077
 5902TIP3   OH239120   4.026   0.896   1.373  0.2460 -0.7410  0.5211
 5902TIP3    H139121   3.953   0.881   1.433 -0.3113 -0.8117 -0.1563
 5902TIP3    H239122   3.991   0.958   1.309  1.1877  0.2008  0.9015
 5903TIP3   OH239123   5.252   2.581   4.436 -0.2429  0.1526  0.0183
 5903TIP3    H139124   5.319   2.572   4.503 -1.6186  1.4303  1.6684
 5903TIP3    H239125   5.296   2.623   4.363  1.5413 -2.1891 -0.3348
 5904TIP3   OH239126   1.560   0.666  15.836 -0.1465  0.1169 -0.4941
 5904TIP3    H139127   1.473   0.631  15.813 -0.9352  0.8935  1.1756
 5904TIP3    H239128   1.604   0.593  15.880 -0.1676 -0.0951 -0.8210
 5905TIP3   OH239129   0.772   4.430   0.148  0.1579  0.1626  0.3162
 5905TIP3    H139130   0.684   4.450   0.117 -0.3056  0.3748  1.7213
 5905TIP3    H239131   0.805   4.512   0.185 -0.2200 -0.5878  2.4776
 5906TIP3   OH239132   1.593   4.109   4.147 -0.6020 -0.0718  0.0255
 5906TIP3    H139133   1.519   4.129   4.090 -0.6937 -0.5746 -0.0398
 5906TIP3    H239134   1.603   4.187   4.201 -0.9345  0.1520 -0.2288
 5907TIP3   OH239135   0.758   5.134  16.799  0.3564 -0.6335  0.0201
 5907TIP3    H139136   0.803   5.216  16.822 -0.4864  0.4532 -1.9849
 5907TIP3    H239137   0.808   5.066  16.845  2.0550  0.8336  0.4657
 5908TIP3   OH239138   5.054   2.075  14.761 -0.7270 -0.2587 -0.4600
 5908TIP3    H139139   5.021   2.049  14.675 -0.6963  1.5264 -1.0515
 5908TIP3    H239140   5.075   1.993  14.805 -1.8725 -1.2453 -1.7041
 5909TIP3   OH239141   6.299   0.009  15.132  0.2817  0.5990  0.3804
 5909TIP3    H139142   6.369   0.047  15.081  0.9082  1.0328  1.5241
 5909TIP3    H239143   6.219   0.050  15.099  0.6509  0.6999 -0.3838
 5910TIP3   OH239144   1.143   1.461   4.978 -0.0482  0.6962 -0.2928
 5910TIP3    H139145   1.210   1.528   4.985 -0.0875  0.7862 -0.7684
 5910TIP3    H239146   1.180   1.386   5.024  0.3713  0.7498 -0.5354
 5911TIP3   OH239147   6.075   2.681   2.478  0.2137 -0.4747 -0.5439
 5911TIP3    H139148   6.165   2.682   2.511  0.6978  0.8520 -1.7969
 5911TIP3    H239149   6.053   2.773   2.466 -1.5572 -0.7416  0.3097
 5912TIP3   OH239150   1.316   4.540  16.124 -0.4191  0.4167 -0.2694
 5912TIP3    H139151   1.239   4.489  16.149  0.0591  0.2404  0.8990
 5912TIP3    H239152   1.299   4.628  16.158  0.0955  0.2573  0.4260
 5913TIP3   OH239153   3.334   6.503  16.778 -0.1371 -0.2772 -0.0587
 5913TIP3    H139154   3.280   6.575  16.746  0.2799  0.7685  1.5262
 5913TIP3    H239155   3.287   6.468  16.853  1.7967  1.3327  2.0204
 5914TIP3   OH239156   1.819   1.289  16.418 -0.2622  0.0463 -0.1274
 5914TIP3    H139157   1.909   1.322  16.419 -0.6437  1.1768 -0.7964
 5914TIP3    H239158   1.773   1.345  16.480 -1.0570  1.2511 -1.7312
 5915TIP3   OH239159   5.596   3.439  10.687 -0.3433 -0.3916 -0.1813
 5915TIP3    H139160   5.517   3.417  10.638  0.0632 -3.9089  0.4491
 5915TIP3    H239161   5.610   3.364  10.745  1.9421  1.3561  1.7736
 5916TIP3   OH239162   4.097   0.518   2.165 -0.1394  0.1678 -0.0195
 5916TIP3    H139163   4.077   0.514   2.072  1.0280  1.1048 -0.3309
 5916TIP3    H239164   4.051   0.596   2.196 -0.7656 -0.3030  0.2730
 5917TIP3   OH239165   3.083   5.340  16.907 -0.6102  0.3311 -0.0331
 5917TIP3    H139166   3.084   5.377  16.819 -1.4502 -0.1438 -0.2519
 5917TIP3    H239167   3.031   5.402  16.958 -1.6194 -0.2861 -0.2902
 5918TIP3   OH239168   6.150   0.977   3.060  0.5120 -0.4287  0.7895
 5918TIP3    H139169   6.064   1.018   3.070  1.2894  1.1078  1.5486
 5918TIP3    H239170   6.131   0.884   3.049 -1.2389 -0.1347  0.9859
 5919TIP3   OH239171   2.039   6.469  12.146 -0.0667 -0.0753  0.3772
 5919TIP3    H139172   2.014   6.561  12.156 -0.7876 -0.4062  1.9513
 5919TIP3    H239173   2.128   6.464  12.182 -0.2992 -0.1185  0.9508
 5920TIP3   OH239174   2.051   1.558   1.283  0.0475 -0.4106 -0.2634
 5920TIP3    H139175   2.023   1.480   1.235  0.2157 -1.2457  0.9553
 5920TIP3    H239176   2.066   1.527   1.372  1.2569  0.7904 -0.0273
 5921TIP3   OH239177   4.320   2.934   3.107  0.1574  0.2626  0.1580
 5921TIP3    H139178   4.282   3.007   3.058  1.2842 -0.7056 -2.3353
 5921TIP3    H239179   4.278   2.857   3.071  2.3157 -0.6182 -0.6282
 5922TIP3   OH239180   1.979   3.717   6.096 -0.1763  0.5580 -0.4961
 5922TIP3    H139181   1.935   3.802   6.086 -0.5984  0.4681  0.5141
 5922TIP3    H239182   2.008   3.695   6.008 -1.5171  0.9717 -1.0675
 5923TIP3   OH239183   2.614   6.030  14.617 -0.3150 -0.6713 -0.3030
 5923TIP3    H139184   2.706   6.040  14.592 -0.2634  2.1614  0.7157
 5923TIP3    H239185   2.565   6.074  14.547 -0.7471 -0.4256  0.1479
 5924TIP3   OH239186   2.734   2.500   5.769 -0.0883 -0.3246  0.3992
 5924TIP3    H139187   2.754   2.572   5.829  2.1569 -0.3380 -0.2241
 5924TIP3    H239188   2.670   2.446   5.816  0.6960  0.3028  2.2866
 5925TIP3   OH239189   3.998   3.062   3.077  0.3526 -0.2795 -0.8248
 5925TIP3    H139190   4.006   2.969   3.057  2.8024 -0.3730  0.2588
 5925TIP3    H239191   4.068   3.103   3.026 -0.6499  0.9929 -1.2267
 5926TIP3   OH239192   1.444   4.703  14.129  0.3941 -0.0864  0.2913
 5926TIP3    H139193   1.537   4.697  14.152 -0.3196 -0.7569  3.5771
 5926TIP3    H239194   1.407   4.763  14.194 -1.6971 -0.9077 -0.0595
 5927TIP3   OH239195   6.624   3.608  15.867 -0.2823  0.0419 -0.3801
 5927TIP3    H139196   6.588   3.541  15.809 -0.9296  0.0757 -0.0260
 5927TIP3    H239197   6.687   3.561  15.921 -0.9741 -0.3547  0.0912
 5928TIP3   OH239198   3.705   4.985  14.460 -0.0773 -0.6082  0.3040
 5928TIP3    H139199   3.701   4.960  14.552  1.1638 -0.0159  0.5369
 5928TIP3    H239200   3.776   5.048  14.455  0.4258 -1.2377 -1.2021
 5929TIP3   OH239201   1.473   6.059  16.727  0.1958 -0.6391  0.3764
 5929TIP3    H139202   1.524   6.129  16.768 -1.8937  0.8341  0.6327
 5929TIP3    H239203   1.492   5.982  16.780  1.0011  0.1987  1.3533
 5930TIP3   OH239204   3.022   2.754   4.742  0.3809  0.0972 -0.0253
 5930TIP3    H139205   3.014   2.787   4.652  1.1813  0.2360 -0.0560
 5930TIP3    H239206   3.107   2.710   4.744  0.1778 -0.2824  0.5509
 5931TIP3   OH239207   2.871   4.865  12.562  0.0629  0.3028  0.1579
 5931TIP3    H139208   2.807   4.850  12.493  2.5524 -1.9785 -1.9104
 5931TIP3    H239209   2.849   4.800  12.630  0.3183 -0.6752 -0.6746
 5932TIP3   OH239210   3.487   1.807   4.377  0.0008 -0.2312  0.1948
 5932TIP3    H139211   3.519   1.896   4.390 -1.5844  0.4069  0.0300
 5932TIP3    H239212   3.548   1.768   4.316  1.1417  0.4948  0.8327
 5933TIP3   OH239213   1.883   0.172  11.727  0.6633  0.4198 -0.4450
 5933TIP3    H139214   1.912   0.247  11.676 -0.4280  1.4167  0.3252
 5933TIP3    H239215   1.829   0.210  11.797 -3.1202 -1.2301 -2.1678
 5934TIP3   OH239216   4.998   5.179   2.895 -0.3657 -0.1654 -0.4224
 5934TIP3    H139217   5.059   5.220   2.956 -1.7437  1.6865 -0.1975
 5934TIP3    H239218   4.938   5.129   2.950 -0.4519 -0.0623 -0.4212
 5935TIP3   OH239219   2.057   1.443   4.822 -0.2496  0.2938  0.0043
 5935TIP3    H139220   2.084   1.425   4.731 -0.0762  0.0351  0.1037
 5935TIP3    H239221   1.982   1.501   4.814 -1.1638 -0.8887 -0.3688
 5936TIP3   OH239222   3.798   5.562   1.637 -0.5075 -0.5058 -0.2768
 5936TIP3    H139223   3.798   5.470   1.609 -0.8894 -0.6299  0.1309
 5936TIP3    H239224   3.809   5.559   1.732 -0.6025 -0.1326 -0.2514
 5937TIP3   OH239225   0.242   3.501   5.639  0.2447  0.2543  0.2769
 5937TIP3    H139226   0.175   3.510   5.571  0.3576 -0.7680  0.0064
 5937TIP3    H239227   0.264   3.591   5.664  0.5656  0.6670 -1.3914
 5938TIP3   OH239228   3.198   6.171  16.673  0.0827  0.2293  0.2258
 5938TIP3    H139229   3.229   6.136  16.756  0.6778 -0.6652 -0.3561
 5938TIP3    H239230   3.127   6.231  16.697 -0.7732 -1.1496  1.2839
 5939TIP3   OH239231   2.485   0.872   6.467  0.3317 -0.2905  0.0898
 5939TIP3    H139232   2.397   0.842   6.489  0.1797 -0.0371 -0.1616
 5939TIP3    H239233   2.481   0.967   6.478  0.4391 -0.2288 -0.3856
 5940TIP3   OH239234   0.674   3.356   5.147 -0.2305 -0.2439 -0.1527
 5940TIP3    H139235   0.758   3.392   5.176  1.5514 -1.7129 -3.0632
 5940TIP3    H239236   0.610   3.392   5.209  2.6199  0.0836  2.8699
 5941TIP3   OH239237   5.143   2.527   0.843 -0.3629  0.1676 -0.3485
 5941TIP3    H139238   5.168   2.593   0.908  0.6780  0.8111 -1.3526
 5941TIP3    H239239   5.079   2.571   0.788 -0.1300  0.1364 -0.6478
 5942TIP3   OH239240   6.521   1.228  13.164 -0.1143 -0.4924  0.5626
 5942TIP3    H139241   6.518   1.141  13.204 -0.3463 -1.1972 -0.9403
 5942TIP3    H239242   6.569   1.281  13.228  1.2231 -2.0378  0.9188
 5943TIP3   OH239243   4.155   0.081  10.536 -0.3914  0.0184  0.6725
 5943TIP3    H139244   4.182  -0.002  10.497  1.8268  0.3179  1.4225
 5943TIP3    H239245   4.102   0.056  10.612 -1.7959 -0.6168 -0.4744
 5944TIP3   OH239246   0.794   0.433   0.724  0.0908  0.3537 -0.3632
 5944TIP3    H139247   0.716   0.459   0.674 -0.9360 -1.0779  0.4084
 5944TIP3    H239248   0.768   0.443   0.816  0.5481 -0.8232 -0.0878
 5945TIP3   OH239249   6.754   3.566   5.538  0.3640  0.4720 -0.0479
 5945TIP3    H139250   6.681   3.508   5.561  0.1171  0.6670 -0.3238
 5945TIP3    H239251   6.729   3.651   5.575 -0.9465  1.2843 -2.5505
 5946TIP3   OH239252   1.269   6.029  16.246 -0.3629  0.3686  0.9107
 5946TIP3    H139253   1.246   5.937  16.232 -1.6591  0.8815 -0.6656
 5946TIP3    H239254   1.258   6.042  16.340  0.5461 -1.2444  1.2806
 5947TIP3   OH239255   1.863   4.835  13.037 -0.1963  0.4409  0.3846
 5947TIP3    H139256   1.801   4.787  13.092  0.3252  1.2011  1.6694
 5947TIP3    H239257   1.884   4.914  13.087  3.7190 -0.9340  1.2510
 5948TIP3   OH239258   3.521   2.547  11.856 -0.3333  0.1511  0.0421
 5948TIP3    H139259   3.461   2.621  11.860  0.4111  0.8105 -0.6637
 5948TIP3    H239260   3.573   2.554  11.936 -0.4454  0.2210  0.1103
 5949TIP3   OH239261   2.335   1.780  15.005 -0.1298  0.1102 -0.7874
 5949TIP3    H139262   2.280   1.849  15.043 -0.3981  0.5722 -1.9761
 5949TIP3    H239263   2.309   1.701  15.053 -2.6563  0.0958 -1.9858
 5950TIP3   OH239264   6.009   5.846  17.105  0.3501  0.9293  0.3887
 5950TIP3    H139265   5.973   5.855  17.017 -0.3448 -1.2325  0.4005
 5950TIP3    H239266   6.100   5.875  17.096  0.4322  0.2975 -1.1753
 5951TIP3   OH239267   3.712   6.289   3.624 -0.4295 -0.5230 -0.0234
 5951TIP3    H139268   3.680   6.293   3.534 -0.8532 -0.5869  0.1219
 5951TIP3    H239269   3.788   6.347   3.624 -0.5384 -0.3739 -0.3772
 5952TIP3   OH239270   2.450   6.708   1.085  0.0384 -0.0295  0.1746
 5952TIP3    H139271   2.520   6.729   1.146 -0.5007  0.5042  0.6215
 5952TIP3    H239272   2.401   6.638   1.129  1.0811 -1.3895 -0.7467
 5953TIP3   OH239273   4.021   6.190   1.665  0.1214  0.4321  0.0824
 5953TIP3    H139274   4.094   6.145   1.707  0.8781  1.3689 -0.2085
 5953TIP3    H239275   4.061   6.265   1.621 -0.6712 -0.3142 -2.0383
 5954TIP3   OH239276   6.482   3.255  16.095 -0.3177  0.4420  0.0207
 5954TIP3    H139277   6.453   3.264  16.005  1.0451  1.1359 -0.3690
 5954TIP3    H239278   6.578   3.259  16.091 -0.2503  1.8359  1.6134
 5955TIP3   OH239279   0.036   4.700  12.039  0.4525 -0.0863  0.5021
 5955TIP3    H139280   0.096   4.635  12.074 -1.2891 -2.8137 -1.1887
 5955TIP3    H239281   0.072   4.725  11.954 -1.1170 -2.5447 -1.0221
 5956TIP3   OH239282   5.858   2.618   4.301  0.1321 -0.1378  0.1444
 5956TIP3    H139283   5.828   2.587   4.215  1.4738 -1.0255 -0.0449
 5956TIP3    H239284   5.951   2.595   4.303  0.6122  1.7320  1.0266
 5957TIP3   OH239285   2.018   3.148   6.736  0.5293 -1.1198  0.6438
 5957TIP3    H139286   2.107   3.129   6.708  0.9431 -0.7662  1.6943
 5957TIP3    H239287   2.001   3.083   6.805 -0.8156 -2.6121 -0.9799
 5958TIP3   OH239288   2.753   3.456   2.402 -0.2691 -0.4571 -0.2402
 5958TIP3    H139289   2.743   3.547   2.430 -1.4832 -1.3975  2.7524
 5958TIP3    H239290   2.833   3.457   2.348 -0.5316  2.4182 -0.7648
 5959TIP3   OH239291   0.168   4.287   5.273  0.0870 -0.1725 -0.3379
 5959TIP3    H139292   0.146   4.234   5.197  1.1820 -2.5140  0.8699
 5959TIP3    H239293   0.188   4.223   5.342  1.1678  1.8238  1.3123
 5960TIP3   OH239294   5.708   6.067  16.707 -0.1930  0.6022 -0.2770
 5960TIP3    H139295   5.690   6.145  16.654  1.8278  1.5768  0.3654
 5960TIP3    H239296   5.798   6.043  16.684 -1.1561 -2.4222 -1.4709
 5961TIP3   OH239297   1.902   1.451  14.519 -0.2382 -0.0216  0.3546
 5961TIP3    H139298   1.876   1.444  14.427  0.2909 -0.6739  0.2457
 5961TIP3    H239299   1.822   1.479  14.564  0.0066  2.3843 -0.5757
 5962TIP3   OH239300   5.399   2.619   4.195  0.6411  0.1946  0.0413
 5962TIP3    H139301   5.358   2.690   4.146  2.7978  0.1829 -1.9571
 5962TIP3    H239302   5.388   2.542   4.140  1.0509 -0.3574  0.7143
 5963TIP3   OH239303   2.748   2.987   0.705  0.1076  0.6283 -0.4104
 5963TIP3    H139304   2.664   3.034   0.703  0.1537  0.7026 -0.6234
 5963TIP3    H239305   2.785   3.001   0.618  0.7100  1.2634 -0.0510
 5964TIP3   OH239306   2.295   6.421  15.275 -0.0886  0.0069  0.8613
 5964TIP3    H139307   2.337   6.337  15.292 -0.4027 -0.6740 -1.4155
 5964TIP3    H239308   2.206   6.399  15.247  0.2635  0.9147 -1.2261
 5965TIP3   OH239309   3.440   4.464  17.205  0.0764 -0.2358  0.0897
 5965TIP3    H139310   3.432   4.534  17.140 -0.1427  0.8937  1.2976
 5965TIP3    H239311   3.366   4.406  17.186  1.4633 -1.3747 -2.2865
 5966TIP3   OH239312   1.179   1.753  10.508  0.5354 -0.0557 -0.4116
 5966TIP3    H139313   1.138   1.727  10.426 -0.2319 -0.5463  0.1223
 5966TIP3    H239314   1.184   1.672  10.559 -0.0099  0.4522  0.4597
 5967TIP3   OH239315   5.212   1.823  13.110  0.0532 -0.0990 -0.3543
 5967TIP3    H139316   5.227   1.814  13.015  2.0652  0.6349 -0.1680
 5967TIP3    H239317   5.300   1.833  13.146 -0.7728  1.0382  1.4507
 5968TIP3   OH239318   1.898   6.403   5.815 -0.4130 -0.1217  0.3865
 5968TIP3    H139319   1.932   6.314   5.826  2.4460  0.8923  0.3895
 5968TIP3    H239320   1.943   6.437   5.738 -1.9046  1.1500  0.0253
 5969TIP3   OH239321   6.237   0.710   2.657 -0.2014 -0.1140 -0.0603
 5969TIP3    H139322   6.221   0.706   2.563  2.4556 -1.8117 -0.5679
 5969TIP3    H239323   6.267   0.799   2.673 -1.1113  0.3203 -0.7102
 5970TIP3   OH239324   3.707   5.021   1.305 -0.6653  0.0015 -0.0360
 5970TIP3    H139325   3.744   5.066   1.229 -0.3777  2.3325  1.3782
 5970TIP3    H239326   3.612   5.024   1.292 -0.6149  0.3895 -0.3161
 5971TIP3   OH239327   6.131   3.727   1.728  0.0485  0.1391 -0.0859
 5971TIP3    H139328   6.180   3.679   1.662 -1.5240 -0.2072 -1.0493
 5971TIP3    H239329   6.195   3.787   1.767  0.9156  0.7113 -2.2532
 5972TIP3   OH239330   5.895   1.396   5.352 -0.4863  0.1057  0.4568
 5972TIP3    H139331   5.821   1.456   5.350 -1.2545 -0.8006  1.2155
 5972TIP3    H239332   5.930   1.399   5.263 -0.5477  1.6001  0.4497
 5973TIP3   OH239333   2.640   6.381  17.167  0.2868  0.5528 -0.0137
 5973TIP3    H139334   2.629   6.475  17.185  0.8658  0.9220 -1.4267
 5973TIP3    H239335   2.730   6.363  17.193  0.0333  0.2622  0.6912
 5974TIP3   OH239336   5.169   4.896  14.902 -0.0607  0.0319  0.0301
 5974TIP3    H139337   5.116   4.929  14.975 -0.2530  1.2281 -0.6238
 5974TIP3    H239338   5.260   4.910  14.930 -0.0525 -1.7107  1.0104
 5975TIP3   OH239339   4.329   1.469   2.751  0.2447 -0.5298 -1.1505
 5975TIP3    H139340   4.259   1.534   2.747  0.0951 -0.6388 -0.4224
 5975TIP3    H239341   4.404   1.511   2.708  1.3287  1.6375  2.4666
 5976TIP3   OH239342   3.273   1.650  14.188 -0.6129  0.8166 -0.1284
 5976TIP3    H139343   3.197   1.708  14.179 -1.1276  0.4792  1.7827
 5976TIP3    H239344   3.281   1.633  14.282  0.6953 -0.6713 -0.4527
 5977TIP3   OH239345   6.303   6.119  12.230 -0.3807  0.6546 -0.0823
 5977TIP3    H139346   6.217   6.080  12.217 -0.7444  1.2303  0.5382
 5977TIP3    H239347   6.322   6.165  12.148 -0.6847  0.5616 -0.2032
 5978TIP3   OH239348   3.488   1.005  15.845  0.0550  0.0109  0.1159
 5978TIP3    H139349   3.467   1.095  15.870 -2.3804 -0.3096 -0.5086
 5978TIP3    H239350   3.410   0.955  15.868  0.0672 -1.3560 -2.3898
 5979TIP3   OH239351   4.155   1.991   1.091  0.0669 -0.2132  0.0587
 5979TIP3    H139352   4.147   2.078   1.052 -0.2168  0.0866  0.7647
 5979TIP3    H239353   4.249   1.973   1.089  0.1534  0.2076  0.1192
 5980TIP3   OH239354   3.743   1.759  12.270  0.2442 -0.2199  0.0300
 5980TIP3    H139355   3.797   1.681  12.255  0.7592  0.0895  0.2505
 5980TIP3    H239356   3.799   1.832  12.246 -0.6953  0.0491 -1.5153
 5981TIP3   OH239357   6.503   3.443  15.356  0.9072 -0.1068 -0.1832
 5981TIP3    H139358   6.454   3.388  15.296  0.7882  1.0323 -1.1619
 5981TIP3    H239359   6.583   3.465  15.308  2.0471 -1.2736  1.0745
 5982TIP3   OH239360   1.287   1.251   2.062  0.1405  0.1533  0.3494
 5982TIP3    H139361   1.308   1.158   2.071  0.9708  0.2952 -0.0560
 5982TIP3    H239362   1.213   1.252   2.001 -0.4372 -0.2853  1.0226
 5983TIP3   OH239363   6.569   4.972   3.698  0.4372 -0.3222  0.2653
 5983TIP3    H139364   6.529   5.017   3.771 -0.6847  0.0849 -0.5791
 5983TIP3    H239365   6.644   5.027   3.674 -0.7623  1.0280 -0.5901
 5984TIP3   OH239366   0.839   1.125   2.336 -0.3929  0.1080  0.2642
 5984TIP3    H139367   0.850   1.040   2.293  1.0690  0.6103 -0.3979
 5984TIP3    H239368   0.746   1.126   2.361 -0.8690 -0.9605 -1.2751
 5985TIP3   OH239369   5.046   1.277  15.796 -0.2270  0.2173  0.2118
 5985TIP3    H139370   5.130   1.308  15.829 -0.4518 -0.1382  1.1538
 5985TIP3    H239371   4.981   1.328  15.844 -0.5624 -0.2971  0.3154
 5986TIP3   OH239372   6.061   1.509  12.151 -0.1515  0.3155 -0.5230
 5986TIP3    H139373   6.049   1.503  12.246  1.6251 -0.7756 -0.3306
 5986TIP3    H239374   5.975   1.537  12.118 -1.8234 -2.4560  1.0737
 5987TIP3   OH239375   1.148   2.510  13.917  0.2449 -0.2507  0.2308
 5987TIP3    H139376   1.185   2.575  13.857  0.1057 -0.5924 -0.2348
 5987TIP3    H239377   1.156   2.549  14.003  0.7639  0.1062  0.0245
 5988TIP3   OH239378   5.560   4.436   3.825  0.1903  0.1978  0.2858
 5988TIP3    H139379   5.478   4.484   3.811  0.1459 -0.5141 -2.4970
 5988TIP3    H239380   5.554   4.404   3.915 -2.9254 -0.4377 -0.0362
 5989TIP3   OH239381   0.120   2.300   6.411 -0.0661 -0.4745 -0.0697
 5989TIP3    H139382   0.127   2.348   6.328  0.3320 -2.1535 -1.0546
 5989TIP3    H239383   0.211   2.276   6.431 -0.0783  0.4496  1.2182
 5990TIP3   OH239384   2.612   1.767   4.477 -0.4789 -0.0753 -0.1308
 5990TIP3    H139385   2.575   1.838   4.426 -0.5826 -0.3079 -0.3812
 5990TIP3    H239386   2.663   1.810   4.546 -0.3918  0.2343 -0.3911
 5991TIP3   OH239387   0.817   4.739  10.766 -0.0661 -0.6747 -0.9610
 5991TIP3    H139388   0.814   4.671  10.833 -0.1380  0.2126 -0.0434
 5991TIP3    H239389   0.741   4.720  10.710 -1.4395 -0.0756  0.5964
 5992TIP3   OH239390   3.764   1.451  14.815  0.5237  0.0113 -0.0453
 5992TIP3    H139391   3.675   1.452  14.852  0.2636  0.7304 -0.6477
 5992TIP3    H239392   3.784   1.544  14.800  2.3702  0.1049  2.3698
 5993TIP3   OH239393   0.065   5.813   2.131 -0.3424  0.1369 -0.1770
 5993TIP3    H139394   0.042   5.807   2.039 -0.9455 -2.3879  0.0696
 5993TIP3    H239395  -0.016   5.840   2.174 -2.0089 -4.4919  0.1749
 5994TIP3   OH239396   5.234   0.272  15.677  0.6642  0.2947 -0.7068
 5994TIP3    H139397   5.288   0.337  15.633  2.8703  1.0826  2.7360
 5994TIP3    H239398   5.156   0.320  15.705  0.6739  0.5658 -1.1423
 5995TIP3   OH239399   2.392   0.428   4.180  0.3577 -0.7957 -0.2333
 5995TIP3    H139400   2.398   0.491   4.108  0.3095 -0.0907  0.3651
 5995TIP3    H239401   2.360   0.480   4.255  0.1059 -1.5779  0.2132
 5996TIP3   OH239402   0.871   0.890   6.069 -0.4762  0.1673 -0.6601
 5996TIP3    H139403   0.828   0.915   5.988 -1.5188 -0.7064 -0.3991
 5996TIP3    H239404   0.842   0.955   6.133  0.3020  0.8224 -0.9499
 5997TIP3   OH239405   2.509   2.214   2.627 -0.3918 -0.1707  0.4717
 5997TIP3    H139406   2.433   2.272   2.626 -0.9154 -0.7932 -1.5113
 5997TIP3    H239407   2.577   2.264   2.581 -0.4742 -0.6545 -0.1864
 5998TIP3   OH239408   3.732   6.746  14.825 -0.7570 -0.0826  0.8265
 5998TIP3    H139409   3.765   6.718  14.740 -1.2668  1.1637  0.1867
 5998TIP3    H239410   3.782   6.695  14.889 -0.9432 -1.6382 -0.2229
 5999TIP3   OH239411   3.778   4.169  15.400 -0.3600  0.1385 -0.5766
 5999TIP3    H139412   3.777   4.260  15.370 -1.0794 -0.7524 -3.5823
 5999TIP3    H239413   3.699   4.131  15.363  0.2314 -1.8890  0.1222
 6000TIP3   OH239414   6.735   2.051  15.584  0.2709 -1.0579 -0.6388
 6000TIP3    H139415   6.809   1.996  15.558  0.4576 -1.4574  0.6525
 6000TIP3    H239416   6.723   2.112  15.511  0.7353 -2.1309 -1.6350
 6001TIP3   OH239417   0.721   2.815   1.456  0.2646  0.0130 -0.1196
 6001TIP3    H139418   0.720   2.742   1.518  2.0025  0.0781  0.0450
 6001TIP3    H239419   0.713   2.893   1.511  2.0576  0.0836  0.1060
 6002TIP3   OH239420   0.555   1.304   2.354 -0.0367  0.6953  0.5360
 6002TIP3    H139421   0.534   1.221   2.398  0.1870 -0.3368 -1.2303
 6002TIP3    H239422   0.556   1.282   2.261  1.3914  2.3947  0.1086
 6003TIP3   OH239423   5.177   0.897   0.684  0.8494  0.2513  0.2604
 6003TIP3    H139424   5.150   0.809   0.710 -0.1896  1.2831  2.9861
 6003TIP3    H239425   5.095   0.947   0.680  1.1987  0.8134 -2.9231
 6004TIP3   OH239426   4.278   2.099   2.455 -0.4433  0.1609  0.0261
 6004TIP3    H139427   4.258   2.009   2.429  0.7212 -0.3016  0.6367
 6004TIP3    H239428   4.193   2.143   2.457 -1.4732 -1.7032  2.5915
 6005TIP3   OH239429   1.067   1.294  10.473 -0.2471  0.2991 -0.3753
 6005TIP3    H139430   1.036   1.253  10.392  2.1172 -0.7737 -0.8397
 6005TIP3    H239431   1.007   1.264  10.541  0.0554 -2.1347 -1.0962
 6006TIP3   OH239432   3.028   4.280   0.901 -0.5265  0.3870  0.3763
 6006TIP3    H139433   2.991   4.313   0.982 -1.6458 -1.4851  0.6927
 6006TIP3    H239434   3.039   4.357   0.846 -5.1706  1.1289  0.1469
 6007TIP3   OH239435   3.910   0.831   5.742  0.1456  0.5083  0.2669
 6007TIP3    H139436   3.991   0.783   5.721 -0.4730  0.0518 -1.1449
 6007TIP3    H239437   3.847   0.762   5.763 -0.4408  0.7383 -0.6787
 6008TIP3   OH239438   2.757   6.591  16.157  0.3501  0.2787 -0.8830
 6008TIP3    H139439   2.680   6.538  16.177  0.1258  0.3697 -1.4900
 6008TIP3    H239440   2.723   6.679  16.141  0.7746  0.7360  0.5955
 6009TIP3   OH239441   3.101   3.246   3.980  0.8240  1.0365  0.0358
 6009TIP3    H139442   3.064   3.221   4.064 -1.7505  0.0719 -1.2710
 6009TIP3    H239443   3.112   3.341   3.985  0.1839  1.0627  1.2434
 6010TIP3   OH239444   0.324   3.859  14.647 -0.2406 -0.1051 -0.0707
 6010TIP3    H139445   0.324   3.795  14.719  0.9303  0.3314  0.3461
 6010TIP3    H239446   0.246   3.912  14.662  0.1203  0.1449  1.0452
 6011TIP3   OH239447   2.987   1.316  14.524  0.3863 -0.1855  0.1744
 6011TIP3    H139448   2.960   1.341  14.613 -3.2837  1.1591 -1.1461
 6011TIP3    H239449   3.009   1.399  14.482 -0.3287 -0.5013 -0.8550
 6012TIP3   OH239450   0.473   4.288  17.235  0.0615  0.1896  0.0458
 6012TIP3    H139451   0.464   4.236  17.314 -0.2203  0.2597  0.0580
 6012TIP3    H239452   0.405   4.255  17.176  0.3468  0.0513 -0.2182
 6013TIP3   OH239453   3.661   1.029  14.561 -0.2562  0.4687 -0.4636
 6013TIP3    H139454   3.637   0.942  14.593  0.4605  0.6510  0.6548
 6013TIP3    H239455   3.652   1.085  14.638 -0.0339  1.2591 -1.0040
 6014TIP3   OH239456   0.914   4.967  13.660 -0.0182 -0.0058 -0.3836
 6014TIP3    H139457   0.885   5.023  13.589 -0.4869 -1.8465 -1.7391
 6014TIP3    H239458   0.887   5.012  13.740  1.6358  2.7503 -1.2374
 6015TIP3   OH239459   0.325   3.051   5.784 -0.9935  0.3196  0.0452
 6015TIP3    H139460   0.356   2.976   5.734 -0.7259  0.9899 -0.8322
 6015TIP3    H239461   0.276   3.103   5.721 -1.5815  0.6458  0.7571
 6016TIP3   OH239462   2.153   2.083  12.494  0.5392 -0.4375  0.2441
 6016TIP3    H139463   2.152   2.033  12.575  2.6984 -0.0690  0.5639
 6016TIP3    H239464   2.244   2.115  12.487  0.2423  0.0440 -1.9993
 6017TIP3   OH239465   4.525   5.037  14.469  0.5604  0.3609  0.4625
 6017TIP3    H139466   4.602   5.038  14.526  0.0996 -0.4213  1.1176
 6017TIP3    H239467   4.474   4.962  14.499 -0.2514  0.6160 -0.2449
 6018TIP3   OH239468   4.119   3.968   6.631 -0.3665  0.0365  0.5166
 6018TIP3    H139469   4.140   3.928   6.546 -2.9032 -1.7443  0.5855
 6018TIP3    H239470   4.115   4.062   6.613 -1.6672 -0.3442 -1.6242
 6019TIP3   OH239471   4.111   0.637   0.590 -0.7506 -0.2196  0.1174
 6019TIP3    H139472   4.198   0.673   0.610 -0.8601 -1.2877  3.0293
 6019TIP3    H239473   4.114   0.618   0.496  1.8535  0.5429 -0.0354
 6020TIP3   OH239474   0.017   6.195  15.233  0.3024  0.0714  0.2965
 6020TIP3    H139475  -0.071   6.166  15.256  0.3496 -0.3477 -0.0417
 6020TIP3    H239476   0.024   6.176  15.139  1.7825 -2.6038  0.8540
 6021TIP3   OH239477   1.990   2.096   0.806 -0.0514  0.7989  0.1283
 6021TIP3    H139478   2.079   2.124   0.825 -0.3221  1.6584  0.1710
 6021TIP3    H239479   1.934   2.157   0.855 -0.6422 -1.4645  2.4548
 6022TIP3   OH239480   4.547   2.526  17.283 -0.1922 -0.5763 -0.7574
 6022TIP3    H139481   4.533   2.592  17.351 -0.8393  0.3967 -1.7953
 6022TIP3    H239482   4.595   2.455  17.327  0.4127  0.5271  0.4127
 6023TIP3   OH239483   5.254   1.753  12.841 -0.1634 -0.0027  0.8283
 6023TIP3    H139484   5.187   1.716  12.784 -0.1705 -1.3347  1.6860
 6023TIP3    H239485   5.319   1.790  12.780 -0.3448 -1.0845 -0.0485
 6024TIP3   OH239486   4.368   5.920  10.819  0.5111  0.3399  0.7052
 6024TIP3    H139487   4.435   5.988  10.816  0.1689  0.6841 -1.8734
 6024TIP3    H239488   4.285   5.968  10.811 -0.1291 -0.1011  3.5638
 6025TIP3   OH239489   5.474   0.046   1.970 -0.5357  0.0923  0.4058
 6025TIP3    H139490   5.522   0.102   1.908  0.5827 -0.6700  0.5484
 6025TIP3    H239491   5.477  -0.041   1.930  0.3488 -0.4520  1.5759
 6026TIP3   OH239492   4.304   1.273  14.080  0.2270 -0.7603 -0.2999
 6026TIP3    H139493   4.257   1.205  14.033 -1.2587 -0.1174  0.1911
 6026TIP3    H239494   4.391   1.236  14.096 -0.9683 -3.1598  1.2375
 6027TIP3   OH239495   1.641   0.909  15.210  0.0297  0.2392 -0.3046
 6027TIP3    H139496   1.635   0.869  15.297 -0.2382 -0.9905 -0.8712
 6027TIP3    H239497   1.551   0.930  15.187 -0.1192 -1.0446 -0.9921
 6028TIP3   OH239498   5.036   3.319   4.077 -0.3193  0.1294  0.0602
 6028TIP3    H139499   4.955   3.371   4.072 -1.6624 -1.7655  0.9797
 6028TIP3    H239500   5.104   3.383   4.095 -1.2801  2.0513 -2.4993
 6029TIP3   OH239501   0.608   2.125  14.243  0.1868  0.5592 -0.1604
 6029TIP3    H139502   0.617   2.032  14.224  1.0751  0.4710  0.6516
 6029TIP3    H239503   0.520   2.147  14.213 -0.9428 -1.0560  1.7345
 6030TIP3   OH239504   1.284   3.027   3.923  0.0095 -0.2877 -0.2691
 6030TIP3    H139505   1.190   3.038   3.932 -0.2281 -1.8679 -0.5325
 6030TIP3    H239506   1.316   3.112   3.894 -1.3638  0.2080 -0.3553
 6031TIP3   OH239507   4.906   5.663  15.684  0.0114  0.0303 -0.3132
 6031TIP3    H139508   4.918   5.690  15.593  2.6804 -3.0147 -1.0721
 6031TIP3    H239509   4.842   5.592  15.679  0.4911 -0.4381  0.0868
 6032TIP3   OH239510   4.454   4.846  12.473  0.0993  0.3880 -0.0638
 6032TIP3    H139511   4.542   4.808  12.475 -1.1857 -2.9933 -1.2189
 6032TIP3    H239512   4.409   4.808  12.548 -1.1204 -0.1178 -1.0077
 6033TIP3   OH239513   0.891   4.187  10.707  0.3409 -0.1521  0.2231
 6033TIP3    H139514   0.951   4.126  10.663 -0.1039 -1.6355  1.5401
 6033TIP3    H239515   0.945   4.229  10.774  1.0088  2.0745 -1.6003
 6034TIP3   OH239516   0.316   2.195  12.742  0.8778  0.0054  0.5122
 6034TIP3    H139517   0.324   2.171  12.834  0.5078 -0.6781  0.3777
 6034TIP3    H239518   0.391   2.251  12.724  1.2124 -0.2512  1.1045
 6035TIP3   OH239519   3.291   6.219  13.244 -0.3529 -0.2095  0.0040
 6035TIP3    H139520   3.307   6.312  13.228 -1.4413 -0.0284 -0.0722
 6035TIP3    H239521   3.372   6.188  13.285  1.0871  0.1664 -2.3715
 6036TIP3   OH239522   4.855   6.262   1.689  0.5445 -0.4202 -0.7181
 6036TIP3    H139523   4.909   6.294   1.761 -0.6664 -2.1260  1.0775
 6036TIP3    H239524   4.765   6.286   1.713  0.1431 -0.7203 -1.8368
 6037TIP3   OH239525   6.573   3.803   1.912  0.3729 -0.0739  0.1952
 6037TIP3    H139526   6.566   3.817   2.007  0.1117 -1.3730  0.3890
 6037TIP3    H239527   6.555   3.709   1.901  1.8837 -0.2439 -0.9835
 6038TIP3   OH239528   4.236   6.141  11.691 -0.5224  0.3163 -0.1348
 6038TIP3    H139529   4.145   6.117  11.670 -1.2440  0.8942  2.0382
 6038TIP3    H239530   4.231   6.235  11.711  1.2547  1.2185 -3.2978
 6039TIP3   OH239531   6.409   6.300   4.908 -0.1089  0.5559 -0.5327
 6039TIP3    H139532   6.413   6.355   4.830  0.3957  0.3323 -0.6762
 6039TIP3    H239533   6.349   6.229   4.884  1.3720 -0.4758 -1.3799
 6040TIP3   OH239534   1.335   4.316  11.897 -0.5123  0.0295 -0.2263
 6040TIP3    H139535   1.269   4.332  11.829 -0.3749  1.0004 -0.1530
 6040TIP3    H239536   1.292   4.259  11.960 -0.3768 -1.5704 -1.5199
 6041TIP3   OH239537   5.329   1.369   0.280 -0.2440 -0.4317 -0.3874
 6041TIP3    H139538   5.364   1.356   0.368  0.2113 -1.2952 -0.6908
 6041TIP3    H239539   5.234   1.366   0.291 -0.2101  0.3776  0.2060
 6042TIP3   OH239540   0.577   6.139   0.535 -0.2918 -0.3187  0.1936
 6042TIP3    H139541   0.543   6.142   0.625 -2.0637 -0.2988 -0.4232
 6042TIP3    H239542   0.499   6.121   0.482  0.4052  1.3421 -1.4874
 6043TIP3   OH239543   1.264   0.482   5.209  0.1767 -0.8347  0.2058
 6043TIP3    H139544   1.268   0.470   5.304 -1.2478  3.2979  0.9978
 6043TIP3    H239545   1.182   0.440   5.183 -1.1731  0.8255  1.5085
 6044TIP3   OH239546   1.427   2.593   3.229  0.7036  0.1605 -0.2004
 6044TIP3    H139547   1.423   2.601   3.324  0.0657 -2.3036  0.0437
 6044TIP3    H239548   1.403   2.680   3.196 -3.4628  0.0199  1.8872
 6045TIP3   OH239549   6.275   6.417   5.783 -0.3336 -0.3199 -0.8293
 6045TIP3    H139550   6.275   6.321   5.783  0.8186 -0.3476  0.5523
 6045TIP3    H239551   6.184   6.441   5.766 -1.0556 -1.6927  0.8027
 6046TIP3   OH239552   4.398   5.258   4.096  0.5461 -0.0093  0.0903
 6046TIP3    H139553   4.492   5.263   4.078  0.4412 -1.1162 -0.9153
 6046TIP3    H239554   4.364   5.344   4.073  1.0172 -0.2365 -1.5510
 6047TIP3   OH239555   2.223   4.979  13.410 -0.0055  0.3530 -0.1258
 6047TIP3    H139556   2.212   5.071  13.385  2.5292  0.2443 -1.9594
 6047TIP3    H239557   2.310   4.975  13.449  0.7767 -1.5653 -1.8899
 6048TIP3   OH239558   1.462   6.409  15.010 -0.4675 -0.5309 -0.0296
 6048TIP3    H139559   1.422   6.384  15.094 -1.0820 -0.0782 -0.1762
 6048TIP3    H239560   1.556   6.398  15.024 -0.5564 -0.3971  0.7502
 6049TIP3   OH239561   3.481   0.227  11.763 -0.1990  0.2774 -0.1600
 6049TIP3    H139562   3.464   0.176  11.842  1.2797 -0.4571 -0.2834
 6049TIP3    H239563   3.538   0.171  11.710 -0.3558  1.1634 -1.3063
 6050TIP3   OH239564   6.712   1.951   2.101 -0.4904 -0.2428 -0.2239
 6050TIP3    H139565   6.659   1.975   2.025 -1.2572 -1.3223 -0.0475
 6050TIP3    H239566   6.667   1.992   2.175 -1.0681 -1.1184 -0.0802
 6051TIP3   OH239567   4.867   4.329   1.054  0.1257 -0.9751 -0.1074
 6051TIP3    H139568   4.779   4.289   1.048 -0.9692  1.0836  1.2015
 6051TIP3    H239569   4.895   4.337   0.963 -0.5247 -2.7223 -0.5053
 6052TIP3   OH239570   4.641   5.289  14.399 -0.0523 -0.2002  0.1585
 6052TIP3    H139571   4.675   5.283  14.310 -0.5557 -1.3621  0.0280
 6052TIP3    H239572   4.583   5.213  14.408  0.6583 -0.5937  1.7505
 6053TIP3   OH239573   4.843   4.105   3.176  0.6085  0.2056 -0.0452
 6053TIP3    H139574   4.789   4.028   3.159  1.8549 -0.1215 -3.1239
 6053TIP3    H239575   4.929   4.069   3.197  0.3917  0.7789  2.0967
 6054TIP3   OH239576   6.152   1.333   4.175 -0.2623  0.2595 -0.1097
 6054TIP3    H139577   6.099   1.295   4.105  0.5548  0.4550 -0.8511
 6054TIP3    H239578   6.144   1.271   4.248 -1.0534  0.0161 -0.3942
 6055TIP3   OH239579   3.198   1.725  13.447 -0.1920 -0.3792 -0.2431
 6055TIP3    H139580   3.266   1.776  13.403 -1.1163 -1.2748 -2.8763
 6055TIP3    H239581   3.197   1.759  13.537  0.1189  3.3645 -1.4788
 6056TIP3   OH239582   0.260   2.234  14.738 -0.1318 -0.3828 -0.1103
 6056TIP3    H139583   0.319   2.164  14.708  0.8833  0.6375 -0.5467
 6056TIP3    H239584   0.318   2.304  14.767 -1.0958 -0.3943  2.0738
 6057TIP3   OH239585   5.171   4.994   3.800  0.0228  0.0305 -0.4218
 6057TIP3    H139586   5.203   5.016   3.712  0.3609 -0.4059 -0.4114
 6057TIP3    H239587   5.081   5.027   3.802 -0.4592 -1.1549 -1.4148
 6058TIP3   OH239588   3.100   5.783  17.281 -0.2493 -0.3173 -0.0154
 6058TIP3    H139589   3.164   5.757  17.346  0.2816 -1.8849 -1.1000
 6058TIP3    H239590   3.072   5.701  17.240 -1.3988  0.5094 -0.9795
 6059TIP3   OH239591   0.616   2.755   3.522 -0.0081 -0.4295  0.2740
 6059TIP3    H139592   0.563   2.731   3.447 -1.7448  2.3035  0.4915
 6059TIP3    H239593   0.615   2.678   3.579 -1.3306 -1.4206 -1.0459
 6060TIP3   OH239594   6.603   0.794   6.829 -0.0220 -0.2999 -0.4631
 6060TIP3    H139595   6.579   0.834   6.746  2.2865  0.8919 -0.6303
 6060TIP3    H239596   6.694   0.764   6.817 -0.0276 -1.1777  1.2407
 6061TIP3   OH239597   4.236   4.700  11.922 -0.0892  0.3231 -0.0170
 6061TIP3    H139598   4.317   4.703  11.972 -0.1691 -1.1963  0.2546
 6061TIP3    H239599   4.195   4.618  11.948 -1.5491  0.8858 -0.4222
 6062TIP3   OH239600   3.080   2.985   5.383  0.3194 -0.1338 -0.3078
 6062TIP3    H139601   3.149   2.942   5.332  0.3077 -0.2207 -0.2504
 6062TIP3    H239602   3.107   3.077   5.387 -1.0957  0.5219 -2.9371
 6063TIP3   OH239603   6.475   4.988  15.814 -0.0533  0.1972 -0.2408
 6063TIP3    H139604   6.458   4.901  15.777 -2.7727  0.6174 -0.2150
 6063TIP3    H239605   6.467   5.048  15.740 -0.3239  0.5962  0.1067
 6064TIP3   OH239606   4.928   1.515  16.923  0.2359 -0.6289  0.1391
 6064TIP3    H139607   4.869   1.524  16.998 -1.8817 -1.9137 -1.2540
 6064TIP3    H239608   5.001   1.462  16.956 -0.5560 -1.0043  1.3396
 6065TIP3   OH239609   2.985   1.090  13.011 -0.0460  0.5189 -0.8775
 6065TIP3    H139610   3.016   1.091  13.102  0.2504  1.3725 -0.9735
 6065TIP3    H239611   2.934   1.171  13.003 -0.0226  0.4742 -1.4855
 6066TIP3   OH239612   2.069   0.682   2.252  0.4445  0.4425  0.5077
 6066TIP3    H139613   2.117   0.599   2.255  0.4817  0.2131 -2.7130
 6066TIP3    H239614   2.135   0.748   2.275  1.2167 -0.1994  0.1928
 6067TIP3   OH239615   4.913   4.428  11.517 -0.3054  0.1155 -0.6068
 6067TIP3    H139616   4.885   4.444  11.427  0.9766  1.4850 -0.8149
 6067TIP3    H239617   4.993   4.480  11.526  0.3019 -1.0171  0.9375
 6068TIP3   OH239618   2.515   2.090  14.563 -0.2084  0.4897  0.4106
 6068TIP3    H139619   2.497   1.996  14.560  0.8293  0.2036  1.8778
 6068TIP3    H239620   2.434   2.129  14.597 -0.1747 -0.0437  1.1136
 6069TIP3   OH239621   4.330   1.970  12.165  0.3955  0.6639  0.1471
 6069TIP3    H139622   4.343   1.951  12.072  3.5797 -2.1023  0.9532
 6069TIP3    H239623   4.340   2.065  12.172  1.3154  0.8073 -2.2167
 6070TIP3   OH239624   4.967   0.120   4.526 -0.1512  0.2814 -0.2888
 6070TIP3    H139625   4.900   0.133   4.594  1.3844  2.4048  0.9421
 6070TIP3    H239626   4.992   0.028   4.535 -2.9522 -0.6646 -0.9367
 6071TIP3   OH239627   2.033   4.510  11.014  0.3096 -0.0650 -0.0983
 6071TIP3    H139628   2.117   4.484  10.975  0.4873 -0.2357  0.3910
 6071TIP3    H239629   1.971   4.508  10.941  0.9413  1.0835 -0.6836
 6072TIP3   OH239630   3.614   0.652   0.174 -0.1342  0.2587 -0.0463
 6072TIP3    H139631   3.674   0.703   0.121 -0.0399  0.2810  0.0816
 6072TIP3    H239632   3.586   0.580   0.117  1.1756 -0.6182  0.3791
 6073TIP3   OH239633   2.214   2.446  11.224 -0.2666  0.2317  0.0105
 6073TIP3    H139634   2.288   2.401  11.185  1.2024  1.3810  1.3432
 6073TIP3    H239635   2.195   2.397  11.304  0.0543  0.7920  0.4423
 6074TIP3   OH239636   4.137   5.410   0.952  0.4254 -0.2042 -0.4651
 6074TIP3    H139637   4.086   5.480   0.911  0.4138 -1.1661 -2.1857
 6074TIP3    H239638   4.096   5.329   0.921  2.7178 -1.0171 -1.5979
 6075TIP3   OH239639   6.388   5.897   0.044 -0.0780  0.2092 -0.1533
 6075TIP3    H139640   6.451   5.833   0.009  0.8937  0.4477  1.0672
 6075TIP3    H239641   6.323   5.907  -0.025  1.2063 -0.0908 -1.4536
 6076TIP3   OH239642   3.690   4.470   2.134  0.6748  0.1300  1.0845
 6076TIP3    H139643   3.740   4.521   2.198  0.2885  1.0409  0.6846
 6076TIP3    H239644   3.645   4.536   2.081  0.0917 -0.6397  0.5984
 6077TIP3   OH239645   1.597   4.089   2.906 -1.0391  0.2455  0.1800
 6077TIP3    H139646   1.552   4.006   2.918 -2.1277  0.8342  0.3201
 6077TIP3    H239647   1.539   4.154   2.946  0.0674  1.0065  0.5909
 6078TIP3   OH239648   2.679   6.238   1.779 -0.1488 -0.0708 -0.4113
 6078TIP3    H139649   2.714   6.316   1.736  1.1920 -1.5332 -2.1632
 6078TIP3    H239650   2.730   6.166   1.742  1.2672 -1.5437  3.8379
 6079TIP3   OH239651   6.687   5.180   0.942  0.4355 -0.1230  0.5266
 6079TIP3    H139652   6.629   5.128   0.998 -2.3319  0.2428 -1.7289
 6079TIP3    H239653   6.710   5.121   0.871  1.1950  0.3637  0.3596
 6080TIP3   OH239654   1.206   3.626   0.741  0.4296  0.1283  0.1638
 6080TIP3    H139655   1.113   3.645   0.747  0.6310  1.1740  0.2039
 6080TIP3    H239656   1.217   3.587   0.654  0.0351  0.4394 -0.0263
 6081TIP3   OH239657   1.114   5.041   3.860  0.4838 -0.3862  0.6127
 6081TIP3    H139658   1.127   5.064   3.768 -1.7538  1.5441  0.6812
 6081TIP3    H239659   1.201   5.049   3.899  0.8180  3.3982 -0.4571
 6082TIP3   OH239660   1.277   5.066   0.880 -0.1212  0.0226 -0.3859
 6082TIP3    H139661   1.242   4.996   0.826 -0.2404 -1.7443  1.8158
 6082TIP3    H239662   1.368   5.075   0.852 -0.5228  0.0920 -1.7208
 6083TIP3   OH239663   0.725   2.940   0.162 -0.1888  0.1037  0.3634
 6083TIP3    H139664   0.710   2.941   0.068 -0.8771 -0.6350  0.4528
 6083TIP3    H239665   0.651   2.990   0.198 -0.3071 -0.2129  0.5585
 6084TIP3   OH239666   4.720   1.330  16.412  0.3908 -0.2354  0.0085
 6084TIP3    H139667   4.713   1.371  16.498 -0.8486 -1.3287  0.4724
 6084TIP3    H239668   4.758   1.244  16.430 -1.5259 -1.1950 -0.2397
 6085TIP3   OH239669   0.635   4.737   1.405  0.2329  0.2702 -0.2298
 6085TIP3    H139670   0.558   4.699   1.447 -1.3618  0.6773 -2.5843
 6085TIP3    H239671   0.646   4.686   1.324  2.1000  0.6133 -0.2378
 6086TIP3   OH239672   6.437   1.015   3.191  0.0576 -0.5223  0.0147
 6086TIP3    H139673   6.356   0.976   3.158  0.1902 -0.1781 -0.7406
 6086TIP3    H239674   6.506   0.978   3.136  0.2605  0.1981 -0.2296
 6087TIP3   OH239675   6.491   4.930  11.878 -0.2766  0.0282  0.3920
 6087TIP3    H139676   6.396   4.934  11.864 -0.1553  2.0699 -0.1302
 6087TIP3    H239677   6.519   4.854  11.828 -1.6560 -0.7276  0.7114
 6088TIP3   OH239678   6.616   6.184  11.951 -0.0828  0.6866 -0.5613
 6088TIP3    H139679   6.629   6.260  11.895  0.7292 -0.0606 -1.4383
 6088TIP3    H239680   6.692   6.128  11.933 -0.0778  0.1934  0.9130
 6089TIP3   OH239681   6.469   3.898   0.036  0.3590 -0.3482 -0.3675
 6089TIP3    H139682   6.385   3.858   0.017  0.8148 -1.2335 -0.5737
 6089TIP3    H239683   6.471   3.977  -0.017  0.6425 -1.5669 -2.2586
 6090TIP3   OH239684   4.572   2.788   4.833 -0.0368 -0.0250 -0.1407
 6090TIP3    H139685   4.479   2.802   4.847 -0.1311  0.2201 -0.9976
 6090TIP3    H239686   4.591   2.831   4.750  1.2057  1.4577  0.8664
 6091TIP3   OH239687   3.839   0.745   4.529  0.5064 -0.3145  0.3247
 6091TIP3    H139688   3.822   0.711   4.617 -0.6122  0.2737  0.3473
 6091TIP3    H239689   3.894   0.822   4.544  0.3191 -0.2152  0.5029
 6092TIP3   OH239690   1.879   5.060  12.742  0.2732  0.1544  0.1878
 6092TIP3    H139691   1.945   4.990  12.738 -0.0935 -0.2157  0.4491
 6092TIP3    H239692   1.799   5.019  12.708  0.4032  0.8894 -1.0633
 6093TIP3   OH239693   4.224   2.176  16.476 -0.1260  0.0093  0.1478
 6093TIP3    H139694   4.214   2.269  16.456  0.2014  0.5596  2.3183
 6093TIP3    H239695   4.318   2.161  16.477 -0.1552 -0.1457  0.6577
 6094TIP3   OH239696   6.340   0.499  15.976  0.4151 -0.4974 -0.1422
 6094TIP3    H139697   6.346   0.435  15.905 -0.8373  1.0171 -1.7199
 6094TIP3    H239698   6.410   0.562  15.957 -0.0672  0.0339 -0.1941
 6095TIP3   OH239699   0.615   4.702   5.165  0.4631 -0.4836  0.2535
 6095TIP3    H139700   0.607   4.745   5.079 -0.6197 -0.4317  0.3712
 6095TIP3    H239701   0.609   4.608   5.145  0.4062 -0.4800  0.2537
 6096TIP3   OH239702   3.737   2.667  12.514  0.4279 -0.0830 -0.1493
 6096TIP3    H139703   3.781   2.612  12.578 -0.9766 -0.4456  0.5504
 6096TIP3    H239704   3.743   2.756  12.550  0.8793 -0.0836 -0.2267
 6097TIP3   OH239705   4.187   6.437  10.907 -0.1403  0.3678  0.4049
 6097TIP3    H139706   4.126   6.398  10.969  0.2570  1.4822  1.5400
 6097TIP3    H239707   4.251   6.367  10.889  0.1402  0.2357  1.8194
 6098TIP3   OH239708   6.296   4.406  15.040 -0.3339 -0.3457  0.2735
 6098TIP3    H139709   6.228   4.351  15.000  1.9247 -1.3879 -2.5322
 6098TIP3    H239710   6.332   4.352  15.110  0.6240 -1.8492 -1.2669
 6099TIP3   OH239711   3.176   3.969   1.555 -0.1358  0.7595 -0.1837
 6099TIP3    H139712   3.153   4.058   1.530 -2.1664  0.2281 -0.3430
 6099TIP3    H239713   3.115   3.913   1.507  1.6476 -0.8020 -0.7565
 6100TIP3   OH239714   2.264   0.538  12.287  0.3685 -0.1309  0.5985
 6100TIP3    H139715   2.237   0.529  12.378 -0.6803 -0.5235  0.2635
 6100TIP3    H239716   2.289   0.450  12.260 -1.3510 -0.4602 -0.0814
 6101TIP3   OH239717   3.517   6.303   0.887  0.3278  0.3924 -0.2009
 6101TIP3    H139718   3.559   6.217   0.898 -3.2486 -1.4725  0.3574
 6101TIP3    H239719   3.540   6.329   0.798  0.0703 -2.0766 -1.0892
 6102TIP3   OH239720   3.438   1.272   2.733  0.4647 -0.3999 -0.1429
 6102TIP3    H139721   3.424   1.178   2.742 -0.4185 -0.2670  0.0225
 6102TIP3    H239722   3.519   1.290   2.781  0.5997 -1.0626 -0.1201
 6103TIP3   OH239723   3.594   3.941  12.743  0.4654 -0.4075 -0.1554
 6103TIP3    H139724   3.624   3.948  12.653  0.9396  2.2810  0.1084
 6103TIP3    H239725   3.655   3.995  12.793 -0.4163 -0.9651  1.6157
 6104TIP3   OH239726   4.773   5.943  14.678 -0.5033 -0.2927 -0.2596
 6104TIP3    H139727   4.850   5.942  14.622  0.6090 -0.4902  1.2104
 6104TIP3    H239728   4.713   5.879  14.639  1.0085 -1.7998 -0.1977
 6105TIP3   OH239729   3.825   2.521   5.537 -0.2508  0.0524 -0.2336
 6105TIP3    H139730   3.762   2.449   5.525  0.5422 -0.5571 -0.8950
 6105TIP3    H239731   3.909   2.477   5.549  0.2782  0.8779 -0.8197
 6106TIP3   OH239732   3.886   1.088   6.017 -0.0691 -0.1320 -0.2849
 6106TIP3    H139733   3.814   1.149   6.004 -0.2016 -0.4993 -1.3930
 6106TIP3    H239734   3.851   1.021   6.076 -1.1487 -1.0910 -1.9399
 6107TIP3   OH239735   2.865   1.893   0.692  0.3461 -0.0408 -0.0405
 6107TIP3    H139736   2.825   1.979   0.677 -0.0409  0.1311  1.7051
 6107TIP3    H239737   2.936   1.911   0.755  1.7409 -0.6796 -1.3714
 6108TIP3   OH239738   1.817   4.181  12.138  0.4412 -0.4029 -0.0041
 6108TIP3    H139739   1.786   4.222  12.058 -1.2186  0.4420  1.0058
 6108TIP3    H239740   1.896   4.231  12.162  0.9346 -0.6505 -1.0713
 6109TIP3   OH239741   2.712   3.929   0.935  0.3965 -0.3336  0.3108
 6109TIP3    H139742   2.656   3.880   0.875 -0.3996  0.1865  0.6216
 6109TIP3    H239743   2.800   3.896   0.916  0.4396  1.0386 -2.3956
 6110TIP3   OH239744   5.872   0.947  12.253  0.1511 -0.1839  0.7087
 6110TIP3    H139745   5.891   1.034  12.218 -1.3273  0.1624  0.6863
 6110TIP3    H239746   5.782   0.954  12.286 -0.0444 -1.7412  0.5743
 6111TIP3   OH239747   6.628   1.282  12.467 -0.5420 -0.0757  0.4162
 6111TIP3    H139748   6.629   1.301  12.373 -0.1942 -0.4509  0.3390
 6111TIP3    H239749   6.721   1.274  12.491 -0.4956  2.1589  1.2563
 6112TIP3   OH239750   6.032   3.342  12.718  0.3638 -0.2288  0.3324
 6112TIP3    H139751   5.988   3.355  12.801 -0.6547  0.8668 -0.3398
 6112TIP3    H239752   6.094   3.270  12.734 -0.7164 -0.9049  1.6568
 6113TIP3   OH239753   1.757   1.262  12.903  0.2754 -0.1099  0.2592
 6113TIP3    H139754   1.668   1.286  12.874  0.6816  0.1443 -0.8192
 6113TIP3    H239755   1.754   1.272  12.998 -0.3853  1.5433  0.1061
 6114TIP3   OH239756   3.836   0.263   3.568 -0.2275  0.6579 -0.0302
 6114TIP3    H139757   3.790   0.293   3.490 -0.6167  1.1708  0.3934
 6114TIP3    H239758   3.870   0.343   3.609 -0.9074  0.4990  0.8747
 6115TIP3   OH239759   3.545   4.719  14.116  0.2509 -0.7330 -0.2386
 6115TIP3    H139760   3.550   4.679  14.029  0.7289 -0.3571 -0.3933
 6115TIP3    H239761   3.635   4.746  14.135  0.0405 -0.2593  0.1083
 6116TIP3   OH239762   1.383   3.929  12.220  0.7784  0.5842  0.3751
 6116TIP3    H139763   1.447   3.966  12.160  1.5769  1.0957  1.5115
 6116TIP3    H239764   1.368   3.997  12.285 -1.9167  0.9873 -0.5388
 6117TIP3   OH239765   1.445   5.319   4.072  0.3456  0.3832 -0.1326
 6117TIP3    H139766   1.445   5.244   4.013  1.3335 -0.2381  0.6252
 6117TIP3    H239767   1.530   5.361   4.055  0.6605  0.1677  0.8659
 6118TIP3   OH239768   4.311   5.754  17.192 -0.3199  0.1407  0.2154
 6118TIP3    H139769   4.401   5.785  17.201 -0.3684  0.7991 -1.1644
 6118TIP3    H239770   4.260   5.808  17.253  0.1376  0.2226  0.5230
 6119TIP3   OH239771   0.366   0.174  16.979 -0.4613  0.5576 -0.5427
 6119TIP3    H139772   0.380   0.208  16.891 -1.2930  0.5922 -0.6695
 6119TIP3    H239773   0.427   0.101  16.987  1.3142  1.9728 -0.3006
 6120TIP3   OH239774   1.424   6.073   3.273  0.0976  0.2863  0.0765
 6120TIP3    H139775   1.379   6.019   3.338 -0.9223  1.3114  0.2671
 6120TIP3    H239776   1.489   6.122   3.323  1.4933 -1.2147 -0.2025
 6121TIP3   OH239777   4.874   1.502   6.054  0.1173  0.4533 -0.3961
 6121TIP3    H139778   4.937   1.467   6.117  0.8412  0.3633 -1.1519
 6121TIP3    H239779   4.893   1.595   6.050 -0.9293  0.7301  0.6246
 6122TIP3   OH239780   2.288   3.654   4.488 -0.1713  0.5331 -0.1146
 6122TIP3    H139781   2.248   3.666   4.574 -0.9083 -1.2822 -0.1467
 6122TIP3    H239782   2.215   3.655   4.426  0.3106  1.4253 -0.6966
 6123TIP3   OH239783   2.907   0.331   1.194 -0.9436  0.7814  0.7032
 6123TIP3    H139784   2.858   0.350   1.274 -0.0612  0.5179  1.3214
 6123TIP3    H239785   2.839   0.317   1.127 -1.6791  1.6039  1.2519
 6124TIP3   OH239786   6.489   0.575   0.666  0.0274  0.3602  0.9555
 6124TIP3    H139787   6.540   0.501   0.632 -1.0146  0.3324 -0.6688
 6124TIP3    H239788   6.549   0.622   0.723  1.1593 -0.9286  0.8626
 6125TIP3   OH239789   1.187   4.512  12.153 -0.1277 -0.4972  0.6084
 6125TIP3    H139790   1.153   4.600  12.172  0.3648 -0.9660  4.3630
 6125TIP3    H239791   1.113   4.466  12.113 -0.7572  1.2475 -0.3414
 6126TIP3   OH239792   1.172   0.153  11.791 -0.7422  0.2476 -0.1297
 6126TIP3    H139793   1.188   0.118  11.878  0.6547 -0.4708 -0.6479
 6126TIP3    H239794   1.252   0.133  11.742 -1.8332 -0.1343 -1.8275
 6127TIP3   OH239795   3.106   3.270   4.921  0.3030  0.4585  0.2031
 6127TIP3    H139796   3.041   3.318   4.870  0.0348  2.0791  1.9319
 6127TIP3    H239797   3.064   3.186   4.940 -1.8442  1.8387  2.1602
 6128TIP3   OH239798   5.843   0.073  13.994  0.1647  0.5779 -0.1912
 6128TIP3    H139799   5.751   0.044  13.999 -0.0318  1.3979  2.9111
 6128TIP3    H239800   5.891   0.004  14.040  1.0222  0.5307 -1.1431
 6129TIP3   OH239801   1.528   6.207   1.910 -0.0340  0.1863 -0.2822
 6129TIP3    H139802   1.623   6.221   1.911  0.1611 -0.8003  2.0172
 6129TIP3    H239803   1.495   6.263   1.980 -0.8093 -1.2000  0.5166
 6130TIP3   OH239804   0.384   2.266   6.448  0.0578  0.5535 -0.5802
 6130TIP3    H139805   0.445   2.276   6.521 -1.4023 -3.5258  1.5173
 6130TIP3    H239806   0.431   2.215   6.383 -0.4761 -1.1337  0.3037
 6131TIP3   OH239807   6.600   1.466  17.318 -0.2649  0.3513 -0.1741
 6131TIP3    H139808   6.694   1.473  17.305 -0.3153  0.6816 -0.3558
 6131TIP3    H239809   6.564   1.549  17.287 -0.9040 -0.8408 -2.8753
 6132TIP3   OH239810   6.551   5.933   3.753 -0.7747 -0.1251 -0.2638
 6132TIP3    H139811   6.548   6.028   3.738  0.4687 -0.0443 -0.0781
 6132TIP3    H239812   6.622   5.921   3.815 -1.0256 -1.1792 -0.1691
 6133TIP3   OH239813   1.694   1.020   2.718 -0.2311  0.8488  0.4975
 6133TIP3    H139814   1.759   1.041   2.651  2.5740 -0.6580  2.5345
 6133TIP3    H239815   1.713   1.079   2.791 -0.0737 -0.6326  1.7157
 6134TIP3   OH239816   1.210   3.757   2.497 -0.2188 -0.2156  0.0519
 6134TIP3    H139817   1.159   3.692   2.449  1.2767 -3.0272  2.0236
 6134TIP3    H239818   1.301   3.734   2.481  0.3673  1.1662  1.1336
 6135TIP3   OH239819   3.270   0.088   1.339 -0.2132 -0.0696 -0.4440
 6135TIP3    H139820   3.285   0.178   1.310  2.2430 -0.1193  0.4015
 6135TIP3    H239821   3.343   0.038   1.301 -2.3901 -2.1105 -2.2526
 6136TIP3   OH239822   6.687   5.846  13.584  0.6572  0.3086  0.7674
 6136TIP3    H139823   6.746   5.772  13.598  0.9903  0.7311  1.6990
 6136TIP3    H239824   6.608   5.823  13.633  0.2377 -0.0237 -0.0506
 6137TIP3   OH239825   5.444   4.840  11.655  0.6111  0.5539  0.0231
 6137TIP3    H139826   5.361   4.886  11.669 -0.9449 -2.3332  1.2274
 6137TIP3    H239827   5.424   4.776  11.586  1.3656 -1.1058  1.2804
 6138TIP3   OH239828   5.117   5.506   3.623  0.0075 -0.0180  0.7673
 6138TIP3    H139829   5.082   5.456   3.549  0.8651  1.3566 -0.6231
 6138TIP3    H239830   5.131   5.594   3.589  0.8847  0.5483  2.4438
 6139TIP3   OH239831   2.589   4.667   5.255 -0.1844 -0.1226  0.1799
 6139TIP3    H139832   2.528   4.732   5.290  0.2419  0.9377 -0.9860
 6139TIP3    H239833   2.675   4.696   5.285 -0.1223 -1.0291  0.9389
 6140TIP3   OH239834   1.332   5.802   1.513 -0.7576  0.0651  0.3537
 6140TIP3    H139835   1.273   5.744   1.561  0.2164 -1.4296 -0.1763
 6140TIP3    H239836   1.411   5.805   1.568  0.2333 -1.3736 -0.9389
 6141TIP3   OH239837   3.355   4.307   4.895 -0.8746  1.1403  0.6767
 6141TIP3    H139838   3.419   4.368   4.858 -0.5058  0.0282 -0.5809
 6141TIP3    H239839   3.348   4.332   4.987  0.1855  2.2798  0.4662
 6142TIP3   OH239840   5.387   5.054  14.988 -0.2390 -0.1543 -0.2921
 6142TIP3    H139841   5.432   5.093  15.063 -2.5891 -0.4724  1.3777
 6142TIP3    H239842   5.366   5.128  14.931  0.8062  0.1977 -0.2366
 6143TIP3   OH239843   5.996   2.453  11.780  0.6120 -0.1149 -0.4412
 6143TIP3    H139844   5.902   2.450  11.795  0.9996  1.1980  3.3876
 6143TIP3    H239845   6.034   2.410  11.857  3.1216  1.1725 -0.8567
 6144TIP3   OH239846   0.839   4.485   4.578 -0.2582  0.4682 -0.0377
 6144TIP3    H139847   0.898   4.441   4.638 -1.6388  0.4459  1.3792
 6144TIP3    H239848   0.794   4.414   4.532 -0.9979  0.4017  0.7542
 6145TIP3   OH239849   4.301   2.102  16.112  0.3066 -0.7699  0.3559
 6145TIP3    H139850   4.353   2.116  16.191  0.4964  0.8290 -0.0344
 6145TIP3    H239851   4.221   2.152  16.127  0.3553 -0.4310 -0.4865
 6146TIP3   OH239852   3.920   5.576   0.785  0.3783  0.1041  0.6679
 6146TIP3    H139853   3.889   5.486   0.794  1.4321 -0.2877  0.5405
 6146TIP3    H239854   3.846   5.630   0.813 -0.4262 -0.7819  0.2955
 6147TIP3   OH239855   6.700   3.298   5.371  0.4516  0.0471 -0.3782
 6147TIP3    H139856   6.660   3.231   5.426  1.6738  0.1366  0.6654
 6147TIP3    H239857   6.744   3.250   5.301  0.2163 -0.1531 -0.3890
 6148TIP3   OH239858   4.704   4.432  16.133 -0.2400 -0.1349 -0.0011
 6148TIP3    H139859   4.676   4.449  16.223  1.5488 -3.5856  1.3555
 6148TIP3    H239860   4.771   4.498  16.116 -1.0386  0.9531  0.9126
 6149TIP3   OH239861   1.647   6.522  12.359 -0.0403 -0.1817 -0.3046
 6149TIP3    H139862   1.586   6.447  12.366  0.5474 -0.5842  0.8074
 6149TIP3    H239863   1.731   6.482  12.335  0.6506 -0.1103  1.7905
 6150TIP3   OH239864   3.726   5.820   0.482  0.1229 -0.0749 -0.4409
 6150TIP3    H139865   3.732   5.724   0.477  0.5665 -0.1395  0.8413
 6150TIP3    H239866   3.634   5.839   0.462  0.2551 -0.6671 -1.7227
 6151TIP3   OH239867   6.519   4.126  11.699  0.0029 -0.2896 -0.5839
 6151TIP3    H139868   6.500   4.078  11.780 -1.7178  3.0977  1.2466
 6151TIP3    H239869   6.449   4.100  11.639  0.0729 -1.2800 -0.2497
 6152TIP3   OH239870   1.202   5.443  12.608 -0.1126 -0.0871  0.2662
 6152TIP3    H139871   1.167   5.487  12.685  0.1975  2.9931 -1.2019
 6152TIP3    H239872   1.292   5.475  12.600  0.1850 -1.0937 -0.8418
 6153TIP3   OH239873   3.320   5.317  12.733  0.7238  0.0734  0.3884
 6153TIP3    H139874   3.303   5.259  12.807  1.8040  0.7808  1.2272
 6153TIP3    H239875   3.396   5.280  12.690  0.2174 -0.2248 -0.2720
 6154TIP3   OH239876   3.305   2.065   1.190 -0.1574 -0.3866 -0.4748
 6154TIP3    H139877   3.381   2.090   1.137  1.1981 -4.5171 -0.8760
 6154TIP3    H239878   3.290   2.139   1.248  2.2295  1.8349 -2.4554
 6155TIP3   OH239879   3.841   0.002   5.879  0.1201  0.3818  0.5078
 6155TIP3    H139880   3.756   0.020   5.918  0.1027 -0.0357  0.6673
 6155TIP3    H239881   3.903   0.054   5.931 -0.0892  1.0763  0.0756
 6156TIP3   OH239882   4.984   4.706   1.770 -0.4050 -0.5328 -0.3762
 6156TIP3    H139883   4.931   4.644   1.819 -1.1512 -1.3924 -2.1999
 6156TIP3    H239884   4.977   4.678   1.679  0.9292  1.0020 -1.0096
 6157TIP3   OH239885   2.730   4.592  13.042 -0.3421  0.5216  0.2903
 6157TIP3    H139886   2.708   4.669  13.095  0.4490  0.2180  1.0751
 6157TIP3    H239887   2.777   4.534  13.102 -1.4225 -0.8406 -0.1231
 6158TIP3   OH239888   4.477   5.499  14.463 -0.2772  0.1722 -0.2466
 6158TIP3    H139889   4.398   5.447  14.474  0.0890 -0.0735  1.7116
 6158TIP3    H239890   4.546   5.435  14.445 -0.1733  0.1678  0.1534
 6159TIP3   OH239891   4.397   0.399  16.827 -0.0192  0.1887 -0.4335
 6159TIP3    H139892   4.351   0.469  16.781 -0.7805 -0.4059 -0.5970
 6159TIP3    H239893   4.460   0.365  16.763 -1.3179 -0.8714 -1.1864
 6160TIP3   OH239894   3.441   3.489  12.139 -0.0220  0.0562 -0.0890
 6160TIP3    H139895   3.451   3.584  12.143 -1.4313  0.2413 -0.5274
 6160TIP3    H239896   3.391   3.473  12.059  0.2878 -1.0724 -0.0839
 6161TIP3   OH239897   3.541   2.959   0.003  0.2444  0.1881 -0.4473
 6161TIP3    H139898   3.460   2.933   0.047  0.7649  0.5855  0.8145
 6161TIP3    H239899   3.585   2.876  -0.017  0.8507 -0.0199  1.5151
 6162TIP3   OH239900   1.120   3.251   0.516  0.2603 -0.6219  0.0532
 6162TIP3    H139901   1.191   3.188   0.507  0.1417 -0.9401  1.1676
 6162TIP3    H239902   1.096   3.247   0.609  0.1917  0.9963  0.1395
 6163TIP3   OH239903   5.665   5.333  13.182  0.4951 -0.5544 -0.1758
 6163TIP3    H139904   5.661   5.251  13.231 -0.9167 -2.3092 -2.9649
 6163TIP3    H239905   5.720   5.313  13.106 -0.6501  0.7362 -1.4095
 6164TIP3   OH239906   4.638   5.530  16.246 -0.2712  0.8668 -0.2666
 6164TIP3    H139907   4.626   5.498  16.156 -1.7208 -0.7404  0.4443
 6164TIP3    H239908   4.568   5.488  16.296  0.1990  2.1240  1.5393
 6165TIP3   OH239909   6.028   2.985  17.380 -1.0664  0.0135 -0.0554
 6165TIP3    H139910   6.061   3.036  17.306 -1.6770  0.1238 -0.2559
 6165TIP3    H239911   6.101   2.984  17.443 -0.4216 -0.3620 -0.7894
 6166TIP3   OH239912   2.595   0.026  16.749  0.9399  0.1248  0.1166
 6166TIP3    H139913   2.536   0.096  16.778  0.5230 -0.5802  0.9854
 6166TIP3    H239914   2.552  -0.055  16.776  0.7920 -0.5657 -1.9989
 6167TIP3   OH239915   5.505   3.660  13.705 -0.3586 -0.4765  0.0105
 6167TIP3    H139916   5.543   3.575  13.680 -2.1213 -0.8415 -1.6395
 6167TIP3    H239917   5.422   3.637  13.747 -1.7936  0.4274 -2.2000
 6168TIP3   OH239918   5.723   4.198   2.138  0.4651  0.3595 -0.1698
 6168TIP3    H139919   5.782   4.162   2.203  1.4074  0.7566 -0.7787
 6168TIP3    H239920   5.678   4.270   2.182  1.0459  0.5812  0.0674
 6169TIP3   OH239921   3.562   2.335   6.148  0.1384 -0.5021  0.5296
 6169TIP3    H139922   3.474   2.368   6.169  0.0010  0.0531 -0.8297
 6169TIP3    H239923   3.612   2.412   6.125  1.2415 -0.7235  2.0222
 6170TIP3   OH239924   4.995   4.349  17.162 -0.2375 -0.1851  0.1812
 6170TIP3    H139925   4.974   4.405  17.237 -2.4787  1.0032 -1.2083
 6170TIP3    H239926   4.939   4.272  17.174 -0.4637 -0.0758 -0.1378
 6171TIP3   OH239927   4.277   0.965   0.641 -0.0796 -0.4529 -0.4259
 6171TIP3    H139928   4.334   0.889   0.652  1.4766  0.9478  1.8378
 6171TIP3    H239929   4.188   0.929   0.647  0.5730 -2.2427 -0.7650
 6172TIP3   OH239930   3.165   3.995  13.777  0.4797  0.0644  0.0405
 6172TIP3    H139931   3.167   4.088  13.798  2.2506  0.3004 -0.9286
 6172TIP3    H239932   3.224   3.955  13.841 -1.0390 -0.5869  1.0969
 6173TIP3   OH239933   4.966   6.674  12.828 -0.0900  0.3143  0.7114
 6173TIP3    H139934   4.927   6.705  12.746 -0.0839 -0.0941  0.5527
 6173TIP3    H239935   5.041   6.622  12.801  1.0173  1.6846  1.0360
 6174TIP3   OH239936   2.039   2.520   3.993  0.1197 -0.0304 -0.0522
 6174TIP3    H139937   1.950   2.553   4.001 -0.3406 -1.0282 -0.8476
 6174TIP3    H239938   2.094   2.598   4.004 -0.6413  0.1911  3.7703
 6175TIP3   OH239939   2.235   4.847   4.979  0.0267 -0.1373  0.4776
 6175TIP3    H139940   2.309   4.809   4.930 -0.4538  0.3727 -0.6950
 6175TIP3    H239941   2.275   4.913   5.035  0.6056 -0.7815  0.8355
 6176TIP3   OH239942   4.709   0.421  13.256  0.4633 -0.1013 -0.4792
 6176TIP3    H139943   4.681   0.509  13.230  0.6260 -0.3351 -1.5097
 6176TIP3    H239944   4.727   0.377  13.173 -0.0428 -1.2570  0.0059
 6177TIP3   OH239945   1.101   4.279  15.359 -0.2726  0.1951 -0.0050
 6177TIP3    H139946   1.147   4.337  15.419  0.4402 -0.9989  0.6399
 6177TIP3    H239947   1.152   4.284  15.278  1.4999 -1.5966  0.8843
 6178TIP3   OH239948   2.504   4.361  16.968  0.3442  0.2318  0.2675
 6178TIP3    H139949   2.541   4.355  17.056 -0.5759 -0.8294  0.6101
 6178TIP3    H239950   2.567   4.413  16.919  1.1083  0.4459  1.4287
 6179TIP3   OH239951   2.603   1.262   4.250 -0.2271  0.2781  0.3416
 6179TIP3    H139952   2.596   1.177   4.206 -0.0174  1.1721 -1.5279
 6179TIP3    H239953   2.693   1.289   4.235 -0.3534  0.9235  0.7394
 6180TIP3   OH239954   2.387   2.070   2.214  0.7544 -0.1883  0.7059
 6180TIP3    H139955   2.451   2.138   2.234  0.3756 -0.1482  1.8140
 6180TIP3    H239956   2.302   2.111   2.230  0.1161  0.9065 -3.9019
 6181TIP3   OH239957   0.922   5.846  15.292 -0.5873  0.8523 -0.1271
 6181TIP3    H139958   0.980   5.851  15.368  2.0645 -0.2141 -1.9465
 6181TIP3    H239959   0.875   5.763  15.304  1.3385 -0.3804 -0.5671
 6182TIP3   OH239960   0.358   5.279  15.156 -0.0556 -0.0849 -0.0204
 6182TIP3    H139961   0.314   5.205  15.113 -1.9543  0.0778  1.4804
 6182TIP3    H239962   0.295   5.351  15.151  1.0744  0.9469  0.0347
 6183TIP3   OH239963   2.283   2.263  12.110 -0.4482 -0.5739 -0.1788
 6183TIP3    H139964   2.198   2.266  12.153  0.2944 -0.4354  1.3248
 6183TIP3    H239965   2.268   2.210  12.031 -1.3411 -2.8475  1.4209
 6184TIP3   OH239966   2.280   2.887   5.796  0.0534  0.3300 -0.0270
 6184TIP3    H139967   2.232   2.853   5.872 -0.0775 -2.6145 -1.2732
 6184TIP3    H239968   2.372   2.873   5.819  0.0226 -0.3220 -0.2731
 6185TIP3   OH239969   1.185   0.228  17.363 -0.3597  0.0113 -0.1220
 6185TIP3    H139970   1.100   0.247  17.323 -0.7891  0.5518  0.9985
 6185TIP3    H239971   1.230   0.173  17.300 -0.8195  1.2220 -1.5493
 6186TIP3   OH239972   0.962   1.123  16.085 -0.2052 -0.8051 -0.0911
 6186TIP3    H139973   0.868   1.118  16.103 -0.3159  0.5765 -0.1632
 6186TIP3    H239974   0.992   1.197  16.138  0.4647  0.0022 -1.5590
 6187TIP3   OH239975   6.668   2.420   1.240  0.2414 -0.1059  0.1857
 6187TIP3    H139976   6.764   2.416   1.239  0.2796  0.3407  1.0059
 6187TIP3    H239977   6.641   2.329   1.225  0.7341  0.0908 -2.2638
 6188TIP3   OH239978   1.670   4.567   5.499 -0.0571 -0.2933  0.2821
 6188TIP3    H139979   1.712   4.653   5.494 -1.0918  0.2132 -0.3452
 6188TIP3    H239980   1.709   4.517   5.427  0.2863 -0.2207  0.4174
 6189TIP3   OH239981   6.386   4.519  16.714  0.2620 -0.0125 -0.2341
 6189TIP3    H139982   6.472   4.534  16.752  0.4516 -0.8226 -0.3146
 6189TIP3    H239983   6.346   4.606  16.708  0.6584  0.2558  0.7741
 6190TIP3   OH239984   1.944   3.265  17.306  0.0361  0.4696  0.1918
 6190TIP3    H139985   2.015   3.229  17.252  0.6544  1.6139  0.2166
 6190TIP3    H239986   1.914   3.342  17.257 -1.5185 -0.2600 -0.0486
 6191TIP3   OH239987   5.656   5.806  13.585  0.2746 -0.3085  0.3782
 6191TIP3    H139988   5.571   5.850  13.579  2.8606  5.6631 -0.4234
 6191TIP3    H239989   5.675   5.778  13.495 -0.7559 -1.7165  0.5712
 6192TIP3   OH239990   6.569   4.691   6.131  0.0122 -0.2073 -0.7331
 6192TIP3    H139991   6.541   4.721   6.218  0.9676  0.2417 -0.5732
 6192TIP3    H239992   6.638   4.627   6.148 -0.8549 -1.2979 -1.1320
 6193TIP3   OH239993   0.983   4.373  12.510  0.1409  0.0724  0.0184
 6193TIP3    H139994   0.936   4.301  12.468 -0.0423 -0.9352  1.8311
 6193TIP3    H239995   0.914   4.423  12.555  0.5166  0.1388  0.5196
 6194TIP3   OH239996   5.212   3.872  11.480 -0.5622 -0.1801 -0.1571
 6194TIP3    H139997   5.222   3.811  11.553 -1.1753  1.0126  0.9506
 6194TIP3    H239998   5.301   3.886  11.448 -0.2224 -0.2918  0.7089
 6195TIP3   OH239999   0.395   0.724   2.857  0.4097  0.1614 -0.0997
 6195TIP3    H140000   0.409   0.734   2.763  0.4897 -0.0439 -0.1093
 6195TIP3    H240001   0.478   0.751   2.896  0.7784 -0.8718 -0.1469
 6196TIP3   OH240002   2.120   2.945  12.607 -0.1967 -0.5906 -0.4039
 6196TIP3    H140003   2.205   2.989  12.599 -0.6519  0.2388 -0.8370
 6196TIP3    H240004   2.128   2.865  12.556  0.4427 -0.6977 -0.1376
 6197TIP3   OH240005   3.944   1.573   0.852  0.0415 -0.1550 -0.2168
 6197TIP3    H140006   3.991   1.604   0.929 -0.5414  1.0997 -0.3531
 6197TIP3    H240007   4.010   1.571   0.782  0.3106 -0.2253  0.0392
 6198TIP3   OH240008   5.074   3.726   4.078 -0.6394  0.0044  0.3257
 6198TIP3    H140009   5.128   3.766   4.010 -1.2224 -0.5399 -0.4792
 6198TIP3    H240010   5.127   3.733   4.158  0.1634  0.4306 -0.2274
 6199TIP3   OH240011   5.452   2.392   5.887  0.1640  0.3986 -0.1680
 6199TIP3    H140012   5.456   2.342   5.806  0.8283 -0.9896  0.6649
 6199TIP3    H240013   5.470   2.482   5.862 -0.2065  0.0814 -1.6233
 6200TIP3   OH240014   2.632   4.822  15.401 -0.1138 -0.2317 -0.0013
 6200TIP3    H140015   2.565   4.775  15.352  1.3735 -1.1308 -1.2848
 6200TIP3    H240016   2.633   4.778  15.487 -0.3047 -1.0569 -0.4054
 6201TIP3   OH240017   0.427   4.207  12.601 -0.1690  0.5700  0.5027
 6201TIP3    H140018   0.368   4.232  12.672 -1.4476  2.7718 -1.1928
 6201TIP3    H240019   0.377   4.225  12.521  1.1500 -1.9365 -1.0150
 6202TIP3   OH240020   0.414   5.431  14.172  0.0668 -0.2245 -0.3935
 6202TIP3    H140021   0.429   5.337  14.183 -0.4861 -0.0375  3.2591
 6202TIP3    H240022   0.479   5.472  14.229 -1.4555  1.4600  0.2296
 6203TIP3   OH240023   6.182   5.400  14.962  0.0221 -0.4619 -0.0191
 6203TIP3    H140024   6.147   5.332  14.904  0.3739 -0.1412 -0.6201
 6203TIP3    H240025   6.267   5.366  14.989  1.3006  0.7107 -2.2076
 6204TIP3   OH240026   5.626   3.483  14.570  0.5045 -0.7575  0.0356
 6204TIP3    H140027   5.564   3.543  14.611  0.0505 -2.2170  1.5777
 6204TIP3    H240028   5.701   3.482  14.629  1.5727  0.1438 -1.2536
 6205TIP3   OH240029   4.963   3.976   1.116  0.3969  0.1413 -0.0916
 6205TIP3    H140030   5.013   4.044   1.161  1.8622  0.2344 -1.7505
 6205TIP3    H240031   4.909   3.936   1.185 -1.2212  3.5183  0.8122
 6206TIP3   OH240032   6.007   1.779   2.272  0.6734 -0.1964  0.2309
 6206TIP3    H140033   5.941   1.714   2.250  1.1467  0.3327 -3.4106
 6206TIP3    H240034   5.963   1.841   2.329 -0.6553 -2.0536  1.3276
 6207TIP3   OH240035   0.403   0.114   6.112 -0.3825 -0.1540 -0.1845
 6207TIP3    H140036   0.403   0.018   6.113  0.1912 -0.1728 -0.9706
 6207TIP3    H240037   0.340   0.137   6.044 -0.4819  0.0282 -0.0309
 6208TIP3   OH240038   4.551   6.201  15.567 -0.0395 -0.1540  0.0652
 6208TIP3    H140039   4.474   6.178  15.619 -0.2453  0.3884 -0.0002
 6208TIP3    H240040   4.532   6.287  15.531  1.3042  0.7892  1.4740
 6209TIP3   OH240041   3.916   4.851  15.417  0.1175 -0.1265 -0.4617
 6209TIP3    H140042   3.979   4.914  15.454  0.8621 -0.1123 -1.6900
 6209TIP3    H240043   3.938   4.768  15.459 -1.0362  0.4381  1.3637
 6210TIP3   OH240044   5.294   6.141   1.470 -0.2785  0.7175 -0.3312
 6210TIP3    H140045   5.388   6.126   1.472 -0.0939  1.5436 -1.3917
 6210TIP3    H240046   5.256   6.071   1.523  0.7429 -1.3190 -2.1086
 6211TIP3   OH240047   6.126   4.650  13.387  0.5439 -0.1179 -0.7619
 6211TIP3    H140048   6.184   4.725  13.371 -0.7270  0.7950 -1.3427
 6211TIP3    H240049   6.108   4.615  13.300 -1.6014  1.1067 -0.9158
 6212TIP3   OH240050   0.896   2.344   1.582  0.5719  0.6604 -0.2494
 6212TIP3    H140051   0.847   2.416   1.620 -1.1740 -1.4491  1.8272
 6212TIP3    H240052   0.838   2.310   1.513 -0.1002 -0.6254  0.8967
 6213TIP3   OH240053   2.031   4.463   4.592 -0.3743  0.3572 -0.8459
 6213TIP3    H140054   2.061   4.510   4.670 -0.6945  2.4283 -1.8917
 6213TIP3    H240055   2.103   4.473   4.529 -0.2620 -0.9988 -0.9755
 6214TIP3   OH240056   3.314   1.562  17.158 -0.1852  0.5174 -0.1056
 6214TIP3    H140057   3.281   1.578  17.247 -2.8259  2.6932 -1.3112
 6214TIP3    H240058   3.380   1.630  17.145  0.7019 -0.2282  0.3644
 6215TIP3   OH240059   0.017   6.294   6.720 -0.4107 -0.1885 -0.2705
 6215TIP3    H140060  -0.053   6.268   6.779  0.0531 -1.3088 -0.1816
 6215TIP3    H240061   0.030   6.217   6.664  0.5098  0.1366 -0.5133
 6216TIP3   OH240062   5.546   2.761   5.338 -0.3108  0.1320 -0.8432
 6216TIP3    H140063   5.472   2.706   5.363 -1.1825  0.5965 -2.2850
 6216TIP3    H240064   5.532   2.843   5.386  0.3081 -0.4076  0.3190
 6217TIP3   OH240065   0.815   2.473  17.150  0.1492 -0.0529 -0.5754
 6217TIP3    H140066   0.796   2.391  17.196  0.0166 -0.4717 -1.3620
 6217TIP3    H240067   0.796   2.455  17.058  0.4867  0.7473 -0.8184
 6218TIP3   OH240068   2.361   3.280  15.107 -0.5593  0.2619 -0.1532
 6218TIP3    H140069   2.297   3.339  15.147 -2.7769 -1.3908 -1.0361
 6218TIP3    H240070   2.308   3.215  15.060  1.7038 -2.4125  0.7081
 6219TIP3   OH240071   2.011   1.867  12.394  0.1917 -0.5937  0.0327
 6219TIP3    H140072   2.036   1.954  12.422  1.6502 -1.4219  1.4661
 6219TIP3    H240073   2.060   1.853  12.313  0.8276 -0.4735  0.3879
 6220TIP3   OH240074   0.882   5.136  13.903 -0.7188  0.2898 -0.2156
 6220TIP3    H140075   0.803   5.190  13.901 -0.3497  0.8301 -0.2998
 6220TIP3    H240076   0.865   5.072  13.972 -1.4446  0.0692 -0.5903
 6221TIP3   OH240077   5.813   4.142  11.909 -0.1006  0.5427 -0.6902
 6221TIP3    H140078   5.870   4.185  11.845  0.3775 -1.0823 -1.4197
 6221TIP3    H240079   5.837   4.182  11.993  0.9750  1.0361 -1.2069
 6222TIP3   OH240080   0.254   1.955   2.518  0.5083  0.5731 -0.1538
 6222TIP3    H140081   0.331   1.936   2.571  0.2855 -1.6936 -0.5150
 6222TIP3    H240082   0.209   2.026   2.563  1.0986 -0.2828  1.8734
 6223TIP3   OH240083   2.956   0.792  13.651 -0.3388 -0.3666 -0.7661
 6223TIP3    H140084   3.046   0.784  13.683  0.3826 -1.4270 -2.8291
 6223TIP3    H240085   2.930   0.702  13.630 -2.1452 -0.1604  0.3416
 6224TIP3   OH240086   3.268   4.810  15.970  0.3708 -0.5653  0.0048
 6224TIP3    H140087   3.325   4.807  15.893  1.4705 -0.2217  0.7817
 6224TIP3    H240088   3.310   4.873  16.028 -1.5940  0.8374  0.0090
 6225TIP3   OH240089   5.016   5.381   6.698 -0.1730 -0.6268  0.5545
 6225TIP3    H140090   5.080   5.440   6.659 -0.5424 -0.7055 -0.1931
 6225TIP3    H240091   5.067   5.323   6.754  0.5860 -1.3829 -0.8557
 6226TIP3   OH240092   1.084   6.285  14.377  0.2925 -0.2243  0.2508
 6226TIP3    H140093   1.032   6.225  14.323 -0.2550 -0.1245  0.6590
 6226TIP3    H240094   1.120   6.229  14.446  1.1017 -0.3780 -0.2759
 6227TIP3   OH240095   3.823   0.567   6.168 -0.3894 -0.5118  0.3413
 6227TIP3    H140096   3.905   0.598   6.206  0.1977 -0.3419 -1.0070
 6227TIP3    H240097   3.764   0.643   6.172  0.9433  0.8485 -2.6726
 6228TIP3   OH240098   5.583   2.328   3.592  0.7703  0.3087 -0.0589
 6228TIP3    H140099   5.594   2.339   3.686  2.1721  0.2726 -0.1961
 6228TIP3    H240100   5.551   2.239   3.581 -0.9707  0.8330  0.4594
 6229TIP3   OH240101   0.880   2.692  12.813  0.0029  0.3960  0.2790
 6229TIP3    H140102   0.857   2.694  12.905  0.4553  0.6192  0.3877
 6229TIP3    H240103   0.797   2.705  12.767 -0.3194 -0.3379  0.6381
 6230TIP3   OH240104   1.420   5.017   0.173  0.2733 -0.5612 -0.4403
 6230TIP3    H140105   1.464   5.047   0.253 -0.0260  0.6037 -0.6989
 6230TIP3    H240106   1.490   4.979   0.120  0.7715  0.2037 -0.3448
 6231TIP3   OH240107   4.790   6.226  14.036  0.1301 -0.0710 -0.0746
 6231TIP3    H140108   4.795   6.207  14.130  1.3426 -0.5276 -0.2125
 6231TIP3    H240109   4.700   6.255  14.022  0.1975  0.9820  1.4164
 6232TIP3   OH240110   2.241   4.377  13.804  0.5533  0.0030  0.3373
 6232TIP3    H140111   2.222   4.422  13.722  2.2037  2.6613  1.2674
 6232TIP3    H240112   2.306   4.311  13.782  0.8465  0.5682 -0.5397
 6233TIP3   OH240113   5.883   4.403   2.019  0.3136 -0.2188  0.0297
 6233TIP3    H140114   5.819   4.332   2.017  1.7084 -1.5370 -1.8510
 6233TIP3    H240115   5.847   4.469   1.961  0.5976 -0.9481 -1.0085
 6234TIP3   OH240116   5.847   2.644  15.129 -0.6970  0.0529  0.0269
 6234TIP3    H140117   5.911   2.715  15.129 -1.6415  0.9196  0.0360
 6234TIP3    H240118   5.886   2.577  15.073  1.0234 -0.2043  1.4213
 6235TIP3   OH240119   5.017   4.789  16.700 -0.8297 -0.1528 -0.3164
 6235TIP3    H140120   5.060   4.711  16.667 -1.3882 -0.4934 -0.2557
 6235TIP3    H240121   4.945   4.805  16.639 -0.3684  0.6645 -0.6646
 6236TIP3   OH240122   0.835   0.289   4.358 -0.4402 -0.2965  0.0160
 6236TIP3    H140123   0.910   0.306   4.301 -0.5517  1.0676  0.2520
 6236TIP3    H240124   0.839   0.195   4.375 -0.4925 -0.7683 -2.3385
 6237TIP3   OH240125   6.633   3.198   0.854  0.4739 -0.2079 -0.2329
 6237TIP3    H140126   6.701   3.220   0.790 -0.4857  1.1264 -0.8523
 6237TIP3    H240127   6.551   3.205   0.805 -0.2742  0.6216  1.0755
 6238TIP3   OH240128   0.613   3.033   0.757 -0.3437 -0.0101  0.1426
 6238TIP3    H140129   0.568   2.971   0.814  0.3932 -1.1988 -0.5346
 6238TIP3    H240130   0.564   3.115   0.767 -1.7011 -0.8535  0.5958
 6239TIP3   OH240131   1.421   4.861  13.460  0.5734  0.4230 -0.0328
 6239TIP3    H140132   1.512   4.883  13.482  0.7256 -0.2766  0.0333
 6239TIP3    H240133   1.397   4.792  13.521  1.1334 -1.8365 -2.2214
 6240TIP3   OH240134   0.665   0.215  17.135  0.0150 -0.2627  0.0608
 6240TIP3    H140135   0.680   0.302  17.097  1.4607 -1.4797 -2.3541
 6240TIP3    H240136   0.591   0.180  17.085 -0.0381 -0.7438  0.4703
 6241TIP3   OH240137   4.745   0.640  14.222 -0.0439 -0.2511 -0.0227
 6241TIP3    H140138   4.770   0.611  14.310 -0.4802  0.4060  0.3307
 6241TIP3    H240139   4.812   0.703  14.197  0.7033 -1.2637 -0.6402
 6242TIP3   OH240140   3.787   5.757   5.457  0.2758  0.4836  0.1997
 6242TIP3    H140141   3.702   5.748   5.501  0.9452 -1.1144  1.2900
 6242TIP3    H240142   3.766   5.782   5.367 -1.3801 -0.5378  0.2705
 6243TIP3   OH240143   6.423   2.573  13.424 -0.0506 -0.4747  0.1471
 6243TIP3    H140144   6.431   2.520  13.503  0.6931 -3.8572 -2.0130
 6243TIP3    H240145   6.458   2.519  13.354  1.6138  3.2680 -2.2644
 6244TIP3   OH240146   6.490   5.552   2.294 -0.0257  0.1951 -0.2563
 6244TIP3    H140147   6.395   5.544   2.292 -0.2121  0.7543  2.5099
 6244TIP3    H240148   6.506   5.638   2.332  1.6007  0.1280 -0.7332
 6245TIP3   OH240149   5.286   2.697   5.189 -0.1979 -0.0043 -0.4481
 6245TIP3    H140150   5.213   2.735   5.236  0.0673  0.9608 -0.8034
 6245TIP3    H240151   5.290   2.606   5.220 -0.1650  0.5408  1.2067
 6246TIP3   OH240152   5.987   4.928   2.990  0.1252  0.1320  0.2573
 6246TIP3    H140153   5.895   4.914   2.964 -0.7332  2.0746  1.9397
 6246TIP3    H240154   5.983   5.003   3.049  3.0472  1.3707 -0.9649
 6247TIP3   OH240155   3.191   1.056   4.100  0.1114  0.3834  0.1387
 6247TIP3    H140156   3.177   1.147   4.126 -1.6710  0.0571  0.4490
 6247TIP3    H240157   3.251   1.021   4.165 -0.9969  0.7299  1.3956
 6248TIP3   OH240158   0.686   0.397   4.561 -0.0408 -0.1912  0.3840
 6248TIP3    H140159   0.758   0.390   4.498  2.1329  1.3980  2.4938
 6248TIP3    H240160   0.610   0.362   4.515  1.9410 -1.4587 -2.1819
 6249TIP3   OH240161   2.928   1.733   2.422 -0.0286 -0.2110 -0.3080
 6249TIP3    H140162   2.960   1.727   2.512  0.6628 -0.4482 -0.5665
 6249TIP3    H240163   2.837   1.701   2.427 -0.8319  2.0072  0.7221
 6250TIP3   OH240164   2.230   1.818   0.070 -0.2515  0.4061  0.1342
 6250TIP3    H140165   2.306   1.871   0.092 -0.8978  1.0445  0.8706
 6250TIP3    H240166   2.186   1.803   0.154 -1.3025  0.6168 -0.3688
 6251TIP3   OH240167   2.825   4.432  11.697 -0.0105  0.2203  0.1238
 6251TIP3    H140168   2.760   4.502  11.687  1.4188  1.5074 -0.6948
 6251TIP3    H240169   2.784   4.355  11.657 -1.3364  0.7718  0.3704
 6252TIP3   OH240170   0.892   2.512  13.732  0.6657  0.5512  0.2084
 6252TIP3    H140171   0.939   2.475  13.806  1.6837 -2.1201 -1.6265
 6252TIP3    H240172   0.828   2.572  13.772  0.0729 -1.9228  3.3496
 6253TIP3   OH240173   1.197   6.054  12.583 -0.0394  0.9572 -0.4510
 6253TIP3    H140174   1.179   6.046  12.489 -1.7641  2.2554 -0.2862
 6253TIP3    H240175   1.135   5.994  12.624  0.9066  0.1801 -0.1371
 6254TIP3   OH240176   5.072   3.432  16.350 -0.3416  1.0501  0.5499
 6254TIP3    H140177   5.023   3.435  16.432  1.2966  0.5436  1.6054
 6254TIP3    H240178   5.111   3.519  16.342  1.5180  0.3809  1.6695
 6255TIP3   OH240179   1.519   5.444  17.312 -0.2115  0.2020 -0.9133
 6255TIP3    H140180   1.470   5.380  17.364 -0.8851  1.2057 -0.2568
 6255TIP3    H240181   1.597   5.464  17.365  1.1886 -1.6987 -2.1431
 6256TIP3   OH240182   1.459   4.213   2.695 -0.2069 -0.2390 -0.2640
 6256TIP3    H140183   1.418   4.168   2.621  0.7853 -1.0765 -0.3181
 6256TIP3    H240184   1.528   4.154   2.724 -0.8312 -0.1054  1.5951
 6257TIP3   OH240185   3.820   5.699  14.235  0.3382  0.1593 -0.2558
 6257TIP3    H140186   3.832   5.785  14.276 -1.3915 -0.2096  1.1767
 6257TIP3    H240187   3.908   5.671  14.212  1.4157  0.7149  2.6974
 6258TIP3   OH240188   2.897   2.613  11.989  0.0173  0.0677  0.1815
 6258TIP3    H140189   2.876   2.700  12.022  0.7914 -0.4023  2.0541
 6258TIP3    H240190   2.987   2.620  11.957 -0.3715  0.2580 -0.9138
 6259TIP3   OH240191   0.245   4.456   6.066 -0.7606  0.1259 -0.2409
 6259TIP3    H140192   0.242   4.538   6.115  0.7374  0.0816 -0.0185
 6259TIP3    H240193   0.335   4.425   6.076 -0.1612  0.4231 -3.4750
 6260TIP3   OH240194   4.154   4.565   1.862  0.2461  0.3013  0.0655
 6260TIP3    H140195   4.094   4.503   1.821  0.8345 -0.0814 -0.2349
 6260TIP3    H240196   4.103   4.605   1.932 -1.0619  1.5837 -1.5165
 6261TIP3   OH240197   3.617   6.596   5.079  0.1462 -0.0844  0.1849
 6261TIP3    H140198   3.685   6.663   5.075  0.1575 -0.1200 -0.4965
 6261TIP3    H240199   3.535   6.645   5.089 -0.0909  0.2335 -2.5147
 6262TIP3   OH240200   5.071   0.988   5.003  0.2495  0.5212  0.1086
 6262TIP3    H140201   5.155   1.023   5.031  0.1971  2.3136 -1.7043
 6262TIP3    H240202   5.092   0.926   4.934  0.1350 -0.1801  0.6903
 6263TIP3   OH240203   5.542   2.615  15.247  0.3761  0.3509  0.2542
 6263TIP3    H140204   5.611   2.682  15.249  1.5828 -0.7382 -1.7943
 6263TIP3    H240205   5.460   2.665  15.246  1.2088  1.7570  0.1204
 6264TIP3   OH240206   1.901   0.157   2.908 -0.6498 -0.4599 -0.2605
 6264TIP3    H140207   1.881   0.216   2.834 -1.2080 -0.8530 -0.4316
 6264TIP3    H240208   1.834   0.178   2.973  0.0968  0.1820  0.3148
 6265TIP3   OH240209   5.776   5.296   3.609  0.0457  0.3342 -0.0306
 6265TIP3    H140210   5.788   5.220   3.552 -0.4832 -0.2825  0.6499
 6265TIP3    H240211   5.719   5.354   3.559 -0.3338 -0.1527 -0.1781
 6266TIP3   OH240212   1.008   5.916  11.521  0.1470 -0.0992 -0.2110
 6266TIP3    H140213   1.072   5.986  11.536  1.2699 -1.0751 -0.2967
 6266TIP3    H240214   0.996   5.875  11.607 -0.8788  0.4851 -0.0613
 6267TIP3   OH240215   2.666   0.289   2.870 -0.3486 -0.4710 -0.0158
 6267TIP3    H140216   2.668   0.194   2.870  0.4732 -0.4633 -0.4938
 6267TIP3    H240217   2.747   0.315   2.827  0.4881  0.4731  1.9837
 6268TIP3   OH240218   0.210   0.208   4.063  0.5998  0.1319  0.6535
 6268TIP3    H140219   0.281   0.272   4.074 -1.2722  2.7770 -1.2626
 6268TIP3    H240220   0.130   0.261   4.059 -1.2996 -2.5210  0.5900
 6269TIP3   OH240221   2.691   2.788   4.730 -0.6465 -0.2269 -0.0332
 6269TIP3    H140222   2.651   2.745   4.806 -0.9132  1.6779  0.9728
 6269TIP3    H240223   2.785   2.785   4.748 -0.7262  0.5452  0.6087
 6270TIP3   OH240224   0.165   2.640  16.269  0.1111 -0.5588 -0.1517
 6270TIP3    H140225   0.080   2.649  16.312 -0.6647  0.1729 -1.7417
 6270TIP3    H240226   0.150   2.579  16.197  0.3665  1.1400 -1.7223
 6271TIP3   OH240227   4.263   1.520   5.986 -0.0062  0.0581 -0.0682
 6271TIP3    H140228   4.244   1.457   5.916  0.5930  0.6567 -0.7813
 6271TIP3    H240229   4.332   1.576   5.950  0.2865  0.3970  0.9950
 6272TIP3   OH240230   5.582   1.623  15.943  0.0139  0.0610 -0.4916
 6272TIP3    H140231   5.522   1.697  15.933 -0.6668 -0.4004  0.0526
 6272TIP3    H240232   5.606   1.623  16.035 -3.0806 -2.6363  0.5182
 6273TIP3   OH240233   0.716   4.621   6.670 -0.4594 -0.8675 -0.1523
 6273TIP3    H140234   0.779   4.627   6.599  0.7984 -0.0218  0.9847
 6273TIP3    H240235   0.748   4.549   6.725 -0.1458 -0.0902  0.7138
 6274TIP3   OH240236   5.206   1.466   1.609  0.1130 -0.5601  0.7321
 6274TIP3    H140237   5.114   1.449   1.587 -0.1024 -0.1229  1.2601
 6274TIP3    H240238   5.205   1.484   1.703  0.1638  3.0096  0.1810
 6275TIP3   OH240239   2.219   0.217   1.710 -0.8745  0.7977 -0.2333
 6275TIP3    H140240   2.128   0.246   1.707 -1.3039 -0.4991 -0.5991
 6275TIP3    H240241   2.247   0.216   1.619 -1.0540 -0.4099 -0.2935
 6276TIP3   OH240242   4.448   4.841  13.263  0.5008 -0.5181  0.3833
 6276TIP3    H140243   4.536   4.821  13.231 -0.2350 -0.7695 -1.6027
 6276TIP3    H240244   4.420   4.916  13.210 -0.8375 -1.0395  0.3179
 6277TIP3   OH240245   2.564   2.096   0.724  0.1184 -0.0119  0.3214
 6277TIP3    H140246   2.495   2.139   0.673 -1.1648 -0.7081  1.3859
 6277TIP3    H240247   2.551   2.003   0.709  0.5731 -0.1676  0.8592
 6278TIP3   OH240248   1.049   0.958   4.510 -0.0300  0.4295 -0.4189
 6278TIP3    H140249   0.996   0.893   4.463 -1.2891  2.4026 -1.9379
 6278TIP3    H240250   1.012   0.960   4.598 -2.0169  1.1639 -1.2158
 6279TIP3   OH240251   3.528   6.180  14.725  0.2647  0.0928  0.1487
 6279TIP3    H140252   3.446   6.137  14.700 -0.3384  0.4692  1.3695
 6279TIP3    H240253   3.527   6.264  14.678  1.1245 -0.8816 -1.7123
 6280TIP3   OH240254   2.423   1.650  15.616 -0.5310 -0.5955 -0.0221
 6280TIP3    H140255   2.484   1.630  15.688 -1.5632 -0.1167  1.0077
 6280TIP3    H240256   2.345   1.685  15.660 -1.1108 -0.1291 -1.3963
 6281TIP3   OH240257   3.029   3.179   2.602  0.5153  0.1548  0.0893
 6281TIP3    H140258   3.083   3.145   2.531 -1.0730 -0.2277 -1.0084
 6281TIP3    H240259   2.952   3.121   2.604 -0.1224  0.9796  1.2142
 6282TIP3   OH240260   0.853   0.754  16.904 -0.1863 -0.1389  0.0941
 6282TIP3    H140261   0.795   0.830  16.902 -0.3767 -0.2914 -0.1520
 6282TIP3    H240262   0.902   0.758  16.822 -0.8016 -0.7520 -0.3110
 6283TIP3   OH240263   4.794   5.477   5.961 -0.3783  0.0005 -0.0737
 6283TIP3    H140264   4.829   5.479   5.872  2.1369  3.0462  0.8027
 6283TIP3    H240265   4.719   5.537   5.959  0.9091  1.6913  0.1968
 6284TIP3   OH240266   1.909   3.999   0.811  0.3347 -0.4352  0.6589
 6284TIP3    H140267   1.859   4.031   0.885  2.1022 -0.0459  1.7547
 6284TIP3    H240268   1.870   4.042   0.735 -1.3044 -0.5860  1.3740
 6285TIP3   OH240269   3.559   3.127  17.179  0.2098  0.3217  0.0755
 6285TIP3    H140270   3.577   3.110  17.271  0.5356 -2.9628 -0.4858
 6285TIP3    H240271   3.467   3.154  17.177  0.4686  1.4236  1.3973
 6286TIP3   OH240272   2.666   3.954   3.960  0.1873 -0.4557  0.2118
 6286TIP3    H140273   2.691   3.951   4.053 -1.5065 -1.1602  0.6703
 6286TIP3    H240274   2.579   3.916   3.957 -0.6884  1.4976 -1.3929
 6287TIP3   OH240275   3.805   0.318   0.235  0.2763  0.1566 -0.6500
 6287TIP3    H140276   3.876   0.329   0.172 -0.1263 -1.4013 -1.3938
 6287TIP3    H240277   3.736   0.377   0.204 -0.0183 -0.7852 -1.8246
 6288TIP3   OH240278   6.566   0.997  11.050 -0.1095  0.2418  0.3785
 6288TIP3    H140279   6.637   1.034  11.104  0.2328  0.2690 -0.0823
 6288TIP3    H240280   6.597   0.910  11.027 -0.0723  0.3796 -0.1080
 6289TIP3   OH240281   2.686   4.043   3.160 -0.6513  0.2022  0.3423
 6289TIP3    H140282   2.632   4.056   3.238 -0.6203 -2.5761  0.9022
 6289TIP3    H240283   2.686   3.949   3.145  4.0929 -0.0794  0.4446
 6290TIP3   OH240284   5.385   5.756  15.521  0.2517  0.4472 -0.1532
 6290TIP3    H140285   5.431   5.822  15.470 -1.2515  1.5926 -0.1154
 6290TIP3    H240286   5.313   5.728  15.464  0.2357 -0.3727  0.2564
 6291TIP3   OH240287   5.499   5.846   1.570  0.5516  0.2788  0.0711
 6291TIP3    H140288   5.483   5.861   1.663 -4.0124  2.9734 -0.8362
 6291TIP3    H240289   5.459   5.761   1.551 -0.0402  0.5080  0.2912
 6292TIP3   OH240290   3.242   6.677  12.577  0.7307 -0.5481 -0.4183
 6292TIP3    H140291   3.276   6.766  12.570  0.8296 -0.5178  0.3896
 6292TIP3    H240292   3.150   6.685  12.549  1.5655 -0.8173 -3.6223
 6293TIP3   OH240293   5.342   0.155   4.781  0.0937  0.0672  0.0952
 6293TIP3    H140294   5.308   0.195   4.700 -0.7383  1.4507  1.0838
 6293TIP3    H240295   5.363   0.229   4.837  2.5545 -0.8334  0.4516
 6294TIP3   OH240296   4.384   1.377   5.426  0.5612 -0.0497  0.2255
 6294TIP3    H140297   4.335   1.429   5.363  0.5906  1.0463  1.0825
 6294TIP3    H240298   4.404   1.437   5.498  2.4547 -0.6794  0.2893
 6295TIP3   OH240299   6.597   3.796   2.820  0.3204  0.2547  0.2944
 6295TIP3    H140300   6.567   3.796   2.729  0.0326 -2.0761  0.3360
 6295TIP3    H240301   6.683   3.838   2.817 -0.1366  1.1740 -0.8550
 6296TIP3   OH240302   0.018   4.896   5.397  0.0306  0.8978 -0.4446
 6296TIP3    H140303   0.017   4.831   5.467  0.7919  0.5870 -0.7114
 6296TIP3    H240304   0.043   4.977   5.440  2.7606  0.2847 -0.6488
 6297TIP3   OH240305   2.076   2.452   0.819  0.2212 -0.1441  0.1018
 6297TIP3    H140306   2.095   2.391   0.748  0.7229  1.2668 -1.0246
 6297TIP3    H240307   2.161   2.475   0.855 -0.0108 -0.6073  0.9618
 6298TIP3   OH240308   2.909   1.426   1.831 -0.7217  0.2977 -1.0124
 6298TIP3    H140309   2.876   1.368   1.899  2.5186 -2.0752 -1.2356
 6298TIP3    H240310   2.873   1.391   1.750  0.2237 -0.6809 -1.0275
 6299TIP3   OH240311   5.824   4.014   4.286  0.1663 -0.0179  0.6253
 6299TIP3    H140312   5.781   4.031   4.202  1.9572  0.3766 -0.2656
 6299TIP3    H240313   5.896   3.956   4.264  0.3471 -0.3311  1.9957
 6300TIP3   OH240314   3.389   1.346  11.186 -0.3392  0.1036 -0.4334
 6300TIP3    H140315   3.371   1.284  11.256 -0.3538 -0.3711 -0.8521
 6300TIP3    H240316   3.484   1.357  11.188 -0.4072  0.6448  0.1201
 6301TIP3   OH240317   0.352   3.827  15.688 -0.2831 -0.0876 -0.8650
 6301TIP3    H140318   0.432   3.818  15.637  0.1891 -0.9461 -0.0095
 6301TIP3    H240319   0.288   3.772  15.642  0.0070 -0.4818 -0.8041
 6302TIP3   OH240320   2.708   3.396  14.732 -0.2952  0.6167  0.1973
 6302TIP3    H140321   2.643   3.395  14.662 -0.0534  1.9960 -0.0788
 6302TIP3    H240322   2.657   3.392  14.812 -0.6350  0.2578 -0.0306
 6303TIP3   OH240323   6.366   1.087  15.261  0.5320 -0.0259 -0.6213
 6303TIP3    H140324   6.419   1.032  15.319 -1.5935 -2.2726 -0.6576
 6303TIP3    H240325   6.312   1.138  15.321  1.1101  0.6079 -0.6224
 6304TIP3   OH240326   1.695   0.848   1.288 -0.8945  0.1656 -0.4376
 6304TIP3    H140327   1.659   0.829   1.374 -2.7227  0.8819 -1.0004
 6304TIP3    H240328   1.619   0.856   1.231  0.0924  2.4615 -1.5708
 6305TIP3   OH240329   4.455   4.064   4.223  0.6259 -0.1670  0.0154
 6305TIP3    H140330   4.490   3.997   4.164 -2.3455 -0.8017 -1.2145
 6305TIP3    H240331   4.463   4.025   4.310  0.4908 -1.4277 -0.5102
 6306TIP3   OH240332   1.460   1.322   4.904  0.3444 -0.0366  0.3469
 6306TIP3    H140333   1.543   1.282   4.929  0.1165 -0.7471  0.0100
 6306TIP3    H240334   1.447   1.393   4.967  1.7001  0.7648 -0.2234
 6307TIP3   OH240335   3.772   1.272   0.521  0.3253  0.4654  0.4274
 6307TIP3    H140336   3.766   1.238   0.610 -0.3704 -2.2464 -0.5593
 6307TIP3    H240337   3.682   1.293   0.497  0.1890 -0.9166 -0.3503
 6308TIP3   OH240338   5.051   2.309   6.149  1.0447 -0.3844 -0.1098
 6308TIP3    H140339   5.092   2.263   6.222  0.0092 -1.5269 -0.2068
 6308TIP3    H240340   5.116   2.372   6.120  2.2675 -1.3364  0.4898
 6309TIP3   OH240341   6.504   3.903   0.681 -0.4985 -0.0987  0.0150
 6309TIP3    H140342   6.521   3.958   0.605  1.4261  0.5547  0.8536
 6309TIP3    H240343   6.477   3.964   0.749 -0.6466 -0.4883  0.3101
 6310TIP3   OH240344   4.616   6.304   1.399 -0.3160  0.1310  0.1014
 6310TIP3    H140345   4.662   6.220   1.400 -0.0237  0.2746 -0.7514
 6310TIP3    H240346   4.524   6.281   1.411 -0.4692 -0.4937 -1.8750
 6311TIP3   OH240347   3.522   4.718   3.077 -0.2856  1.0428  0.3737
 6311TIP3    H140348   3.566   4.643   3.117  0.1852 -0.8381 -3.1896
 6311TIP3    H240349   3.450   4.680   3.027  0.5612  2.7453 -2.3915
 6312TIP3   OH240350   2.435   0.919  15.609 -0.3337 -0.1473 -0.2449
 6312TIP3    H140351   2.349   0.880  15.620 -0.2189 -0.0229  1.4411
 6312TIP3    H240352   2.426   0.977  15.533 -1.1678 -1.5690 -1.2760
 6313TIP3   OH240353   0.809   6.074   0.852  0.0532 -0.2856 -0.1156
 6313TIP3    H140354   0.843   5.987   0.833 -1.5981 -0.9171 -0.3785
 6313TIP3    H240355   0.887   6.128   0.864  1.1348 -1.3651 -1.8531
 6314TIP3   OH240356   3.228   5.961   1.318 -0.1107  0.1314  0.0150
 6314TIP3    H140357   3.260   6.049   1.297 -0.2136  0.0529 -0.4975
 6314TIP3    H240358   3.293   5.925   1.378 -0.5825  0.9179  1.0039
 6315TIP3   OH240359   4.897   0.902  13.512 -0.0671 -0.4962 -0.0289
 6315TIP3    H140360   4.971   0.880  13.456 -1.0864 -1.0376 -1.2114
 6315TIP3    H240361   4.860   0.981  13.473 -1.3172 -1.3704 -0.7180
 6316TIP3   OH240362   4.500   2.932  11.965 -0.3895 -0.6309 -0.0971
 6316TIP3    H140363   4.447   2.916  11.887  2.2282  0.4758 -2.2667
 6316TIP3    H240364   4.502   3.028  11.973 -0.7437 -0.7306  1.4535
 6317TIP3   OH240365   5.818   6.116   1.534  0.0994 -0.0484 -0.3204
 6317TIP3    H140366   5.892   6.143   1.479  0.6209  1.0428  0.8854
 6317TIP3    H240367   5.837   6.024   1.555  1.0434  0.1677 -0.1634
 6318TIP3   OH240368   6.203   0.053   0.988 -0.1917  0.1019  0.7943
 6318TIP3    H140369   6.258   0.012   1.055 -0.5656  0.6309  1.4323
 6318TIP3    H240370   6.264   0.074   0.917 -0.0728 -2.0563  0.1792
 6319TIP3   OH240371   0.438   4.335   1.130 -0.0424  0.4279 -0.1380
 6319TIP3    H140372   0.439   4.322   1.225 -1.4181  1.0978 -0.0080
 6319TIP3    H240373   0.429   4.430   1.119 -1.2046  0.2503 -0.9124
 6320TIP3   OH240374   2.607   2.415  12.809  0.1813 -0.3645 -0.4720
 6320TIP3    H140375   2.538   2.475  12.782  0.1298  0.4330  1.2706
 6320TIP3    H240376   2.561   2.338  12.841  0.0225  0.3660  1.1586
 6321TIP3   OH240377   3.218   0.132   0.607 -0.1250 -0.6079  0.7827
 6321TIP3    H140378   3.200   0.162   0.696 -0.1043  2.4035 -0.1326
 6321TIP3    H240379   3.145   0.166   0.555  2.7097  3.0911 -1.3027
 6322TIP3   OH240380   4.593   2.937   4.557  0.2739  0.0732 -0.0440
 6322TIP3    H140381   4.672   2.908   4.511  0.7950  0.0405  0.8487
 6322TIP3    H240382   4.531   2.956   4.487  1.4033  1.0811 -0.8138
 6323TIP3   OH240383   1.110   3.974  11.583 -0.2050 -0.3442  0.2083
 6323TIP3    H140384   1.043   4.031  11.621 -1.2756 -0.7122 -1.0443
 6323TIP3    H240385   1.177   3.967  11.651 -0.7177  1.2431  0.9339
 6324TIP3   OH240386   0.608   5.724   1.477  0.3360 -0.1905 -0.5186
 6324TIP3    H140387   0.625   5.665   1.403 -0.8951  1.7199 -2.4505
 6324TIP3    H240388   0.657   5.803   1.456  0.7971  0.0485  1.3002
 6325TIP3   OH240389   5.317   6.292   3.803 -0.3626 -0.5576 -0.0034
 6325TIP3    H140390   5.396   6.307   3.750  0.2067  1.1387  1.2509
 6325TIP3    H240391   5.258   6.363   3.777 -1.3219 -1.5385 -0.5827
 6326TIP3   OH240392   0.593   4.323  16.480 -0.4369  0.2736 -0.0215
 6326TIP3    H140393   0.681   4.316  16.444 -0.8626 -1.0377 -0.8842
 6326TIP3    H240394   0.539   4.352  16.406 -1.0552 -0.9107 -0.0581
 6327TIP3   OH240395   4.400   5.289  11.858  0.6624 -0.0679  0.5831
 6327TIP3    H140396   4.417   5.321  11.770 -2.3080 -0.7811 -0.3652
 6327TIP3    H240397   4.448   5.206  11.864  0.4585 -0.2764 -0.5654
 6328TIP3   OH240398   3.506   1.878  17.349 -0.9129  0.8948  0.3862
 6328TIP3    H140399   3.517   1.972  17.359 -1.5485  1.0550 -0.3618
 6328TIP3    H240400   3.411   1.864  17.357 -0.9018  0.4148 -0.2485
 6329TIP3   OH240401   5.908   4.598  15.160 -0.1596 -0.1640 -0.4569
 6329TIP3    H140402   5.822   4.626  15.189  0.8672  1.1783  1.4341
 6329TIP3    H240403   5.927   4.653  15.084 -0.0196  1.2388  0.5528
 6330TIP3   OH240404   1.626   0.563   0.322  0.0701 -0.3073  0.1313
 6330TIP3    H140405   1.583   0.478   0.316  1.4271 -0.9658 -0.9052
 6330TIP3    H240406   1.639   0.590   0.231 -1.3751  1.5980  0.4300
 6331TIP3   OH240407   0.220   2.184  12.478  0.3268 -0.0891  0.2814
 6331TIP3    H140408   0.197   2.271  12.512  2.0035  0.3391  0.4225
 6331TIP3    H240409   0.294   2.156  12.533 -1.5698 -2.6122  1.7335
 6332TIP3   OH240410   6.746   3.152  11.365  0.1153  0.1752 -0.1678
 6332TIP3    H140411   6.759   3.071  11.415  0.6416  0.1436 -0.3514
 6332TIP3    H240412   6.831   3.169  11.326  1.2561  2.9561  3.0332
 6333TIP3   OH240413   0.137   5.042   1.644  0.0286  0.2479  0.1100
 6333TIP3    H140414   0.066   5.064   1.705 -0.0523 -1.8881  0.8886
 6333TIP3    H240415   0.217   5.065   1.691 -0.1034  1.7552 -0.3758
 6334TIP3   OH240416   2.321   4.497  11.669  0.0539  0.4930  0.0823
 6334TIP3    H140417   2.241   4.533  11.629  0.7020  0.4645 -1.2877
 6334TIP3    H240418   2.291   4.420  11.716 -0.8920  1.0905  0.4935
 6335TIP3   OH240419   6.704   6.206   1.573  0.2923  0.0910  0.1325
 6335TIP3    H140420   6.731   6.294   1.599  0.9957 -0.5904  1.8803
 6335TIP3    H240421   6.610   6.202   1.594  0.1136  0.6092 -0.5439
 6336TIP3   OH240422   4.659   2.048   5.329 -0.3677  0.1586  0.6932
 6336TIP3    H140423   4.657   1.978   5.263 -0.4893 -0.3229  1.1987
 6336TIP3    H240424   4.651   2.002   5.413  1.2696  0.6461  1.1410
 6337TIP3   OH240425   2.216   6.724   1.913  0.1861 -0.2133 -1.0564
 6337TIP3    H140426   2.222   6.666   1.836 -0.1175 -1.1494 -0.3913
 6337TIP3    H240427   2.208   6.812   1.876 -1.1146 -0.7423 -2.1395
 6338TIP3   OH240428   2.574   0.075  14.395 -0.4134 -0.9644  0.5801
 6338TIP3    H140429   2.607   0.019  14.325  0.2443 -0.3288  0.3647
 6338TIP3    H240430   2.479   0.070  14.388 -0.3544 -0.7277 -0.5149
 6339TIP3   OH240431   3.020   3.171  10.842  0.0073 -0.6069 -0.0647
 6339TIP3    H140432   2.938   3.135  10.807 -1.4855  0.8666  1.7017
 6339TIP3    H240433   3.019   3.149  10.935  0.8024  0.8481  0.3249
 6340TIP3   OH240434   2.663   3.810   2.781  0.8389  0.3269  0.0895
 6340TIP3    H140435   2.674   3.892   2.829 -0.3151  2.4852 -3.0340
 6340TIP3    H240436   2.748   3.795   2.739  1.7876 -1.4607  2.3814
 6341TIP3   OH240437   1.963   2.583   1.714 -0.1157 -0.4353  0.1978
 6341TIP3    H140438   2.032   2.607   1.777 -0.0280  3.5745 -1.1443
 6341TIP3    H240439   2.008   2.527   1.651  1.1694 -0.2140  0.8611
 6342TIP3   OH240440   6.581   3.409   5.691  0.3552 -0.2368  0.4858
 6342TIP3    H140441   6.489   3.427   5.674  0.2604 -0.3065  0.9287
 6342TIP3    H240442   6.587   3.399   5.786  0.9579  0.5672  0.5495
 6343TIP3   OH240443   5.922   0.355  12.410 -0.2201  0.0352  0.7268
 6343TIP3    H140444   5.988   0.320  12.471  0.1435 -0.0468  0.2867
 6343TIP3    H240445   5.958   0.439  12.382 -0.7081  0.3925  1.1438
 6344TIP3   OH240446   3.679   6.240   4.524 -0.3464  0.4697  0.3273
 6344TIP3    H140447   3.770   6.268   4.536 -0.6372  0.6771  2.3725
 6344TIP3    H240448   3.683   6.145   4.523 -0.0405  0.4872 -0.2169
 6345TIP3   OH240449   1.437   4.430   4.440 -0.1394  0.5904 -0.3020
 6345TIP3    H140450   1.453   4.362   4.505 -0.3487 -0.0580 -0.9085
 6345TIP3    H240451   1.492   4.405   4.366 -1.9792 -0.2742 -1.4515
 6346TIP3   OH240452   1.637   5.892  13.592 -0.0824  0.0259 -0.0598
 6346TIP3    H140453   1.660   5.799  13.591  1.3253  0.3393  0.6419
 6346TIP3    H240454   1.682   5.928  13.516  2.6287  0.7921  1.7580
 6347TIP3   OH240455   4.582   0.295  12.426 -0.1121 -0.6820  0.3939
 6347TIP3    H140456   4.618   0.314  12.513  2.0480 -1.2097 -0.3278
 6347TIP3    H240457   4.591   0.377  12.378 -1.6905 -0.2678  0.7425
 6348TIP3   OH240458   1.117   3.274   1.950 -0.3980 -0.0540 -0.1886
 6348TIP3    H140459   1.108   3.294   2.043 -1.0974 -0.3201 -0.1943
 6348TIP3    H240460   1.030   3.245   1.923  0.1501 -1.3640 -0.5953
 6349TIP3   OH240461   4.764   4.002  16.779  0.0643 -0.1748 -0.3369
 6349TIP3    H140462   4.808   3.918  16.782 -0.0004 -0.2117 -0.4278
 6349TIP3    H240463   4.824   4.062  16.824  0.7761  0.0469 -1.5515
 6350TIP3   OH240464   0.882   1.005   1.521 -0.8631  0.1671  0.1456
 6350TIP3    H140465   0.928   0.998   1.605  0.9953 -1.0112 -0.8905
 6350TIP3    H240466   0.807   0.946   1.529 -1.5540  1.1706  1.4470
 6351TIP3   OH240467   4.086   2.767   4.318 -0.1050  0.0620 -0.5881
 6351TIP3    H140468   4.152   2.712   4.276  0.3040  1.6543 -2.1461
 6351TIP3    H240469   4.136   2.822   4.379  0.1250  1.5279 -2.0391
 6352TIP3   OH240470   1.535   5.850   1.232  0.3286 -0.0034  0.2517
 6352TIP3    H140471   1.459   5.842   1.175  1.3302 -0.1252 -1.1027
 6352TIP3    H240472   1.498   5.850   1.321 -0.9937 -3.9269 -0.1376
 6353TIP3   OH240473   6.509   1.077  15.012 -0.3844 -0.1071 -0.0628
 6353TIP3    H140474   6.457   1.089  15.092 -3.3284  0.0364 -1.8720
 6353TIP3    H240475   6.507   0.982  14.997 -0.5452 -0.0571 -0.3727
 6354TIP3   OH240476   5.308   2.848  17.215  0.1491 -0.1189  0.8026
 6354TIP3    H140477   5.364   2.773  17.194  0.9904  0.6900  0.0536
 6354TIP3    H240478   5.370   2.920  17.228 -0.5997  0.3227  2.1665
 6355TIP3   OH240479   2.403   4.796   1.305  0.2861  0.1206  0.7405
 6355TIP3    H140480   2.456   4.866   1.342 -1.3499  1.8690 -0.0194
 6355TIP3    H240481   2.422   4.799   1.211  0.7158 -0.9417  0.7853
 6356TIP3   OH240482   3.704   1.615   6.196 -0.0954  0.4914  0.1201
 6356TIP3    H140483   3.688   1.554   6.268  2.7279  1.3505  1.6293
 6356TIP3    H240484   3.788   1.587   6.160 -0.2781  1.6098 -1.2293
 6357TIP3   OH240485   3.345   3.428   4.815 -0.7454  0.5859  0.0515
 6357TIP3    H140486   3.406   3.415   4.887 -0.2079  1.3923 -0.2470
 6357TIP3    H240487   3.286   3.352   4.820 -0.3410  0.3140  0.9489
 6358TIP3   OH240488   1.362   6.447   2.568 -0.0735  0.2459  0.1371
 6358TIP3    H140489   1.311   6.515   2.613  0.1184  0.4396  0.0632
 6358TIP3    H240490   1.447   6.449   2.612 -0.0538  0.0825  0.1051
 6359TIP3   OH240491   4.580   1.861   3.034  0.0731 -0.1550  0.9370
 6359TIP3    H140492   4.530   1.931   2.992  0.1320 -1.1398 -0.9115
 6359TIP3    H240493   4.521   1.786   3.033  1.0990 -0.9906 -0.1264
 6360TIP3   OH240494   6.551   1.252   4.099 -0.0122 -0.2077 -0.0254
 6360TIP3    H140495   6.532   1.331   4.151  0.9057  0.4281 -0.6299
 6360TIP3    H240496   6.523   1.180   4.155 -0.3137  0.5218  0.7960
 6361TIP3   OH240497   4.640   5.678  11.656 -0.1148 -0.0089  0.0558
 6361TIP3    H140498   4.578   5.743  11.622  0.7528  0.1793 -1.2638
 6361TIP3    H240499   4.726   5.712  11.631  0.3609 -1.6900 -0.7607
 6362TIP3   OH240500   1.103   6.084  12.304 -0.1942  0.7220 -0.9594
 6362TIP3    H140501   1.062   6.170  12.300  0.2759  1.4872  4.3693
 6362TIP3    H240502   1.044   6.031  12.357  0.7802 -1.5307 -1.9553
 6363TIP3   OH240503   6.141   3.492  10.451  0.1754 -0.2034 -0.3836
 6363TIP3    H140504   6.090   3.496  10.371  1.0729 -2.7712 -1.1870
 6363TIP3    H240505   6.229   3.468  10.423  0.7502 -0.2207  1.2798
 6364TIP3   OH240506   4.644   4.756   1.686  0.1847 -0.6748  0.2151
 6364TIP3    H140507   4.580   4.801   1.740  2.5837  1.2958  1.6116
 6364TIP3    H240508   4.716   4.818   1.677  1.4240 -2.3248 -2.2651
 6365TIP3   OH240509   4.535   1.516   6.308  0.5742 -0.0646 -0.4035
 6365TIP3    H140510   4.573   1.575   6.242  1.2499 -0.4981 -0.4132
 6365TIP3    H240511   4.576   1.431   6.290  0.5403 -0.2527  0.3946
 6366TIP3   OH240512   2.481   2.956   0.852  0.1539  0.2761 -0.0897
 6366TIP3    H140513   2.495   2.903   0.930 -0.2696  1.2550  0.6660
 6366TIP3    H240514   2.442   2.895   0.789 -0.0894 -0.3706  0.6720
 6367TIP3   OH240515   1.094   2.275   2.274  0.6401 -0.8330  0.2236
 6367TIP3    H140516   1.138   2.336   2.215 -2.2159  1.3933  0.1926
 6367TIP3    H240517   1.060   2.331   2.344 -1.3222 -2.5105  0.6859
 6368TIP3   OH240518   5.700   2.720   0.198  0.1678 -0.0611  0.6194
 6368TIP3    H140519   5.792   2.746   0.201  0.2015 -0.2154  2.9179
 6368TIP3    H240520   5.686   2.673   0.281 -1.8671 -0.4524  0.1110
 6369TIP3   OH240521   4.528   5.898  17.267  0.0402  0.0419  0.0556
 6369TIP3    H140522   4.608   5.849  17.284  0.3374  1.0708  1.9137
 6369TIP3    H240523   4.554   5.964  17.202  0.4563 -0.2507 -0.0756
 6370TIP3   OH240524   5.103   4.317   5.522 -0.1995  0.3258 -0.2885
 6370TIP3    H140525   5.019   4.292   5.560 -0.5877 -0.8125 -1.8123
 6370TIP3    H240526   5.146   4.368   5.591 -1.7256  0.1205  0.8697
 6371TIP3   OH240527   1.469   4.390   1.974 -0.1030 -0.1229 -0.1840
 6371TIP3    H140528   1.398   4.336   2.010  0.7075 -0.3289  1.1881
 6371TIP3    H240529   1.469   4.469   2.027 -0.3401  0.6030 -1.2396
 6372TIP3   OH240530   3.518   4.582   0.062  0.2898 -0.2463 -0.1029
 6372TIP3    H140531   3.451   4.546   0.003 -1.2900  1.1400  0.7520
 6372TIP3    H240532   3.585   4.617   0.003 -2.0356  2.6261 -1.3369
 6373TIP3   OH240533   2.468   6.164  17.141  0.0234  0.1573 -0.9327
 6373TIP3    H140534   2.541   6.102  17.134 -0.0276 -0.2310  1.2147
 6373TIP3    H240535   2.510   6.250  17.138  0.6170 -0.0603  0.3477
 6374TIP3   OH240536   1.069   4.785   1.682 -0.4309  0.0328 -0.0688
 6374TIP3    H140537   1.055   4.741   1.598 -1.2978  0.4599 -0.1602
 6374TIP3    H240538   0.999   4.850   1.687  0.6401  1.2057  0.2113
 6375TIP3   OH240539   2.346   0.228   5.785 -0.2617  0.0139 -0.2034
 6375TIP3    H140540   2.402   0.151   5.782 -1.6553 -1.0574  0.1634
 6375TIP3    H240541   2.343   0.252   5.878 -0.8031 -0.2586 -0.1444
 6376TIP3   OH240542   0.013   0.993   2.042  0.2243 -0.0082 -0.2925
 6376TIP3    H140543  -0.024   0.955   1.962  2.3531  1.1983 -1.9938
 6376TIP3    H240544   0.026   1.085   2.020 -0.4102  0.6754  2.0005
 6377TIP3   OH240545   1.346   2.175   1.504  0.1555  0.0698 -0.2231
 6377TIP3    H140546   1.326   2.260   1.545 -0.2606  0.2255 -0.7420
 6377TIP3    H240547   1.264   2.149   1.462 -0.6854 -2.0450  2.4546
 6378TIP3   OH240548   3.865   6.059  11.950 -0.1736 -0.3183 -0.2635
 6378TIP3    H140549   3.949   6.017  11.930 -0.9588 -1.5414 -1.1350
 6378TIP3    H240550   3.830   6.008  12.023  0.7885  1.5670  1.6485
 6379TIP3   OH240551   1.838   3.675  16.786  0.2792  0.5096 -0.7334
 6379TIP3    H140552   1.786   3.628  16.721  1.4032 -1.1632 -0.4909
 6379TIP3    H240553   1.925   3.635  16.780  1.1144  2.1217 -0.0164
 6380TIP3   OH240554   2.587   4.501  12.203  0.2386  0.4253 -0.1485
 6380TIP3    H140555   2.540   4.448  12.138  0.8868 -1.1148  0.6016
 6380TIP3    H240556   2.606   4.583  12.157 -1.8649  0.5233 -0.9462
 6381TIP3   OH240557   6.367   5.662  16.007 -0.7289 -0.4799  0.1049
 6381TIP3    H140558   6.297   5.599  16.022 -0.4648 -0.4312  1.7819
 6381TIP3    H240559   6.325   5.736  15.963 -1.1414 -1.5682 -1.4152
 6382TIP3   OH240560   3.389   4.885   1.949 -0.2745  0.5021 -0.4392
 6382TIP3    H140561   3.426   4.856   1.865  0.4701 -0.4316  0.1914
 6382TIP3    H240562   3.398   4.980   1.948 -0.1227  0.4885 -1.3504
 6383TIP3   OH240563   4.997   4.146  16.880  0.0502 -0.2559 -0.4772
 6383TIP3    H140564   5.060   4.178  16.814 -2.4287  2.3337 -1.8068
 6383TIP3    H240565   5.031   4.180  16.963  0.4432  1.1846 -1.1751
 6384TIP3   OH240566   0.892   6.249  17.316 -0.4346  0.9568 -0.4889
 6384TIP3    H140567   0.854   6.263  17.402 -0.8539  1.3313 -0.7267
 6384TIP3    H240568   0.983   6.224  17.333 -0.2435  1.9637  0.0349
 6385TIP3   OH240569   2.254   1.270  17.259 -0.5991  0.3119  0.2686
 6385TIP3    H140570   2.182   1.321  17.295 -0.4710  0.6125  0.1030
 6385TIP3    H240571   2.272   1.310  17.174  0.6215  1.0839  0.8539
 6386TIP3   OH240572   3.987   1.764   6.278 -0.3117  0.3540 -0.2519
 6386TIP3    H140573   4.061   1.802   6.229 -0.6737  0.7135 -0.5221
 6386TIP3    H240574   4.005   1.670   6.278 -1.6342  0.0071 -3.3769
 6387TIP3   OH240575   0.489   1.271  12.700  0.1150  0.5477  0.4165
 6387TIP3    H140576   0.551   1.198  12.693  0.1066  0.4849  0.9525
 6387TIP3    H240577   0.417   1.246  12.642  0.8747  0.9274 -0.7390
 6388TIP3   OH240578   1.576   2.894  13.665 -0.2197 -0.6366 -0.0670
 6388TIP3    H140579   1.659   2.938  13.685 -0.5115  0.0421 -0.3511
 6388TIP3    H240580   1.511   2.940  13.717 -0.6723 -0.1302 -1.0760
 6389TIP3   OH240581   4.378   0.657   5.469  0.7789  0.3177 -0.3376
 6389TIP3    H140582   4.365   0.624   5.558  1.9052  0.5151 -0.0867
 6389TIP3    H240583   4.448   0.721   5.477 -0.2424  1.5728 -1.1058
 6390TIP3   OH240584   3.047   3.756  15.419  0.5027 -0.1991 -0.2637
 6390TIP3    H140585   3.095   3.719  15.493 -0.8797 -1.8959 -0.1324
 6390TIP3    H240586   2.961   3.715  15.423 -0.8035  2.2551 -0.8334
 6391TIP3   OH240587   5.164   5.568  16.400 -0.2643 -0.6185 -0.1196
 6391TIP3    H140588   5.072   5.542  16.393 -0.4125 -0.0000 -0.5347
 6391TIP3    H240589   5.162   5.652  16.444  0.1194 -0.7049  0.0605
 6392TIP3   OH240590   2.786   0.205  10.869  0.2294  0.0528  0.1426
 6392TIP3    H140591   2.849   0.276  10.859 -0.4160  0.5687 -0.3885
 6392TIP3    H240592   2.832   0.139  10.921  1.1047  0.5241 -0.0134
 6393TIP3   OH240593   2.442   5.362   4.805 -0.1400 -0.1037  0.0431
 6393TIP3    H140594   2.528   5.330   4.833 -0.1683 -1.0543 -0.8701
 6393TIP3    H240595   2.462   5.416   4.728 -0.4700 -1.7938 -1.2909
 6394TIP3   OH240596   1.594   3.685  12.337  0.6774 -0.2671  0.6435
 6394TIP3    H140597   1.606   3.630  12.260 -1.2284 -0.1333  0.2021
 6394TIP3    H240598   1.661   3.753  12.330  0.7690 -0.4751 -0.6854
 6395TIP3   OH240599   1.714   3.241  17.064  0.3756  0.3459 -1.0772
 6395TIP3    H140600   1.796   3.195  17.079 -0.7619 -1.7849 -1.1015
 6395TIP3    H240601   1.681   3.205  16.982 -1.5657 -0.3654 -0.0353
 6396TIP3   OH240602   4.439   2.712  16.347 -0.1727  0.1426 -0.0048
 6396TIP3    H140603   4.374   2.782  16.345 -0.2919  0.0706  0.9478
 6396TIP3    H240604   4.437   2.679  16.437 -0.1284 -1.0909 -0.4254
 6397TIP3   OH240605   2.600   1.055  10.800  0.5271  0.1481 -0.0349
 6397TIP3    H140606   2.668   1.028  10.738  0.2807  0.7372 -0.5701
 6397TIP3    H240607   2.648   1.084  10.877  0.8030 -2.4398  0.8660
 6398TIP3   OH240608   5.382   6.000  15.727 -0.4292  0.0418  0.1711
 6398TIP3    H140609   5.309   5.955  15.683  0.3925 -1.1976  0.0245
 6398TIP3    H240610   5.435   5.929  15.762 -0.0687  0.9729  1.5588
 6399TIP3   OH240611   6.328   1.093  15.833  0.2911 -0.0911  0.1796
 6399TIP3    H140612   6.265   1.021  15.840  0.2294  0.0044  0.6496
 6399TIP3    H240613   6.276   1.169  15.808  0.3344 -0.1725 -0.1691
 6400TIP3   OH240614   3.942   2.748   5.381  0.2712 -0.3713 -0.0706
 6400TIP3    H140615   3.931   2.695   5.460  3.6370 -2.4685 -0.8249
 6400TIP3    H240616   3.961   2.685   5.312  2.1391  1.6704 -1.5353
 6401TIP3   OH240617   4.260   0.101  11.514  0.5911  0.5355 -0.7974
 6401TIP3    H140618   4.173   0.113  11.553 -0.3487  0.7431 -2.8251
 6401TIP3    H240619   4.283   0.188  11.480  2.3948  0.9055  1.1463
 6402TIP3   OH240620   0.465   3.106  14.347  0.2449 -0.4611 -0.1829
 6402TIP3    H140621   0.554   3.095  14.378  1.0086  2.3056 -1.0701
 6402TIP3    H240622   0.467   3.076  14.256  1.0498  1.9436 -1.0450
 6403TIP3   OH240623   5.143   4.714  13.177  0.5863  0.0321 -0.2393
 6403TIP3    H140624   5.238   4.701  13.183  0.4003 -0.7136  1.8849
 6403TIP3    H240625   5.106   4.637  13.219 -0.9139  1.2333  0.7313
 6404TIP3   OH240626   2.822   1.920   4.291 -0.5623 -0.1351 -0.0424
 6404TIP3    H140627   2.849   1.931   4.382  2.5432 -0.5986 -0.8049
 6404TIP3    H240628   2.802   2.009   4.262  3.7436  0.9700 -0.2817
 6405TIP3   OH240629   6.301   5.677   2.936 -0.6149 -0.0667  0.5897
 6405TIP3    H140630   6.354   5.756   2.937 -1.7678  0.7274  0.4871
 6405TIP3    H240631   6.365   5.605   2.941  0.5019  0.8265 -0.3081
 6406TIP3   OH240632   3.871   5.647  14.542  0.0137 -0.5593  0.6339
 6406TIP3    H140633   3.949   5.597  14.518 -0.4929 -0.8957 -0.3900
 6406TIP3    H240634   3.878   5.728  14.492 -1.3605 -1.5271 -1.2612
 6407TIP3   OH240635   3.797   6.600   2.406  0.0135 -0.9364  0.3100
 6407TIP3    H140636   3.767   6.662   2.472 -0.0583 -1.8872  1.1911
 6407TIP3    H240637   3.889   6.586   2.426  1.0989  1.6449 -2.1320
 6408TIP3   OH240638   2.669   4.038   1.213  0.3634 -0.0827  0.0781
 6408TIP3    H140639   2.689   4.128   1.185 -1.2736  0.2160 -0.2451
 6408TIP3    H240640   2.673   3.988   1.132  0.1423 -0.0924  0.0752
 6409TIP3   OH240641   5.268   3.764   4.851 -0.0602 -0.1413  0.8056
 6409TIP3    H140642   5.202   3.722   4.796  0.6617 -0.0639 -0.1354
 6409TIP3    H240643   5.346   3.769   4.796  0.7522 -0.2635  1.9161
 6410TIP3   OH240644   3.830   1.432   3.546  0.2088 -0.9246 -0.5584
 6410TIP3    H140645   3.877   1.390   3.474  1.5295 -1.3129  0.4998
 6410TIP3    H240646   3.852   1.525   3.537  0.8202 -1.0422 -0.3520
 6411TIP3   OH240647   4.722   4.984  13.431  0.0045  0.2891  0.3784
 6411TIP3    H140648   4.677   5.065  13.454  0.8908  0.7889  0.3921
 6411TIP3    H240649   4.688   4.919  13.493 -0.2121  0.8031  0.8054
 6412TIP3   OH240650   3.230   1.044  16.323  0.5609 -0.0732  0.2249
 6412TIP3    H140651   3.151   1.018  16.370  0.3399  1.5623  0.8562
 6412TIP3    H240652   3.290   0.970  16.333 -0.6071 -1.0210  0.4067
 6413TIP3   OH240653   4.949   2.428  15.820 -0.0535 -0.3135 -0.5346
 6413TIP3    H140654   4.912   2.503  15.867  0.8132 -0.4413  0.3724
 6413TIP3    H240655   5.027   2.462  15.777  0.3778 -0.7049 -0.0705
 6414TIP3   OH240656   4.566   4.713  11.383 -0.1168  0.0189  0.5611
 6414TIP3    H140657   4.660   4.731  11.372 -0.2474  0.3849 -0.0342
 6414TIP3    H240658   4.553   4.628  11.341 -0.5712  1.3104 -2.1563
 6415TIP3   OH240659   0.627   5.485  12.538 -0.9427 -0.9795 -0.1062
 6415TIP3    H140660   0.656   5.514  12.625 -2.5020  0.5309 -0.0545
 6415TIP3    H240661   0.533   5.470  12.548 -1.1676 -0.6439 -1.5857
 6416TIP3   OH240662   4.648   3.169   2.882  0.2475  0.0626 -0.2769
 6416TIP3    H140663   4.582   3.233   2.856  0.9045  0.9581  0.2026
 6416TIP3    H240664   4.614   3.131   2.963  1.5605  2.5963  1.6255
 6417TIP3   OH240665   5.430   5.434  16.192  0.3595 -0.1393 -0.1112
 6417TIP3    H140666   5.374   5.364  16.225  0.7306 -0.1159  0.5961
 6417TIP3    H240667   5.394   5.457  16.106 -0.3278 -0.5483  0.0691
 6418TIP3   OH240668   4.398   3.833  15.309 -0.2071 -0.2924  0.0814
 6418TIP3    H140669   4.363   3.920  15.288 -1.4861 -0.3420  1.7810
 6418TIP3    H240670   4.492   3.842  15.298 -0.5100  0.3368 -3.0209
 6419TIP3   OH240671   0.432   1.528   5.731 -0.0091 -0.0893  0.1619
 6419TIP3    H140672   0.498   1.476   5.683 -0.0319  0.7677 -0.8303
 6419TIP3    H240673   0.352   1.475   5.725  0.1339 -0.2674 -0.2419
 6420TIP3   OH240674   4.758   0.152  11.016  0.1512  0.2930 -0.1638
 6420TIP3    H140675   4.670   0.139  11.050  0.8663 -2.1857  0.9434
 6420TIP3    H240676   4.750   0.133  10.922 -0.2202 -1.6698  0.2231
 6421TIP3   OH240677   5.690   5.444  16.598 -0.3384  0.3984 -0.0367
 6421TIP3    H140678   5.697   5.410  16.509 -0.6056 -0.2601  0.1914
 6421TIP3    H240679   5.602   5.481  16.603  0.6756  3.1533 -0.9693
 6422TIP3   OH240680   6.010   3.829  14.424  0.2204 -0.2416  0.1146
 6422TIP3    H140681   5.936   3.769  14.432  0.8432 -0.9138  0.9427
 6422TIP3    H240682   5.989   3.901  14.483 -0.0151 -0.1660 -0.0585
 6423TIP3   OH240683   5.398   2.452  16.412  0.1537 -0.1387 -0.3560
 6423TIP3    H140684   5.449   2.405  16.477 -0.0237  1.6525  1.1687
 6423TIP3    H240685   5.454   2.526  16.387  0.0615 -0.5783 -2.0055
 6424TIP3   OH240686   3.233   0.961  15.928  0.8174  0.4107  0.1486
 6424TIP3    H140687   3.201   0.894  15.989 -0.4477  0.2184 -0.6858
 6424TIP3    H240688   3.179   1.037  15.945  1.4357  0.8344  0.2508
 6425TIP3   OH240689   1.416   0.556   3.378  0.2099 -0.2887 -0.2509
 6425TIP3    H140690   1.348   0.533   3.316  1.0687  0.7502 -1.6383
 6425TIP3    H240691   1.495   0.511   3.346  1.2148  2.0601 -1.3533
 6426TIP3   OH240692   0.148   4.494   0.894  0.3842 -0.2956  0.6496
 6426TIP3    H140693   0.088   4.499   0.819 -0.1867  1.6544  1.1593
 6426TIP3    H240694   0.091   4.499   0.971  1.0898  0.2518  1.1549
 6427TIP3   OH240695   1.569   1.821  15.339 -0.3049 -0.2020  0.5767
 6427TIP3    H140696   1.631   1.860  15.402  0.8979 -0.2469 -0.5381
 6427TIP3    H240697   1.609   1.737  15.315 -1.7278 -1.0978  1.2023
 6428TIP3   OH240698   6.154   0.956   0.099  0.8849 -0.4915 -0.3614
 6428TIP3    H140699   6.158   0.925   0.190  0.8420 -1.1366 -0.5753
 6428TIP3    H240700   6.218   1.027   0.095  1.2246 -0.7694  0.0590
 6429TIP3   OH240701   3.381   0.654   4.964  0.6750  0.3422 -0.3348
 6429TIP3    H140702   3.413   0.583   5.019  2.9845  2.3592  1.1450
 6429TIP3    H240703   3.430   0.645   4.882 -0.4183 -0.7983 -0.8944
 6430TIP3   OH240704   5.185   4.293   0.145  0.9477 -0.3544  0.2943
 6430TIP3    H140705   5.278   4.272   0.132  0.5067 -1.2765 -1.7471
 6430TIP3    H240706   5.179   4.386   0.123  1.4686 -0.1390  1.0186
 6431TIP3   OH240707   1.486   4.093   0.164 -0.5271  0.3181 -0.5033
 6431TIP3    H140708   1.560   4.127   0.112 -1.3032  1.5714 -0.8320
 6431TIP3    H240709   1.443   4.172   0.198 -0.5573 -0.4635  1.3384
 6432TIP3   OH240710   5.391   6.027  11.776  0.2292  0.3482 -0.1640
 6432TIP3    H140711   5.309   6.054  11.818 -0.1938 -0.7499 -0.2448
 6432TIP3    H240712   5.363   5.965  11.708  0.9978  1.2071 -1.3107
 6433TIP3   OH240713   6.520   1.529   4.983 -0.5745 -0.0261 -0.3141
 6433TIP3    H140714   6.610   1.560   4.993 -0.2609 -0.9363 -0.1787
 6433TIP3    H240715   6.469   1.584   5.042 -0.1925  0.8351 -0.7653
 6434TIP3   OH240716   0.094   2.933  16.076 -0.0986  0.4722  0.2740
 6434TIP3    H140717   0.078   3.027  16.076 -0.5206  0.4726  2.8115
 6434TIP3    H240718   0.125   2.914  16.164 -0.6741 -1.8604  0.0388
 6435TIP3   OH240719   5.024   0.940   1.610 -0.1566  0.1896 -0.1650
 6435TIP3    H140720   5.024   0.889   1.691  1.4075 -1.1125 -0.9189
 6435TIP3    H240721   4.952   0.903   1.559  0.1909 -0.4581 -0.2015
 6436TIP3   OH240722   5.682   1.979  17.204  0.2067 -0.2370  0.1151
 6436TIP3    H140723   5.760   1.934  17.238  0.0402 -0.5502  0.0877
 6436TIP3    H240724   5.658   2.041  17.273 -0.2934 -1.0631  0.7040
 6437TIP3   OH240725   3.995   1.057   3.431 -0.1858  0.1897 -0.2696
 6437TIP3    H140726   4.046   1.070   3.351 -0.6005 -1.0488 -0.7604
 6437TIP3    H240727   4.051   1.092   3.501  0.0400  1.5975 -1.1101
 6438TIP3   OH240728   2.607   2.444  15.564 -0.4865  0.0913 -0.8855
 6438TIP3    H140729   2.608   2.397  15.480  1.0456  1.0731 -1.4477
 6438TIP3    H240730   2.565   2.383  15.625  0.5666 -1.6428 -1.8103
 6439TIP3   OH240731   5.395   0.490   6.229 -0.1597  0.1941 -0.1191
 6439TIP3    H140732   5.463   0.433   6.192  0.5893  0.1836  1.1950
 6439TIP3    H240733   5.415   0.493   6.323 -2.3142 -0.2446  0.4159
 6440TIP3   OH240734   0.067   2.093   2.707  0.7203 -0.2979 -0.4221
 6440TIP3    H140735   0.053   2.036   2.783 -0.2336 -0.5456 -0.7718
 6440TIP3    H240736   0.074   2.181   2.744  2.3530 -0.6317  0.1370
 6441TIP3   OH240737   3.421   6.511  13.148  0.0648 -0.1124  0.0078
 6441TIP3    H140738   3.504   6.555  13.167 -0.8442  1.8620 -0.3429
 6441TIP3    H240739   3.436   6.467  13.065  0.3750  1.3783 -0.7561
 6442TIP3   OH240740   6.399   3.984   0.969  0.1671 -0.1155  0.3249
 6442TIP3    H140741   6.397   3.968   1.063 -1.4616 -0.2818  0.2849
 6442TIP3    H240742   6.329   3.929   0.933 -3.2963  4.1399 -0.2582
 6443TIP3   OH240743   0.030   2.476   4.090 -0.0561 -0.0558  0.3376
 6443TIP3    H140744  -0.057   2.508   4.113  0.0527  2.3527 -2.0677
 6443TIP3    H240745   0.049   2.408   4.155 -3.5440 -0.4317  1.1618
 6444TIP3   OH240746   2.491   0.016   4.253  0.3343  0.0766 -0.1921
 6444TIP3    H140747   2.415   0.069   4.276  0.7433  0.2824  0.7077
 6444TIP3    H240748   2.547   0.076   4.203  0.9189  0.5983  1.0530
 6445TIP3   OH240749   4.163   2.427   3.311  0.0413  0.3586 -0.4058
 6445TIP3    H140750   4.146   2.333   3.319 -1.0036  0.6591  1.4672
 6445TIP3    H240751   4.257   2.434   3.298  0.5108 -0.8839  1.8346
 6446TIP3   OH240752   2.666   4.166  11.187  0.6737  0.0122 -0.1279
 6446TIP3    H140753   2.605   4.110  11.139 -4.1904  3.7833  0.7227
 6446TIP3    H240754   2.702   4.224  11.120  0.5279 -0.0613 -0.2718
 6447TIP3   OH240755   5.094   2.638   3.585 -0.2215  0.0434  0.3897
 6447TIP3    H140756   5.030   2.647   3.657  0.1067  2.1934  0.4552
 6447TIP3    H240757   5.056   2.570   3.529 -0.4550 -1.7657  2.5944
 6448TIP3   OH240758   3.374   6.332  11.289  0.1041  0.0407 -0.5546
 6448TIP3    H140759   3.426   6.324  11.369  0.8756  2.8891 -0.6637
 6448TIP3    H240760   3.433   6.305  11.218  0.7546  1.2020 -0.4755
 6449TIP3   OH240761   0.891   1.366   2.220  0.1608  0.4827 -0.0382
 6449TIP3    H140762   0.880   1.287   2.273 -0.5655  0.3578 -0.3653
 6449TIP3    H240763   0.955   1.418   2.268 -0.3893  0.3206  0.8962
 6450TIP3   OH240764   3.874   4.813  13.149  0.3141 -0.2735 -0.1175
 6450TIP3    H140765   3.921   4.888  13.184 -0.7086  0.4067 -0.1549
 6450TIP3    H240766   3.865   4.830  13.056  0.8944 -0.9072 -0.3009
 6451TIP3   OH240767   2.096   5.813   1.968  0.1555 -0.1178  0.4855
 6451TIP3    H140768   2.110   5.887   2.028 -1.4428 -0.6626  1.6170
 6451TIP3    H240769   2.001   5.799   1.970  0.0970 -0.4517 -1.8883
 6452TIP3   OH240770   6.703   5.309   3.083  0.1364  0.1009  0.2577
 6452TIP3    H140771   6.759   5.324   3.006  0.9967 -0.2244  0.8028
 6452TIP3    H240772   6.619   5.283   3.047  0.3889  0.4103 -0.5863
 6453TIP3   OH240773   1.797   1.158   0.279  0.0758 -0.5175 -0.1779
 6453TIP3    H140774   1.724   1.164   0.340  1.0643  0.2543  0.9602
 6453TIP3    H240775   1.757   1.124   0.198 -1.3277 -1.1699  0.7426
 6454TIP3   OH240776   4.060   3.144  15.483  0.2338 -0.1102  0.6898
 6454TIP3    H140777   4.072   3.218  15.542 -1.2470 -0.4340  1.4417
 6454TIP3    H240778   4.126   3.080  15.510  1.9642  1.1264 -0.3814
 6455TIP3   OH240779   4.575   4.296  14.438 -0.3761 -0.1685  0.5301
 6455TIP3    H140780   4.572   4.304  14.342  0.3298 -1.1346  0.4161
 6455TIP3    H240781   4.497   4.245  14.460  0.0603 -0.9250  0.3505
 6456TIP3   OH240782   5.840   5.875   2.945 -0.2543 -0.3693  0.4419
 6456TIP3    H140783   5.804   5.787   2.936 -0.0749 -0.3231 -0.9160
 6456TIP3    H240784   5.928   5.862   2.980 -0.6023 -0.6409  1.2644
 6457TIP3   OH240785   6.497   2.609   5.115 -0.2195 -0.4486  0.2749
 6457TIP3    H140786   6.421   2.660   5.142  1.1697  1.7106  0.3199
 6457TIP3    H240787   6.496   2.613   5.019  0.9796  1.5046  0.2834
 6458TIP3   OH240788   5.824   3.665   5.234  0.0292  0.2759 -0.1448
 6458TIP3    H140789   5.791   3.598   5.174 -1.0124  0.0637  0.6356
 6458TIP3    H240790   5.884   3.718   5.180  0.1799 -0.7268 -1.0013
 6459TIP3   OH240791   5.530   5.265  15.795  0.2193  0.2228 -0.0369
 6459TIP3    H140792   5.581   5.313  15.860  3.0641 -0.3525 -1.6582
 6459TIP3    H240793   5.493   5.332  15.738 -0.3043  0.6428  0.7939
 6460TIP3   OH240794   3.445   0.064   3.765  0.4228 -0.5297 -0.6258
 6460TIP3    H140795   3.385   0.046   3.693 -0.2594 -0.1011 -0.1785
 6460TIP3    H240796   3.388   0.075   3.841  1.0259  0.4162 -0.2942
 6461TIP3   OH240797   1.653   0.432   1.741  0.1816 -0.2510  0.2744
 6461TIP3    H140798   1.698   0.418   1.825  1.7938 -0.3862 -0.5617
 6461TIP3    H240799   1.572   0.382   1.749 -0.1916  0.5606  2.1184
 6462TIP3   OH240800   2.457   3.199  11.951  0.0999 -0.2624  0.0383
 6462TIP3    H140801   2.479   3.198  11.857 -0.3898  0.1449 -0.0844
 6462TIP3    H240802   2.392   3.130  11.961  0.6421 -0.7487  0.2019
 6463TIP3   OH240803   0.760   2.772  17.293  0.0241  0.1200 -0.0240
 6463TIP3    H140804   0.760   2.696  17.235  0.7500 -0.3435  0.5590
 6463TIP3    H240805   0.788   2.845  17.237 -1.6487  0.1906 -0.8311
 6464TIP3   OH240806   0.607   1.850  17.198 -0.5962  0.2950 -0.0878
 6464TIP3    H140807   0.540   1.828  17.133  0.4013 -0.1323 -1.0004
 6464TIP3    H240808   0.668   1.907  17.152  0.3472 -0.3433  0.3430
 6465TIP3   OH240809   2.969   1.836  13.326 -0.4561  0.1256  0.1404
 6465TIP3    H140810   2.931   1.849  13.413  1.0869  1.1286  0.7204
 6465TIP3    H240811   3.047   1.783  13.342 -0.7026 -0.5456 -0.7916
 6466TIP3   OH240812   0.406   2.542   2.409  0.0275 -0.0865  0.4524
 6466TIP3    H140813   0.357   2.460   2.407  1.6293 -1.1507  2.0760
 6466TIP3    H240814   0.376   2.586   2.488 -1.6652  1.5430 -0.9827
 6467TIP3   OH240815   2.709   1.346   5.850  0.1763  0.1731  0.3365
 6467TIP3    H140816   2.650   1.396   5.794  0.8922  0.0378 -0.5673
 6467TIP3    H240817   2.737   1.409   5.916  0.0869  0.6228 -0.0451
 6468TIP3   OH240818   5.609   5.439  13.643 -0.4041 -0.2290 -0.1221
 6468TIP3    H140819   5.701   5.413  13.634 -0.0101  1.3843 -1.1305
 6468TIP3    H240820   5.560   5.361  13.619  0.7263 -0.3730 -2.2138
 6469TIP3   OH240821   2.494   4.585  15.292 -0.1535 -0.0864  0.2592
 6469TIP3    H140822   2.414   4.633  15.313 -2.7925 -2.8287 -2.3652
 6469TIP3    H240823   2.496   4.512  15.354 -0.1452 -0.4552 -0.1698
 6470TIP3   OH240824   0.493   5.936   2.420 -0.5967  0.3888 -0.2721
 6470TIP3    H140825   0.577   5.890   2.412 -1.5094 -1.2803 -0.7851
 6470TIP3    H240826   0.517   6.026   2.443  1.4280  0.4977 -2.4202
 6471TIP3   OH240827   1.606   0.597   6.643 -0.0987 -0.5515 -0.0614
 6471TIP3    H140828   1.685   0.607   6.696 -2.0391 -0.9700  3.0996
 6471TIP3    H240829   1.587   0.686   6.613 -0.1147  0.0976  1.7831
 6472TIP3   OH240830   3.498   0.870  14.929  0.0004 -0.4007 -0.2821
 6472TIP3    H140831   3.525   0.783  14.959 -0.1269 -0.1114  0.7154
 6472TIP3    H240832   3.409   0.881  14.963 -0.7574 -0.6708 -2.1114
 6473TIP3   OH240833   1.174   3.130  12.832  0.0644  0.1982  0.1587
 6473TIP3    H140834   1.127   3.047  12.840 -1.9716  1.1255 -1.3387
 6473TIP3    H240835   1.152   3.179  12.912  0.1189 -0.1242  0.3738
 6474TIP3   OH240836   5.327   5.900  16.405 -0.5189  0.1034  0.2280
 6474TIP3    H140837   5.419   5.927  16.407 -0.3404 -0.4987  1.2421
 6474TIP3    H240838   5.279   5.975  16.441 -0.5843  0.9023 -1.4517
 6475TIP3   OH240839   2.256   3.727  17.267  0.1904 -0.2234  0.5052
 6475TIP3    H140840   2.224   3.807  17.224  2.8333  1.2239  1.0057
 6475TIP3    H240841   2.291   3.674  17.195  1.1585  0.4723  0.4443
 6476TIP3   OH240842   1.098   0.919  16.915  0.0074 -0.0591  0.8013
 6476TIP3    H140843   1.056   0.895  16.997 -0.9100 -1.4575 -0.0339
 6476TIP3    H240844   1.188   0.886  16.923 -0.0101  0.0129  1.3204
 6477TIP3   OH240845   3.531   6.039  12.706  0.2323 -0.3957  0.4681
 6477TIP3    H140846   3.567   6.002  12.786  2.3142 -0.3729 -0.4006
 6477TIP3    H240847   3.542   6.134  12.716  2.3272 -0.4661 -0.5824
 6478TIP3   OH240848   0.914   3.615  12.451 -0.1081  0.2402  0.0040
 6478TIP3    H140849   0.950   3.699  12.422  0.3194  0.3479  0.8217
 6478TIP3    H240850   0.862   3.637  12.528 -0.7040 -0.1320 -0.2833
 6479TIP3   OH240851   5.979   4.526  12.885 -0.4643 -1.0279  0.0016
 6479TIP3    H140852   5.942   4.573  12.811  3.5873 -0.2275 -1.7818
 6479TIP3    H240853   5.964   4.433  12.865 -0.8613 -0.7511 -1.0089
 6480TIP3   OH240854   5.586   1.383   1.911  0.0098 -0.2811 -0.4767
 6480TIP3    H140855   5.522   1.380   1.840 -1.1426  1.0405  0.4671
 6480TIP3    H240856   5.610   1.476   1.918  1.5717 -0.6567 -0.3858
 6481TIP3   OH240857   3.490   3.859   1.002  0.0800  0.0630 -0.3380
 6481TIP3    H140858   3.459   3.926   0.940 -2.2305  1.4666  2.1367
 6481TIP3    H240859   3.506   3.782   0.948 -2.2425  1.0624 -2.6613
 6482TIP3   OH240860   3.947   6.629  13.858  0.4726  0.5169 -0.0631
 6482TIP3    H140861   3.897   6.686  13.916  1.1750  0.3873  0.6970
 6482TIP3    H240862   4.037   6.660  13.867  0.6024  0.4527 -1.0490
 6483TIP3   OH240863   6.569   4.790  13.913 -0.1563 -0.4143 -0.7360
 6483TIP3    H140864   6.477   4.775  13.890 -0.4338  0.2048 -0.0580
 6483TIP3    H240865   6.592   4.872  13.870 -0.1368 -0.1926 -0.3026
 6484TIP3   OH240866   2.239   1.112  12.766  0.0557 -0.5164 -0.4947
 6484TIP3    H140867   2.249   1.020  12.743 -2.0140 -1.1250  0.8064
 6484TIP3    H240868   2.298   1.125  12.840 -0.4575 -1.0936  0.0207
 6485TIP3   OH240869   5.547   4.809   0.467  0.2293 -0.3819  0.1864
 6485TIP3    H140870   5.505   4.790   0.383 -0.4081 -1.5175  0.7331
 6485TIP3    H240871   5.498   4.884   0.501  0.9038  0.4950 -0.7214
 6486TIP3   OH240872   4.913   4.961  10.668 -0.7882  0.3571 -0.2094
 6486TIP3    H140873   4.907   4.868  10.648  0.8114 -0.0795  1.1252
 6486TIP3    H240874   4.975   4.995  10.604  0.7237 -0.0864  0.9685
 6487TIP3   OH240875   6.461   6.732   3.785  0.1456  0.2005 -0.1545
 6487TIP3    H140876   6.484   6.767   3.699 -1.1708  0.3157 -0.4816
 6487TIP3    H240877   6.495   6.796   3.847 -1.9373  1.9711 -0.7269
 6488TIP3   OH240878   2.695   2.181   4.923 -0.1205  0.0514  0.5938
 6488TIP3    H140879   2.695   2.086   4.911  0.4087  0.3635 -3.1433
 6488TIP3    H240880   2.785   2.208   4.904  0.0041  1.2922  2.6024
 6489TIP3   OH240881   4.708   4.429  17.195 -0.0891  0.1140 -0.2815
 6489TIP3    H140882   4.621   4.462  17.173 -0.8079 -1.3576  0.1774
 6489TIP3    H240883   4.756   4.431  17.112 -1.1592 -0.7406 -0.9528
 6490TIP3   OH240884   2.609   2.527  16.581 -0.0335 -0.6776  0.4843
 6490TIP3    H140885   2.556   2.603  16.602 -1.0137 -1.2106  0.0194
 6490TIP3    H240886   2.669   2.518  16.655 -0.0760  0.3840  0.6606
 6491TIP3   OH240887   5.047   3.427  11.380  0.8032  0.2186 -0.2586
 6491TIP3    H140888   5.066   3.485  11.306  0.8263  0.8166  0.2121
 6491TIP3    H240889   4.986   3.477  11.434  0.4222 -0.4042 -0.1096
 6492TIP3   OH240890   1.190   1.818  15.232  0.7883  0.2380  0.0152
 6492TIP3    H140891   1.176   1.812  15.138 -0.8026 -0.8337  0.2740
 6492TIP3    H240892   1.128   1.756  15.269  0.5747  1.4600  1.8312
 6493TIP3   OH240893   0.651   1.177  13.832  0.8934 -0.2345 -0.2184
 6493TIP3    H140894   0.599   1.104  13.864 -1.1866  1.9010  1.5870
 6493TIP3    H240895   0.708   1.201  13.905 -0.6429  1.8028  0.4115
 6494TIP3   OH240896   1.285   0.066   0.673 -0.4528  0.2214  0.3965
 6494TIP3    H140897   1.213   0.047   0.733 -2.0631 -0.1526 -1.5481
 6494TIP3    H240898   1.359   0.084   0.730 -1.8871 -0.0967  2.4853
 6495TIP3   OH240899   4.686   0.876   0.230 -0.3807 -0.5334 -0.0100
 6495TIP3    H140900   4.756   0.924   0.274 -0.8146  0.1411 -0.0285
 6495TIP3    H240901   4.707   0.882   0.137  0.3300 -1.6243  0.0749
 6496TIP3   OH240902   0.216   6.545  12.928  0.2258 -0.4303  0.1935
 6496TIP3    H140903   0.291   6.534  12.869 -0.1532  0.0124 -0.3895
 6496TIP3    H240904   0.178   6.629  12.903  0.1276 -0.1713  1.1674
 6497TIP3   OH240905   1.121   0.932  16.183  0.2255  0.3753 -0.5231
 6497TIP3    H140906   1.138   0.964  16.272 -1.6047  0.8859 -0.3210
 6497TIP3    H240907   1.078   1.005  16.139  0.2086 -0.2235 -1.5209
 6498TIP3   OH240908   6.581   2.914  16.553  0.3164  0.4639 -0.0027
 6498TIP3    H140909   6.576   2.950  16.465 -0.6537  1.7763  0.5509
 6498TIP3    H240910   6.495   2.876  16.568 -0.4401  2.4579  1.2209
 6499TIP3   OH240911   1.217   2.860  12.591  0.1242 -0.0059  0.1992
 6499TIP3    H140912   1.239   2.945  12.554  0.2608 -0.1150  0.0296
 6499TIP3    H240913   1.164   2.818  12.523 -0.2176  0.0730  0.4172
 6500TIP3   OH240914   4.004   1.929  16.143 -0.2446  0.0868  0.1551
 6500TIP3    H140915   3.967   2.012  16.112 -0.2410 -0.1411 -0.4907
 6500TIP3    H240916   4.015   1.877  16.063 -0.5176 -0.6431  0.5796
 6501TIP3   OH240917   2.602   3.036  15.466 -0.3250 -0.1283 -0.0806
 6501TIP3    H140918   2.677   3.009  15.414 -0.4400 -1.6080  0.4626
 6501TIP3    H240919   2.527   3.023  15.408 -0.3217 -0.3750 -0.0301
 6502TIP3   OH240920   4.255   2.647  11.594  0.2682  0.1495 -0.2723
 6502TIP3    H140921   4.271   2.715  11.528  0.1642  2.2868  1.7844
 6502TIP3    H240922   4.187   2.592  11.555  0.1718  1.3434 -1.9129
 6503TIP3   OH240923   0.185   5.988  14.624 -0.1688 -0.8218  0.0402
 6503TIP3    H140924   0.263   6.027  14.663 -1.6884 -0.4228  2.9241
 6503TIP3    H240925   0.145   6.059  14.574  1.7527 -1.3129 -2.3937
 6504TIP3   OH240926   2.112   5.015   4.750 -0.4172 -0.5616  0.1588
 6504TIP3    H140927   2.109   4.985   4.660  0.0904 -1.3977  0.4078
 6504TIP3    H240928   2.200   5.052   4.761 -1.0266  1.0807 -0.1425
 6505TIP3   OH240929   2.835   1.090  12.154  0.0374 -0.5812 -0.1722
 6505TIP3    H140930   2.878   1.132  12.228  0.2754 -2.7567  1.0205
 6505TIP3    H240931   2.882   1.122  12.077 -0.8892  2.5668  0.4288
 6506TIP3   OH240932   5.474   4.380  16.204  0.0184  0.4637  0.6443
 6506TIP3    H140933   5.510   4.412  16.121  1.1933  1.6188  1.5450
 6506TIP3    H240934   5.514   4.437  16.270  0.6964 -1.6947  2.1981
 6507TIP3   OH240935   1.927   2.996  12.231 -0.2767  0.0946 -0.2060
 6507TIP3    H140936   2.004   2.940  12.242  1.0267  2.0370  1.2261
 6507TIP3    H240937   1.890   3.004  12.318 -0.1944  1.7299 -0.2832
 6508TIP3   OH240938   2.535   6.038   4.159 -0.7059  0.1414 -0.1268
 6508TIP3    H140939   2.544   6.115   4.103 -0.4603 -0.8201 -1.4380
 6508TIP3    H240940   2.572   5.966   4.108 -2.4995 -1.1789  0.3414
 6509TIP3   OH240941   2.571   1.878   1.128  0.7320 -0.9839 -0.1131
 6509TIP3    H140942   2.539   1.828   1.053 -0.4041 -0.8500  0.2663
 6509TIP3    H240943   2.667   1.878   1.118  0.5678  0.2330 -2.3506
 6510TIP3   OH240944   2.831   4.754   5.395  0.2339  0.5319 -0.5528
 6510TIP3    H140945   2.891   4.680   5.402  0.1338  0.4154 -0.8692
 6510TIP3    H240946   2.862   4.817   5.459  0.8001  0.5432 -0.8279
 6511TIP3   OH240947   0.940   2.478   1.880 -0.1748 -0.1935 -0.4228
 6511TIP3    H140948   1.013   2.417   1.890 -0.1577 -0.4046 -1.7146
 6511TIP3    H240949   0.970   2.542   1.816  0.1695  1.7870  1.5750
 6512TIP3   OH240950   5.361   5.521   5.752 -0.3402 -0.5689  0.0281
 6512TIP3    H140951   5.435   5.580   5.745  1.1830 -2.2552  1.1647
 6512TIP3    H240952   5.284   5.579   5.748  1.0516  1.5473  1.6038
 6513TIP3   OH240953   6.082   0.083   1.617  0.4021 -0.2323 -0.2505
 6513TIP3    H140954   6.096   0.031   1.696 -1.0311  0.5032  0.5544
 6513TIP3    H240955   6.157   0.065   1.562  1.4723 -0.7472  1.3060
 6514TIP3   OH240956   4.272   5.553  11.571 -0.0575  0.1427 -0.0889
 6514TIP3    H140957   4.248   5.506  11.491  0.8157 -1.1595  0.3807
 6514TIP3    H240958   4.286   5.643  11.543  0.0126 -0.2455 -1.3533
 6515TIP3   OH240959   4.081   5.618  16.808  0.0103 -0.3922 -0.4522
 6515TIP3    H140960   4.085   5.662  16.893  0.3616 -0.9637 -0.1719
 6515TIP3    H240961   4.111   5.684  16.746  0.7918 -0.3074 -0.0008
 6516TIP3   OH240962   0.452   2.685  13.683 -0.0283  0.4421 -0.4274
 6516TIP3    H140963   0.535   2.679  13.731  0.4859  0.0009 -1.3489
 6516TIP3    H240964   0.417   2.596  13.684 -0.2075  0.5113 -0.5279
 6517TIP3   OH240965   6.106   5.900  12.153  0.1366  0.2414 -0.0074
 6517TIP3    H140966   6.031   5.946  12.192  1.4381  2.5449 -0.0288
 6517TIP3    H240967   6.086   5.897  12.059  1.2469  3.4798 -0.4545
 6518TIP3   OH240968   1.072   1.681  11.103 -0.1343  0.2958  0.2635
 6518TIP3    H140969   1.060   1.713  11.013 -1.4223  0.9871  0.6599
 6518TIP3    H240970   1.162   1.650  11.105 -0.4074 -0.8110 -1.6038
 6519TIP3   OH240971   2.605   3.329   1.585 -0.0731  0.1859  1.1049
 6519TIP3    H140972   2.683   3.275   1.598 -0.1273 -0.2932 -0.3345
 6519TIP3    H240973   2.633   3.398   1.525 -1.3535 -1.6589 -1.8919
 6520TIP3   OH240974   3.416   1.010  12.657  0.3197  0.9890 -0.3597
 6520TIP3    H140975   3.436   1.004  12.564  2.2132 -0.2205  0.0600
 6520TIP3    H240976   3.323   1.032  12.661  0.6735  3.3380 -2.5207
 6521TIP3   OH240977   3.904   6.676   0.001 -0.3631 -0.5722  0.3005
 6521TIP3    H140978   3.870   6.758  -0.035 -1.3940 -0.7302  0.8835
 6521TIP3    H240979   3.906   6.690   0.096  1.7383 -0.3841  0.2911
 6522TIP3   OH240980   5.661   1.548   5.277  0.3872 -0.1992 -1.1259
 6522TIP3    H140981   5.595   1.498   5.324 -0.4951  0.4472 -1.6444
 6522TIP3    H240982   5.624   1.636   5.270  1.8310  0.5032 -0.3806
 6523TIP3   OH240983   5.983   1.231  11.824 -0.4023 -0.3071  0.4739
 6523TIP3    H140984   6.004   1.161  11.762 -1.5061  0.1101 -0.4022
 6523TIP3    H240985   6.049   1.222  11.893  1.3946 -0.2667 -1.1452
 6524TIP3   OH240986   5.239   4.332  15.292 -0.1058 -0.7630 -0.6245
 6524TIP3    H140987   5.152   4.349  15.255  0.2640 -0.0280 -1.1702
 6524TIP3    H240988   5.277   4.265  15.234 -0.4898 -1.4534 -0.0952
 6525TIP3   OH240989   6.091   1.529  14.498  0.4749  0.4085 -0.1615
 6525TIP3    H140990   6.000   1.502  14.488  0.1231  1.9206 -1.6671
 6525TIP3    H240991   6.104   1.536  14.592 -1.0463  0.3539  0.0815
 6526TIP3   OH240992   2.354   2.663   4.232  0.4385 -0.2409 -0.5585
 6526TIP3    H140993   2.282   2.666   4.295  1.1943 -0.9626  0.3728
 6526TIP3    H240994   2.396   2.748   4.240  0.2892 -0.1841 -0.3612
 6527TIP3   OH240995   4.324   5.352  16.998 -0.2216  0.2321  0.1196
 6527TIP3    H140996   4.259   5.363  16.928  2.3225  0.5146 -2.3817
 6527TIP3    H240997   4.378   5.431  16.993 -0.5215  0.7472  3.1752
 6528TIP3   OH240998   1.230   6.294   4.025  0.0444 -0.0963 -0.0118
 6528TIP3    H140999   1.255   6.368   3.970  2.4399 -0.4196  0.5114
 6528TIP3    H241000   1.229   6.330   4.114  0.7372 -0.5517  0.1907
 6529TIP3   OH241001   5.252   6.682  14.504 -0.3219  0.3144  0.3777
 6529TIP3    H141002   5.222   6.773  14.506  0.0957  0.4541  2.7178
 6529TIP3    H241003   5.333   6.682  14.554  0.5446 -1.1037 -0.9399
 6530TIP3   OH241004   0.746   1.307  16.522 -1.2428 -0.8807 -0.0252
 6530TIP3    H141005   0.817   1.354  16.567  2.2731 -2.1692 -3.6304
 6530TIP3    H241006   0.771   1.215  16.529 -3.6231 -1.5836  0.0602
 6531TIP3   OH241007   6.065   3.450  15.702 -0.0602  0.1966 -0.2865
 6531TIP3    H141008   6.100   3.461  15.791 -0.5619 -0.2838 -0.0167
 6531TIP3    H241009   6.133   3.484  15.645 -0.0654  1.2585  0.3179
 6532TIP3   OH241010   0.601   0.576   5.314 -0.3889 -0.0700  0.5491
 6532TIP3    H141011   0.619   0.533   5.231 -0.6333 -1.3532  1.1354
 6532TIP3    H241012   0.554   0.656   5.290  1.4260  0.6906 -0.6601
 6533TIP3   OH241013   3.246   3.800   4.759 -0.0061 -0.4462 -0.1695
 6533TIP3    H141014   3.312   3.769   4.697  0.5764  1.6338 -0.6636
 6533TIP3    H241015   3.274   3.888   4.783 -1.9050  0.0052  0.6285
 6534TIP3   OH241016   4.820   0.671  13.860  0.0234 -0.7361  0.2106
 6534TIP3    H141017   4.739   0.684  13.909 -1.0529  1.1162 -1.8703
 6534TIP3    H241018   4.792   0.663  13.769  2.1366 -0.3438 -0.5262
 6535TIP3   OH241019   6.750   3.707   6.691  0.2312  0.1141 -0.0240
 6535TIP3    H141020   6.832   3.666   6.662 -0.4481 -0.7139 -0.8467
 6535TIP3    H241021   6.704   3.727   6.610  0.5979  2.7475  0.3186
 6536TIP3   OH241022   3.037   4.495  13.668 -0.2089  0.3823  0.3003
 6536TIP3    H141023   3.018   4.527  13.580  1.5260  1.6874  0.3439
 6536TIP3    H241024   3.003   4.563  13.726  1.2358  0.9967  0.4888
 6537TIP3   OH241025   2.185   0.124   0.287 -0.5411 -0.9774 -0.0874
 6537TIP3    H141026   2.122   0.052   0.283 -0.3762 -1.6408  4.6039
 6537TIP3    H241027   2.270   0.082   0.271 -0.7175 -1.2437 -0.3359
 6538TIP3   OH241028   6.528   2.799  13.179 -0.7422  0.8719  0.2188
 6538TIP3    H141029   6.496   2.849  13.254 -1.5149  1.4132 -0.4510
 6538TIP3    H241030   6.609   2.759  13.209  0.5171  3.4156  0.4622
 6539TIP3   OH241031   3.007   5.456   4.403  0.2935  0.2277 -0.7088
 6539TIP3    H141032   2.980   5.463   4.494  1.4975 -1.5865 -0.1434
 6539TIP3    H241033   2.931   5.418   4.358 -0.7263  2.1891 -0.7652
 6540TIP3   OH241034   6.393   5.851  14.798 -0.2586  0.0043  0.5877
 6540TIP3    H141035   6.442   5.880  14.721 -2.2601  2.2657  0.0259
 6540TIP3    H241036   6.374   5.759  14.781  0.7759  0.0108 -0.8101
 6541TIP3   OH241037   4.888   1.476  13.567  0.2084  0.0442  0.2741
 6541TIP3    H141038   4.899   1.481  13.662 -1.3298 -0.3731  0.4967
 6541TIP3    H241039   4.851   1.561  13.543  1.4254  0.4934 -0.1064
 6542TIP3   OH241040   6.099   1.206  14.770 -0.2354  0.0952 -0.7165
 6542TIP3    H141041   6.042   1.215  14.846 -1.1555  1.5250 -1.5180
 6542TIP3    H241042   6.039   1.210  14.695  0.7502 -0.1901 -1.5420
 6543TIP3   OH241043   1.184   3.688  10.697 -0.6143  0.1010  0.2908
 6543TIP3    H141044   1.129   3.677  10.620 -2.0841  1.1949  1.1341
 6543TIP3    H241045   1.198   3.599  10.730  0.6747 -0.4695 -1.6033
 6544TIP3   OH241046   1.664   3.134  15.421 -0.1125  0.0281 -0.1063
 6544TIP3    H141047   1.739   3.118  15.478  1.8047  1.1857 -2.1528
 6544TIP3    H241048   1.588   3.105  15.472  1.5983 -0.2572  2.4429
 6545TIP3   OH241049   1.978   2.990  14.858  0.4538 -0.2960 -0.1906
 6545TIP3    H141050   1.945   3.075  14.887  1.6155  0.6203 -1.4130
 6545TIP3    H241051   1.976   2.935  14.936 -0.4332  0.8120  0.5980
 6546TIP3   OH241052   4.820   0.700  16.254 -0.2214  0.2736  0.4462
 6546TIP3    H141053   4.821   0.649  16.174  0.8853 -0.4466  0.8967
 6546TIP3    H241054   4.825   0.791  16.226  0.0376  0.0300 -0.2910
 6547TIP3   OH241055   5.112   2.317   5.788 -0.2311 -0.0272 -0.1970
 6547TIP3    H141056   5.034   2.357   5.826 -0.4454  0.4008 -1.0820
 6547TIP3    H241057   5.181   2.382   5.802  0.7660 -1.5535  3.2957
 6548TIP3   OH241058   0.090   0.959  12.520  0.0867  0.1195 -0.1954
 6548TIP3    H141059   0.097   1.053  12.506 -1.3237  0.1916 -0.5952
 6548TIP3    H241060   0.098   0.921  12.433  2.2924 -0.2939  0.1251
 6549TIP3   OH241061   0.398   4.860   0.283 -0.6139 -0.1174 -0.2816
 6549TIP3    H141062   0.493   4.848   0.290 -0.2094  0.9135 -2.7058
 6549TIP3    H241063   0.360   4.786   0.329  1.3530 -0.4111  0.9842
 6550TIP3   OH241064   4.828   6.344   3.095  0.4058 -0.3440  0.0214
 6550TIP3    H141065   4.834   6.271   3.033 -0.8732 -0.2312 -0.2628
 6550TIP3    H241066   4.836   6.303   3.181  2.5582 -0.4630 -0.1662
 6551TIP3   OH241067   3.845   1.284  13.033 -0.0505  0.5409 -0.0568
 6551TIP3    H141068   3.930   1.247  13.008  1.3294  1.3721  2.9304
 6551TIP3    H241069   3.789   1.208  13.051 -0.3030 -0.0287 -2.8275
 6552TIP3   OH241070   2.255   4.973  14.190 -0.3348 -0.2713  0.1513
 6552TIP3    H141071   2.270   4.937  14.103 -0.5199  1.7530 -0.7533
 6552TIP3    H241072   2.203   5.052  14.175  1.3041  1.2263  1.9011
 6553TIP3   OH241073   3.027   4.994  11.473 -0.7857 -0.3732 -0.0630
 6553TIP3    H141074   3.079   4.914  11.486  0.8375  0.5930 -0.3995
 6553TIP3    H241075   3.084   5.053  11.425 -0.8869  2.0228  2.4723
 6554TIP3   OH241076   2.020   6.493   4.516  0.1662 -0.3472 -0.6534
 6554TIP3    H141077   2.115   6.491   4.504  0.3285  0.7446  0.2393
 6554TIP3    H241078   1.990   6.406   4.489  1.7963 -1.8290  1.8726
 6555TIP3   OH241079   4.968   2.153  16.193  0.2245  0.1452 -0.2348
 6555TIP3    H141080   4.923   2.158  16.109  0.6489 -0.7170 -0.5230
 6555TIP3    H241081   5.061   2.150  16.170  0.3280 -0.4739  0.2507
 6556TIP3   OH241082   4.820   0.677   4.181 -0.1819  0.0430  0.6793
 6556TIP3    H141083   4.729   0.691   4.205 -0.2408  0.8966  0.0116
 6556TIP3    H241084   4.819   0.669   4.086  0.5123  0.7370  0.6016
 6557TIP3   OH241085   3.470   3.270  12.680  0.5883 -0.4977 -0.7489
 6557TIP3    H141086   3.447   3.350  12.727  0.7598 -0.2687 -1.0514
 6557TIP3    H241087   3.562   3.283  12.655  0.8896 -1.1602 -0.0366
 6558TIP3   OH241088   5.013   3.828  14.030  0.9700  0.0662 -0.1743
 6558TIP3    H141089   4.976   3.892  13.970  2.0966  2.0624  1.1720
 6558TIP3    H241090   4.990   3.743  13.991  0.1429  1.2521 -2.4411
 6559TIP3   OH241091   5.128   0.797   4.805 -0.0066 -0.7029 -0.1038
 6559TIP3    H141092   5.221   0.778   4.799  0.2322 -1.1468  3.4269
 6559TIP3    H241093   5.086   0.711   4.808 -0.3412 -0.5241  0.4115
 6560TIP3   OH241094   2.308   4.341  12.993  0.0734 -0.5196  0.0469
 6560TIP3    H141095   2.383   4.392  12.963  0.4718 -0.7003  0.7108
 6560TIP3    H241096   2.284   4.286  12.918  0.0258  0.1949 -0.4648
 6561TIP3   OH241097   5.779   6.344   6.348 -0.3878 -0.2457 -0.0352
 6561TIP3    H141098   5.871   6.335   6.322 -1.0723 -1.0777 -2.4809
 6561TIP3    H241099   5.772   6.293   6.429  1.6159  1.2496  1.1635
 6562TIP3   OH241100   4.284   1.388   1.396 -0.4691  0.3410  0.4388
 6562TIP3    H141101   4.248   1.319   1.453 -1.0418 -0.5880 -0.9872
 6562TIP3    H241102   4.371   1.405   1.431 -0.9740  0.1271  1.8649
 6563TIP3   OH241103   4.927   4.382   4.887  0.2422 -0.5950  0.1853
 6563TIP3    H141104   4.917   4.363   4.980  1.2998 -0.5167  0.3315
 6563TIP3    H241105   4.863   4.325   4.844 -1.6439  0.7967  1.0550
 6564TIP3   OH241106   4.971   0.814   3.583  0.1632  0.3717  0.4692
 6564TIP3    H141107   4.974   0.895   3.532  0.9166 -0.9078 -1.6079
 6564TIP3    H241108   4.907   0.759   3.538  1.0318 -0.8935  0.7317
 6565TIP3   OH241109   5.298   2.146  14.429 -0.1135  0.0690 -0.2796
 6565TIP3    H141110   5.339   2.138  14.516 -0.9460  0.3521  0.1466
 6565TIP3    H241111   5.363   2.192  14.377  0.8363 -1.0063 -0.1140
 6566TIP3   OH241112   4.206   1.035   0.323  0.4114  0.2347  0.4075
 6566TIP3    H141113   4.126   1.060   0.369  0.4317  2.5251 -0.6481
 6566TIP3    H241114   4.275   1.084   0.366  0.7860  0.5045 -0.4741
 6567TIP3   OH241115   4.550   3.692   0.825  0.4106  0.0104 -0.2168
 6567TIP3    H141116   4.556   3.654   0.913 -2.4193  0.5636  0.3258
 6567TIP3    H241117   4.529   3.618   0.768  0.1597 -0.0249 -0.0772
 6568TIP3   OH241118   2.420   0.929   1.078  0.5156  0.0256  0.1347
 6568TIP3    H141119   2.328   0.949   1.061  0.4597 -0.3456 -0.0206
 6568TIP3    H241120   2.422   0.834   1.088  0.6937  0.1449  1.3043
 6569TIP3   OH241121   0.450   0.934  17.352 -0.6493 -0.3558 -0.4780
 6569TIP3    H141122   0.482   0.941  17.262  1.5252  4.3833  0.3496
 6569TIP3    H241123   0.369   0.985  17.352 -0.5077 -0.1231  0.2849
 6570TIP3   OH241124   4.999   0.038   5.581 -0.2218 -0.4026  0.0792
 6570TIP3    H141125   4.917   0.082   5.601 -0.9208 -1.3620 -0.5729
 6570TIP3    H241126   5.024  -0.005   5.662  0.6414  1.4077  0.8208
 6571TIP3   OH241127   5.708   2.642  12.051 -0.1937  0.0418 -0.0431
 6571TIP3    H141128   5.733   2.567  11.996  1.0600 -0.1179  0.6987
 6571TIP3    H241129   5.709   2.717  11.991 -0.9490 -0.4500 -0.6798
 6572TIP3   OH241130   3.611   1.126  16.125 -0.3014 -0.0993 -0.6350
 6572TIP3    H141131   3.647   1.072  16.196 -1.0827 -2.2435 -1.7804
 6572TIP3    H241132   3.540   1.175  16.166 -0.7395 -1.3043  0.1005
 6573TIP3   OH241133   4.729   2.429  10.969 -0.0930 -0.2604  0.3933
 6573TIP3    H141134   4.655   2.464  11.018  0.0523 -1.1001  1.2429
 6573TIP3    H241135   4.792   2.501  10.966 -1.2102  0.7282 -1.0055
 6574TIP3   OH241136   1.764   5.575   5.834 -0.1389  0.1098 -0.1406
 6574TIP3    H141137   1.785   5.637   5.903  0.4456 -1.4764  1.1680
 6574TIP3    H241138   1.769   5.489   5.876  1.5770 -1.0212 -2.4499
 6575TIP3   OH241139   2.849   4.193  12.775  0.1875 -0.0881  0.2144
 6575TIP3    H141140   2.788   4.217  12.844 -0.3597  1.2757 -0.7020
 6575TIP3    H241141   2.821   4.245  12.699  1.4881 -0.6594 -0.6937
 6576TIP3   OH241142   4.443   5.709  13.198 -0.3930  0.2513 -0.2444
 6576TIP3    H141143   4.464   5.627  13.153  0.6612  1.1308 -1.4205
 6576TIP3    H241144   4.423   5.682  13.288  1.4334 -1.1379 -0.1860
 6577TIP3   OH241145   3.908   2.569   1.392  0.2023  0.5125  0.3426
 6577TIP3    H141146   3.944   2.619   1.466  0.0487  1.8884 -0.4767
 6577TIP3    H241147   3.963   2.491   1.387  0.9218  0.9436  1.2210
 6578TIP3   OH241148   5.809   4.350   3.876 -0.0621  0.1572  0.3195
 6578TIP3    H141149   5.826   4.382   3.965 -0.5464  1.3396  0.0024
 6578TIP3    H241150   5.738   4.405   3.844 -0.1295 -0.4886 -0.6887
 6579TIP3   OH241151   2.405   6.486  13.795 -0.3398 -0.9642 -0.0474
 6579TIP3    H141152   2.441   6.461  13.710  0.3403 -0.0406 -0.0455
 6579TIP3    H241153   2.416   6.408  13.849  0.3982 -1.1437 -0.4397
 6580TIP3   OH241154   1.991   6.494  12.515 -0.0490  0.6670  0.1735
 6580TIP3    H141155   2.027   6.429  12.575 -1.0392  0.8016  0.9381
 6580TIP3    H241156   2.059   6.561  12.509 -0.2187  1.0273  1.7564
 6581TIP3   OH241157   6.613   4.120  12.823 -0.5482  0.0006 -0.0568
 6581TIP3    H141158   6.685   4.128  12.885 -0.9355  0.9858  0.2969
 6581TIP3    H241159   6.576   4.033  12.839  0.9316 -0.7761 -0.6777
 6582TIP3   OH241160   4.967   2.011  12.836 -0.1531  0.0094  0.8230
 6582TIP3    H141161   4.971   1.923  12.873  0.7413 -0.0091  0.7097
 6582TIP3    H241162   5.020   2.006  12.757 -1.4921  0.2217 -0.1263
 6583TIP3   OH241163   2.496   3.649   5.026 -0.5683 -0.3941  0.5083
 6583TIP3    H141164   2.521   3.603   5.106 -1.2748  0.4332  1.2302
 6583TIP3    H241165   2.465   3.581   4.967  1.4380 -1.2172  0.3164
 6584TIP3   OH241166   4.077   3.079  13.220  0.1224  0.3201  0.1197
 6584TIP3    H141167   4.056   3.021  13.147 -0.3166  2.5026 -1.5886
 6584TIP3    H241168   4.167   3.055  13.245 -1.1503 -3.3719  1.8633
 6585TIP3   OH241169   3.268   0.637   1.215 -0.6274 -0.0738  0.4790
 6585TIP3    H141170   3.246   0.688   1.293  1.8949  1.4833  0.2560
 6585TIP3    H241171   3.262   0.699   1.142  0.3965 -0.6109 -0.0930
 6586TIP3   OH241172   1.942   3.622   3.120  0.4511  0.0024 -0.5088
 6586TIP3    H141173   2.016   3.598   3.063  1.1188  0.8852 -0.0265
 6586TIP3    H241174   1.964   3.583   3.205  1.8051  2.6095  0.4366
 6587TIP3   OH241175   5.928   3.517  14.232 -0.2844  0.0153  0.3727
 6587TIP3    H141176   5.894   3.583  14.293  0.1878 -0.9767  1.7718
 6587TIP3    H241177   5.856   3.454  14.223  0.4952 -1.1803  1.9795
 6588TIP3   OH241178   0.819   5.796  16.520 -0.3691  0.0541  0.0631
 6588TIP3    H141179   0.911   5.779  16.498 -0.3019 -0.6057  0.8044
 6588TIP3    H241180   0.822   5.829  16.610 -0.9124 -0.7254  0.3747
 6589TIP3   OH241181   4.139   4.506   6.129  0.3374 -0.5092 -0.6567
 6589TIP3    H141182   4.149   4.537   6.219  0.9527  0.7581 -1.1291
 6589TIP3    H241183   4.091   4.576   6.085 -2.0417 -2.1404 -0.7990
 6590TIP3   OH241184   1.564   0.772   3.517 -0.4859  0.3701 -0.1104
 6590TIP3    H141185   1.521   0.703   3.466  1.1856 -0.1912 -0.8628
 6590TIP3    H241186   1.608   0.725   3.588  1.0989  0.5315 -0.9235
 6591TIP3   OH241187   4.102   6.548  13.438  0.7048 -0.0648 -0.6642
 6591TIP3    H141188   4.014   6.576  13.465  0.8441 -0.4481  0.2086
 6591TIP3    H241189   4.156   6.626  13.446  0.6450 -0.0627 -0.2540
 6592TIP3   OH241190   2.174   2.701   2.984  0.5425  0.0852 -0.2046
 6592TIP3    H141191   2.262   2.678   2.957  1.1092  0.4264  1.2542
 6592TIP3    H241192   2.162   2.792   2.957  1.6065  0.8751  1.7331
 6593TIP3   OH241193   2.083   3.069  16.053 -0.5186 -0.3760  0.0969
 6593TIP3    H141194   2.163   3.016  16.049 -0.7260 -0.7833  1.1905
 6593TIP3    H241195   2.065   3.091  15.961  0.2556 -1.1603 -0.2562
 6594TIP3   OH241196   2.976   5.508  14.094  0.2716  0.1364  0.2843
 6594TIP3    H141197   2.997   5.415  14.082 -0.1723 -0.3673  2.8817
 6594TIP3    H241198   2.973   5.520  14.189 -2.3076  2.1854  0.0700
 6595TIP3   OH241199   0.388   2.617  14.196 -0.1001 -0.0647  0.2757
 6595TIP3    H141200   0.317   2.553  14.201 -0.5123  0.3520 -0.1640
 6595TIP3    H241201   0.396   2.651  14.285  0.5070 -1.1302  0.6428
 6596TIP3   OH241202   0.022   5.597  13.539  0.3967 -0.2190  0.0534
 6596TIP3    H141203   0.092   5.567  13.598 -1.3187 -1.9066  1.3518
 6596TIP3    H241204  -0.006   5.517  13.493 -2.2729 -0.1182  1.3503
 6597TIP3   OH241205   0.194   4.953  17.051 -0.0826 -0.0682  0.1522
 6597TIP3    H141206   0.201   5.037  17.005 -1.8684 -0.7240 -1.4260
 6597TIP3    H241207   0.236   4.969  17.136  3.3840  1.1813 -1.6292
 6598TIP3   OH241208   4.675   1.729  12.701 -0.2821 -0.0206  0.0535
 6598TIP3    H141209   4.632   1.731  12.615  0.1556  1.3962 -0.1550
 6598TIP3    H241210   4.642   1.649  12.742 -1.0910 -0.3230 -1.1301
 6599TIP3   OH241211   0.648   5.637   5.263  0.1567  0.2231 -0.3441
 6599TIP3    H141212   0.654   5.545   5.289 -0.6861  0.1066 -0.5501
 6599TIP3    H241213   0.555   5.654   5.253  0.3807  0.3896 -2.8089
 6600TIP3   OH241214   0.146   3.414  14.751 -0.3072 -0.4273  0.6324
 6600TIP3    H141215   0.201   3.413  14.829 -1.1669  0.9779  1.3002
 6600TIP3    H241216   0.077   3.350  14.770 -0.3436 -0.3110  0.8979
 6601TIP3   OH241217   5.698   1.643   0.922 -0.5219  0.2905  0.8634
 6601TIP3    H141218   5.653   1.658   0.839 -0.1000 -4.4264 -0.5412
 6601TIP3    H241219   5.627   1.624   0.984 -0.7487  2.0473  1.1919
 6602TIP3   OH241220   5.849   3.687   4.020  0.1154 -0.0795 -0.2884
 6602TIP3    H141221   5.816   3.759   3.966 -2.0358 -0.3323  0.6045
 6602TIP3    H241222   5.812   3.703   4.106  0.9810 -1.3699  0.3470
 6603TIP3   OH241223   2.938   0.789  16.233  0.1393 -0.3052 -0.5600
 6603TIP3    H141224   2.905   0.714  16.184  0.0582 -1.3719  1.0268
 6603TIP3    H241225   3.031   0.769  16.249  0.1038 -0.1067 -0.0725
 6604TIP3   OH241226   6.696   3.468   0.921  0.0220  0.4091 -0.0456
 6604TIP3    H141227   6.674   3.376   0.909 -1.3464  0.5023  1.5004
 6604TIP3    H241228   6.631   3.516   0.871  0.3420  0.5672 -0.3191
 6605TIP3   OH241229   5.591   5.941  11.954  0.3109  0.2901 -0.1140
 6605TIP3    H141230   5.547   5.992  11.886  0.1850 -1.3426 -1.3305
 6605TIP3    H241231   5.527   5.874  11.978  0.2929  0.9389  1.7784
 6606TIP3   OH241232   2.953   6.026  13.075 -0.0739  0.1381  0.1823
 6606TIP3    H141233   2.967   5.983  13.159  0.9186  0.7549  0.3551
 6606TIP3    H241234   2.960   6.120  13.095  2.8925  0.2831 -0.9640
 6607TIP3   OH241235   4.503   6.638   5.901 -0.2944  0.4856  0.1577
 6607TIP3    H141236   4.581   6.599   5.861  0.1743  0.0613  1.4192
 6607TIP3    H241237   4.482   6.713   5.846  0.8040  0.4057 -0.3974
 6608TIP3   OH241238   0.264   4.646   2.676 -0.0040  0.1048  0.1872
 6608TIP3    H141239   0.288   4.644   2.769  1.4859  1.0607 -0.1524
 6608TIP3    H241240   0.234   4.736   2.662 -1.5996 -0.4162  0.0392
 6609TIP3   OH241241   3.273   2.638  11.075 -0.3101 -0.3247 -0.3039
 6609TIP3    H141242   3.292   2.571  11.010 -0.6221 -1.0976  0.3968
 6609TIP3    H241243   3.184   2.620  11.104 -0.6791  0.8527 -0.6479
 6610TIP3   OH241244   6.446   6.696   0.007 -0.3000 -0.4480 -0.1175
 6610TIP3    H141245   6.401   6.659   0.083 -0.2940 -1.1950 -0.4658
 6610TIP3    H241246   6.385   6.760  -0.029  0.7317  1.9141  2.0485
 6611TIP3   OH241247   4.198   4.515  11.068  0.7432 -0.3357  0.1044
 6611TIP3    H141248   4.104   4.537  11.065  0.8959  0.4366  0.8972
 6611TIP3    H241249   4.216   4.478  10.981 -0.4165 -1.0237  0.1324
 6612TIP3   OH241250   3.075   2.028  13.161 -0.5264  0.0573 -0.2391
 6612TIP3    H141251   3.129   2.049  13.238  0.6118 -2.8545 -0.1157
 6612TIP3    H241252   3.007   1.969  13.195 -1.4777  0.6352 -1.0811
 6613TIP3   OH241253   0.609   6.425  12.991  0.3208 -1.4913  0.0624
 6613TIP3    H141254   0.661   6.454  13.066 -1.5371  2.6374  0.0370
 6613TIP3    H241255   0.627   6.491  12.923 -2.9504 -1.3043 -0.7752
 6614TIP3   OH241256   5.256   3.307  15.088 -0.4545  0.3700 -0.1098
 6614TIP3    H141257   5.287   3.236  15.031 -2.0538 -1.4177  1.0866
 6614TIP3    H241258   5.280   3.387  15.042  0.8024 -0.9410 -1.9044
 6615TIP3   OH241259   4.895   0.354   5.516  0.7816  0.1216 -0.0171
 6615TIP3    H141260   4.855   0.313   5.440 -0.0167  0.8340  0.0063
 6615TIP3    H241261   4.852   0.314   5.592  0.7257  0.2660  0.0284
 6616TIP3   OH241262   2.463   3.561  14.236 -0.7217  0.1859  0.6484
 6616TIP3    H141263   2.448   3.653  14.214 -1.7821  0.4751  2.4456
 6616TIP3    H241264   2.512   3.563  14.319  0.1297 -0.8865  0.2103
 6617TIP3   OH241265   5.791   2.244  15.133 -0.4775 -0.5144  0.2446
 6617TIP3    H141266   5.881   2.259  15.105 -0.5164 -0.8319 -0.0579
 6617TIP3    H241267   5.778   2.150  15.121 -0.5935 -0.6048  1.0407
 6618TIP3   OH241268   6.757   4.430  16.720 -0.0780 -0.0620 -0.5600
 6618TIP3    H141269   6.758   4.441  16.625  1.9925 -1.0642 -0.7006
 6618TIP3    H241270   6.807   4.503  16.753  0.0570 -0.2652 -0.3142
 6619TIP3   OH241271   2.132   6.461   4.835  0.2819 -0.0371 -0.1937
 6619TIP3    H141272   2.093   6.380   4.803  1.3300 -0.7821  0.3346
 6619TIP3    H241273   2.170   6.502   4.757  1.2675 -0.9473 -0.2187
 6620TIP3   OH241274   0.747   1.614   4.027 -0.2528  0.0768  0.7230
 6620TIP3    H141275   0.819   1.557   4.004  0.5037  0.9923  0.7603
 6620TIP3    H241276   0.756   1.627   4.122 -1.6195 -1.3364  1.0893
 6621TIP3   OH241277   1.039   3.610   1.958 -0.4161  0.1630  0.2540
 6621TIP3    H141278   1.113   3.657   1.998 -0.0282 -0.9205  0.8543
 6621TIP3    H241279   1.051   3.519   1.986 -1.8386 -0.0808  0.1337
 6622TIP3   OH241280   0.328   5.621   0.727  0.2632 -0.4090  0.3581
 6622TIP3    H141281   0.402   5.600   0.783  0.5214 -0.5519 -0.0319
 6622TIP3    H241282   0.348   5.709   0.693  1.3106 -1.2853 -1.4203
 6623TIP3   OH241283   6.704   1.436   0.237  0.0626 -0.5954 -0.0485
 6623TIP3    H141284   6.748   1.520   0.232 -1.2197  0.2744  2.0598
 6623TIP3    H241285   6.746   1.383   0.170  0.6262  1.8228 -1.7302
 6624TIP3   OH241286   3.058   4.265   4.835  0.0433 -0.2191  0.4948
 6624TIP3    H141287   3.034   4.176   4.861  2.2147 -0.9684  0.0983
 6624TIP3    H241288   3.149   4.274   4.862  0.4339  1.2143 -1.1527
 6625TIP3   OH241289   0.093   1.649  13.090  0.0655  0.0800  0.8658
 6625TIP3    H141290   0.105   1.571  13.144  1.1374 -0.5984 -0.2683
 6625TIP3    H241291   0.179   1.691  13.089  0.0644  0.1029 -0.2308
 6626TIP3   OH241292   1.491   4.508   5.033 -0.1219 -0.0241 -0.5465
 6626TIP3    H141293   1.587   4.512   5.036 -0.1714  0.6897  0.3154
 6626TIP3    H241294   1.469   4.429   5.082  0.0394 -0.3717 -1.0328
 6627TIP3   OH241295   6.441   5.010   4.841 -0.1162  0.4509  0.0852
 6627TIP3    H141296   6.386   5.085   4.820 -1.5084  0.4290  3.0978
 6627TIP3    H241297   6.398   4.969   4.916  2.4319 -1.3752  0.6905
 6628TIP3   OH241298   3.277   4.003  14.426  0.2397  0.3546 -0.2217
 6628TIP3    H141299   3.226   4.084  14.424 -2.2821 -1.1198 -0.6416
 6628TIP3    H241300   3.323   4.002  14.342 -0.5225  0.8827 -0.6626
 6629TIP3   OH241301   0.102   4.558   1.920 -0.1935  0.5783 -0.3703
 6629TIP3    H141302   0.108   4.537   2.013  2.1259 -0.3175 -0.6416
 6629TIP3    H241303   0.110   4.653   1.916 -1.3430  0.7241  0.3747
 6630TIP3   OH241304   0.706   0.686  15.476 -0.7214 -0.1121  0.6504
 6630TIP3    H141305   0.793   0.654  15.497 -0.5575  0.3405  0.6676
 6630TIP3    H241306   0.692   0.759  15.536 -0.8673  0.2094  0.2293
 6631TIP3   OH241307   2.168   2.545  15.011 -0.1345  0.3776 -0.3808
 6631TIP3    H141308   2.223   2.480  14.967 -0.2512  0.4561 -0.6454
 6631TIP3    H241309   2.177   2.525  15.104  0.9828  0.9104 -0.3666
 6632TIP3   OH241310   4.247   2.368  12.370  0.1034  0.3052 -0.2528
 6632TIP3    H141311   4.163   2.412  12.382  0.7442  1.6731 -0.6038
 6632TIP3    H241312   4.268   2.382  12.277 -0.3654 -2.0481 -0.7680
 6633TIP3   OH241313   1.150   5.698   4.154  0.1042 -0.5574 -0.1885
 6633TIP3    H141314   1.058   5.692   4.177  0.5739 -1.0305  1.8602
 6633TIP3    H241315   1.165   5.790   4.133 -1.1362 -0.7693 -2.1821
 6634TIP3   OH241316   6.578   1.734  13.213 -0.0043 -0.0482  0.3759
 6634TIP3    H141317   6.650   1.767  13.159 -0.2623 -0.1393 -0.0269
 6634TIP3    H241318   6.603   1.643  13.233 -0.2750 -0.2610 -0.2383
 6635TIP3   OH241319   5.961   5.027   0.205  0.2303 -0.4407  0.0890
 6635TIP3    H141320   5.948   5.087   0.278  1.9734  0.1758 -0.0824
 6635TIP3    H241321   5.976   5.083   0.129 -0.5012 -1.0865 -0.5497
 6636TIP3   OH241322   0.181   1.974  17.239  0.1413 -0.0954  0.4727
 6636TIP3    H141323   0.211   1.974  17.148  1.3526  1.3337  0.8522
 6636TIP3    H241324   0.250   2.018  17.288 -1.8155  1.8639  1.6362
 6637TIP3   OH241325   6.007   5.002  15.033  0.5408 -0.6698 -0.1209
 6637TIP3    H141326   6.068   5.049  14.977 -0.4452 -2.3805 -2.8923
 6637TIP3    H241327   5.936   5.064  15.050  0.9367 -0.0566 -0.6963
 6638TIP3   OH241328   3.301   0.062  15.631  0.6250  0.6756  0.0219
 6638TIP3    H141329   3.303  -0.016  15.575  0.2945  0.0925  0.7992
 6638TIP3    H241330   3.265   0.031  15.714  2.6920  1.1272  1.1581
 6639TIP3   OH241331   5.319   6.129   0.318  0.0070  0.1173 -0.0880
 6639TIP3    H141332   5.414   6.137   0.321  0.0203  0.0468 -0.3106
 6639TIP3    H241333   5.294   6.175   0.238  0.0017 -1.2177 -0.8870
 6640TIP3   OH241334   3.813   5.631  16.565 -0.1477 -0.0803 -0.8389
 6640TIP3    H141335   3.824   5.709  16.620  0.1849 -0.3258 -0.5544
 6640TIP3    H241336   3.764   5.570  16.620 -1.5428  0.3973 -1.5185
 6641TIP3   OH241337   0.306   3.593   1.316 -0.0426 -0.1540 -0.7093
 6641TIP3    H141338   0.256   3.628   1.389  2.2663  3.5988 -0.6826
 6641TIP3    H241339   0.256   3.617   1.238 -0.9863 -1.4541 -0.5310
 6642TIP3   OH241340   3.069   3.572   6.215 -0.5255 -0.6060 -0.0984
 6642TIP3    H141341   3.149   3.624   6.216  0.1092 -1.5438 -0.5673
 6642TIP3    H241342   3.094   3.489   6.174 -1.4337 -1.4043  0.8934
 6643TIP3   OH241343   4.531   1.069   0.382 -0.2706 -0.1372  0.2123
 6643TIP3    H141344   4.515   1.164   0.384 -0.4272 -0.1616  0.1175
 6643TIP3    H241345   4.619   1.060   0.345  1.0636  0.1441  3.0095
 6644TIP3   OH241346   3.025   1.831  15.938 -0.2569 -0.0056 -0.5292
 6644TIP3    H141347   3.097   1.853  15.879  2.3893  0.2716  2.5408
 6644TIP3    H241348   3.015   1.909  15.993  0.1723 -1.5789  1.9120
 6645TIP3   OH241349   2.659   6.404  14.655  0.1806  0.3174 -0.0009
 6645TIP3    H141350   2.695   6.492  14.660  1.4692  0.1828 -3.8137
 6645TIP3    H241351   2.699   6.358  14.728  1.5449  2.2298  0.5287
 6646TIP3   OH241352   5.687   2.022   4.291  0.1749 -0.3124  0.1996
 6646TIP3    H141353   5.635   2.025   4.371 -0.1960 -2.7568  0.1128
 6646TIP3    H241354   5.623   2.022   4.220  0.5044  2.0721 -0.1948
 6647TIP3   OH241355   4.264   6.410  11.675  0.1514  0.2368  0.4760
 6647TIP3    H141356   4.203   6.482  11.654  1.7935  1.9742  1.3265
 6647TIP3    H241357   4.351   6.450  11.667  1.0938 -1.3454  2.1294
 6648TIP3   OH241358   4.435   6.694  13.979  0.1115  0.1644 -0.1550
 6648TIP3    H141359   4.447   6.756  14.051 -0.4684  1.9874 -1.5362
 6648TIP3    H241360   4.524   6.672  13.952  0.3370  0.5570  0.2374
 6649TIP3   OH241361   3.493   6.437  15.201 -0.1850  0.1747 -0.5395
 6649TIP3    H141362   3.466   6.361  15.254  0.0435  0.8976  0.6419
 6649TIP3    H241363   3.548   6.399  15.133 -2.0184 -1.0123 -1.4393
 6650TIP3   OH241364   2.284   3.500   3.693  0.0191  0.0879  0.8551
 6650TIP3    H141365   2.253   3.512   3.604 -0.9667  0.4116  1.2292
 6650TIP3    H241366   2.328   3.583   3.715 -0.8526  0.4893  1.1042
 6651TIP3   OH241367   4.798   5.218  14.808  0.1159  0.2409 -0.1714
 6651TIP3    H141368   4.705   5.239  14.817  0.0952 -0.2759  0.9983
 6651TIP3    H241369   4.808   5.134  14.854  1.0443 -0.0095 -0.8073
 6652TIP3   OH241370   1.946   4.031  11.837 -0.2971  0.4292  0.1485
 6652TIP3    H141371   1.919   3.982  11.915 -2.6348  2.3907  0.6911
 6652TIP3    H241372   1.870   4.027  11.779  0.2318  1.6293 -0.6644
 6653TIP3   OH241373   0.367   5.164  11.583  0.0637 -0.0853  0.1505
 6653TIP3    H141374   0.449   5.117  11.601  1.1384  2.0787  1.2505
 6653TIP3    H241375   0.315   5.152  11.662  0.0156 -0.0633  0.1218
 6654TIP3   OH241376   4.486   0.882   6.011 -0.5531  0.1601 -0.3133
 6654TIP3    H141377   4.399   0.842   6.017 -0.1684 -0.6352  0.1757
 6654TIP3    H241378   4.471   0.975   6.027 -1.0995 -0.2302  1.7729
 6655TIP3   OH241379   2.665   4.156   1.470 -0.3981 -0.4516 -0.3634
 6655TIP3    H141380   2.571   4.165   1.454 -0.7903  0.7320  2.0461
 6655TIP3    H241381   2.700   4.116   1.390 -2.9144 -0.8360 -1.3638
 6656TIP3   OH241382   2.696   6.630  17.243  0.2525  0.5305  0.1097
 6656TIP3    H141383   2.743   6.668  17.169  0.8140  0.8361  0.6143
 6656TIP3    H241384   2.663   6.705  17.292  0.1016  0.3387  0.3077
 6657TIP3   OH241385   6.702   1.619  12.498  0.4247 -0.2052 -0.3294
 6657TIP3    H141386   6.704   1.706  12.539 -0.9061 -0.2450 -0.1364
 6657TIP3    H241387   6.626   1.576  12.538 -0.4708 -0.5203 -2.2952
 6658TIP3   OH241388   5.271   2.091  12.231  0.4605 -0.1803 -0.3930
 6658TIP3    H141389   5.334   2.041  12.180  0.3299  0.6707 -1.4208
 6658TIP3    H241390   5.196   2.033  12.241 -0.9507  0.7485 -4.1816
 6659TIP3   OH241391   4.223   2.817   1.252  0.0151 -0.3612 -0.2442
 6659TIP3    H141392   4.312   2.782   1.240  0.9968  1.9305 -0.3077
 6659TIP3    H241393   4.217   2.834   1.346 -0.1934 -0.1369 -0.2978
 6660TIP3   OH241394   0.903   0.894   0.616  0.8081 -0.3122  0.3321
 6660TIP3    H141395   0.948   0.937   0.689  0.6065  0.7331 -0.1359
 6660TIP3    H241396   0.956   0.916   0.539  1.0713 -1.4829  0.1573
 6661TIP3   OH241397   5.621   3.876  12.573  0.2608  0.3767  0.8225
 6661TIP3    H141398   5.647   3.788  12.546 -0.5019  0.2825  0.3755
 6661TIP3    H241399   5.526   3.871  12.584 -0.2905  1.8744 -2.1403
 6662TIP3   OH241400   2.737   5.313  10.523 -0.2674 -0.0645  0.2549
 6662TIP3    H141401   2.787   5.352  10.595  0.1849  0.7744 -0.4897
 6662TIP3    H241402   2.804   5.278  10.464 -0.6192 -0.3953  0.0464
 6663TIP3   OH241403   5.327   0.594   3.740  0.5072 -0.7960 -0.6613
 6663TIP3    H141404   5.364   0.662   3.684  2.7445 -0.1190  1.4551
 6663TIP3    H241405   5.368   0.608   3.825 -2.2528 -2.1304  1.0535
 6664TIP3   OH241406   3.741   4.957   5.206 -0.0695  0.1403 -0.1662
 6664TIP3    H141407   3.715   4.895   5.138  0.2448  1.8720 -1.9663
 6664TIP3    H241408   3.835   4.968   5.193 -0.2017  1.3305 -0.2034
 6665TIP3   OH241409   1.750   5.199   4.707 -0.1685  0.7760 -0.4301
 6665TIP3    H141410   1.672   5.192   4.762 -0.0594  0.3341 -0.3272
 6665TIP3    H241411   1.822   5.213   4.769 -0.1781  1.3376 -0.5334
 6666TIP3   OH241412   3.659   3.766  15.182 -0.1066 -0.3039 -0.0570
 6666TIP3    H141413   3.600   3.696  15.211  0.7226 -1.2690 -0.6218
 6666TIP3    H241414   3.672   3.749  15.088  1.0057 -0.0930  0.0408
 6667TIP3   OH241415   4.322   2.142   2.739 -0.2723  0.0269 -0.1194
 6667TIP3    H141416   4.226   2.144   2.734 -0.2222 -0.2713 -2.3503
 6667TIP3    H241417   4.350   2.122   2.649  1.8147 -2.4648  0.9617
 6668TIP3   OH241418   2.745   5.643  13.818  0.4150 -0.5352 -0.2501
 6668TIP3    H141419   2.672   5.617  13.763  0.5849 -2.0731  0.1933
 6668TIP3    H241420   2.756   5.570  13.880  2.5794 -0.5726 -0.5829
 6669TIP3   OH241421   3.073   0.082  12.102  0.5129 -0.1127  0.2491
 6669TIP3    H141422   3.037   0.169  12.086 -0.6297 -0.7792 -0.9938
 6669TIP3    H241423   3.129   0.064  12.027  0.9086 -0.3722  0.6000
 6670TIP3   OH241424   1.113   6.037   4.307 -0.2052  0.0593 -0.2447
 6670TIP3    H141425   1.194   6.017   4.355 -0.6280 -0.4381  0.2813
 6670TIP3    H241426   1.090   6.126   4.334  2.0184  1.6440 -3.0530
 6671TIP3   OH241427   1.332   5.314  14.618  0.1345 -0.6768 -0.4571
 6671TIP3    H141428   1.395   5.325  14.548  0.4298 -1.6235 -0.3453
 6671TIP3    H241429   1.381   5.335  14.698  0.1394 -0.8098 -0.4251
 6672TIP3   OH241430   4.453   5.353   6.689 -0.2231  0.2196 -0.1503
 6672TIP3    H141431   4.450   5.399   6.773 -0.9667 -0.0208 -0.0383
 6672TIP3    H241432   4.546   5.352   6.666  0.2137 -1.0829  1.4356
 6673TIP3   OH241433   5.011   3.806   5.617 -0.3081  0.1770  0.0997
 6673TIP3    H141434   5.015   3.804   5.521  0.1412  1.9500  0.0400
 6673TIP3    H241435   5.084   3.751   5.645 -0.0833  0.1064 -0.5986
 6674TIP3   OH241436   1.792   3.631  15.890  0.0769  0.1944  0.4838
 6674TIP3    H141437   1.756   3.682  15.817  2.4017  0.3000 -0.6835
 6674TIP3    H241438   1.766   3.679  15.968 -0.5194  1.3791 -0.4116
 6675TIP3   OH241439   5.630   6.198   0.921  0.3171  0.3814 -0.4001
 6675TIP3    H141440   5.713   6.162   0.952 -0.2187 -0.2142  0.3623
 6675TIP3    H241441   5.563   6.156   0.975 -0.5760 -0.0070 -1.7559
 6676TIP3   OH241442   4.161   1.345  17.181  0.2101  0.1415 -0.2895
 6676TIP3    H141443   4.105   1.276  17.145  0.0685 -1.4098  2.5674
 6676TIP3    H241444   4.250   1.319  17.157  0.0529 -0.1893 -0.5305
 6677TIP3   OH241445   3.988   0.763   3.428 -0.4040  0.4337 -0.2316
 6677TIP3    H141446   4.081   0.758   3.451  0.2760  0.0234 -2.7528
 6677TIP3    H241447   3.972   0.856   3.411  0.5642  0.1336 -3.2651
 6678TIP3   OH241448   6.034   0.765  16.227 -0.7515 -0.1252 -0.8986
 6678TIP3    H141449   6.052   0.859  16.228  0.0056 -0.2582  0.1349
 6678TIP3    H241450   5.952   0.755  16.276  0.6636 -0.2248  1.6246
 6679TIP3   OH241451   1.681   2.382  13.065  0.2503  0.3612  0.2733
 6679TIP3    H141452   1.717   2.414  12.982  1.6519 -2.0232 -0.1272
 6679TIP3    H241453   1.709   2.447  13.130  1.9091  0.6382 -0.6569
 6680TIP3   OH241454   3.452   3.672  11.900 -0.3222  0.2259 -0.1491
 6680TIP3    H141455   3.499   3.747  11.865  0.3271 -0.5206 -0.9264
 6680TIP3    H241456   3.360   3.690  11.884 -0.0488 -0.0883 -2.2730
 6681TIP3   OH241457   0.012   6.244   6.267  0.6100  0.3105  0.7461
 6681TIP3    H141458   0.104   6.267   6.284  1.2334  0.9262 -2.6142
 6681TIP3    H241459   0.015   6.156   6.230 -0.1278  0.3617  0.5404
 6682TIP3   OH241460   0.863   6.494   1.973 -0.4106  0.0744  0.4139
 6682TIP3    H141461   0.887   6.516   2.063  3.3989  2.7626 -0.9772
 6682TIP3    H241462   0.828   6.576   1.937  1.1756  0.0680 -1.3067
 6683TIP3   OH241463   2.016   1.760  16.269  0.0152 -0.2768  0.1868
 6683TIP3    H141464   1.945   1.824  16.265  0.8521  0.6636  0.0352
 6683TIP3    H241465   2.041   1.745  16.178  0.3193 -0.2473  0.2624
 6684TIP3   OH241466   1.958   6.034  12.180 -0.3328  0.3000  0.5298
 6684TIP3    H141467   2.000   6.087  12.113 -0.7549  0.3060  0.2642
 6684TIP3    H241468   1.951   6.093  12.255  0.2483  0.2561  0.6222
 6685TIP3   OH241469   1.393   3.248   0.757  0.9791  0.2642 -0.8810
 6685TIP3    H141470   1.377   3.241   0.663 -0.6057 -1.8734 -0.5363
 6685TIP3    H241471   1.307   3.270   0.794  1.1011 -0.9967  0.2119
 6686TIP3   OH241472   6.307   1.975   6.130  0.2480 -0.4127  0.2292
 6686TIP3    H141473   6.290   2.061   6.091 -3.9479 -0.3135  1.7230
 6686TIP3    H241474   6.334   1.994   6.220  1.6397 -0.7051 -0.1051
 6687TIP3   OH241475   2.049   5.806  12.086 -0.2421  0.8274  0.1289
 6687TIP3    H141476   2.011   5.882  12.131 -0.1044  0.6019  0.6380
 6687TIP3    H241477   2.001   5.800  12.004 -1.0401  0.7895  0.5853
 6688TIP3   OH241478   3.971   4.110   5.381  0.2362 -0.1116 -0.9556
 6688TIP3    H141479   4.027   4.034   5.363  0.6222 -0.1737  0.3838
 6688TIP3    H241480   4.028   4.170   5.429 -1.1981 -0.8131  1.7848
 6689TIP3   OH241481   1.807   1.843   6.545 -0.4383  0.6320  0.3967
 6689TIP3    H141482   1.859   1.769   6.516 -2.3523 -0.1655 -1.2125
 6689TIP3    H241483   1.822   1.847   6.639  0.7888 -0.9077  0.3123
 6690TIP3   OH241484   0.015   4.268  14.846  0.0328 -0.3509  0.2306
 6690TIP3    H141485  -0.041   4.191  14.846 -4.7445  2.6765  1.2605
 6690TIP3    H241486  -0.012   4.317  14.768  1.1489  1.3768  0.8688
 6691TIP3   OH241487   1.257   5.995   4.064 -0.1162 -0.0303  0.3764
 6691TIP3    H141488   1.286   6.084   4.045 -0.5529 -0.1216 -0.7611
 6691TIP3    H241489   1.268   5.987   4.159 -0.0199  1.2127  0.4923
 6692TIP3   OH241490   4.257   1.365  15.767 -0.0751 -0.0539 -0.0267
 6692TIP3    H141491   4.165   1.393  15.768  0.3434  1.7366 -2.3619
 6692TIP3    H241492   4.255   1.275  15.735 -0.9738  0.6345 -2.0919
 6693TIP3   OH241493   5.588   1.215  14.130  0.2928 -0.1593 -0.4633
 6693TIP3    H141494   5.527   1.189  14.062  0.8236  2.0725 -1.8976
 6693TIP3    H241495   5.615   1.304  14.106 -0.2441  1.1824  3.1823
 6694TIP3   OH241496   4.857   4.426  14.409 -0.0405 -0.3795 -0.0016
 6694TIP3    H141497   4.763   4.438  14.419 -0.3075 -1.5921 -0.7922
 6694TIP3    H241498   4.870   4.331  14.409  1.2704 -0.2312  0.7625
 6695TIP3   OH241499   1.050   3.913  14.358  0.0086 -0.3882 -0.5633
 6695TIP3    H141500   1.071   4.005  14.343  1.6263 -0.1389  2.4984
 6695TIP3    H241501   1.133   3.867  14.353 -0.2846 -1.1606  0.9316
 6696TIP3   OH241502   4.884   0.994  16.733 -0.3465 -0.0862 -0.7068
 6696TIP3    H141503   4.883   0.931  16.662 -1.7529 -0.0577 -0.7428
 6696TIP3    H241504   4.863   1.078  16.691  0.1433  0.1663 -0.4560
 6697TIP3   OH241505   4.280   3.841  13.788  0.6095 -0.0550 -0.2618
 6697TIP3    H141506   4.369   3.838  13.752  0.6186 -2.2599 -0.1575
 6697TIP3    H241507   4.244   3.755  13.771 -1.6510  0.8702 -0.5385
 6698TIP3   OH241508   3.116   4.556  16.033  0.3561  0.0604  0.2539
 6698TIP3    H141509   3.161   4.637  16.057  2.0677 -1.0813  1.1365
 6698TIP3    H241510   3.137   4.544  15.940 -1.5251  1.5620 -0.4296
 6699TIP3   OH241511   3.636   6.733  11.087 -0.6263 -0.3101 -0.3655
 6699TIP3    H141512   3.614   6.690  11.004 -0.0710 -0.2389 -0.5554
 6699TIP3    H241513   3.637   6.826  11.067  0.4420 -0.3421 -0.5171
 6700TIP3   OH241514   5.212   5.554   6.634 -0.0592 -0.0179 -0.1381
 6700TIP3    H141515   5.256   5.571   6.550 -2.9499 -0.3437 -1.8372
 6700TIP3    H241516   5.201   5.640   6.673 -1.5657  0.5712 -1.7234
 6701TIP3   OH241517   5.224   4.592  11.075  0.1590 -0.1753 -0.0025
 6701TIP3    H141518   5.277   4.595  10.996  1.1434  0.1812  0.6408
 6701TIP3    H241519   5.133   4.591  11.044  0.5419 -1.7261 -1.1531
 6702TIP3   OH241520   2.780   1.676   3.122  0.4032 -0.2242  0.1029
 6702TIP3    H141521   2.695   1.631   3.121  0.6655 -0.7180 -0.2601
 6702TIP3    H241522   2.762   1.759   3.166 -1.9627  2.9434 -5.6208
 6703TIP3   OH241523   5.033   1.911   1.412  0.0206 -0.4393  0.2134
 6703TIP3    H141524   5.037   1.816   1.396  0.4179 -0.4026  0.0831
 6703TIP3    H241525   5.098   1.926   1.481  1.6013  0.0416 -1.2895
 6704TIP3   OH241526   1.391   3.584  17.209  0.6346  0.5155 -0.6996
 6704TIP3    H141527   1.407   3.675  17.235 -1.9593  0.7987  0.1355
 6704TIP3    H241528   1.345   3.590  17.126 -0.8950  0.0739  0.0807
 6705TIP3   OH241529   6.161   4.033   1.424  0.5556  0.1328  0.1225
 6705TIP3    H141530   6.219   4.082   1.481  0.1558 -0.7831  1.3509
 6705TIP3    H241531   6.079   4.024   1.473 -0.0657 -0.0284 -0.8961
 6706TIP3   OH241532   1.424   0.267   3.893  0.3010 -0.3591  0.1630
 6706TIP3    H141533   1.372   0.211   3.951 -1.8182 -0.0518 -1.3528
 6706TIP3    H241534   1.446   0.343   3.947  0.2203 -1.0491  1.1943
 6707TIP3   OH241535   2.364   2.434  12.311 -0.3969 -0.2082  0.8024
 6707TIP3    H141536   2.374   2.391  12.396 -1.6003  2.0084  2.1435
 6707TIP3    H241537   2.347   2.362  12.250  2.7011 -2.0982  1.9268
 6708TIP3   OH241538   2.255   4.965  11.301  0.0942 -0.3045 -0.2981
 6708TIP3    H141539   2.280   4.887  11.351  1.3676 -0.3967 -1.0324
 6708TIP3    H241540   2.318   5.032  11.329 -1.0415  0.5015  0.3861
 6709TIP3   OH241541   4.653   4.914  13.798 -0.6446 -0.5676  0.1711
 6709TIP3    H141542   4.570   4.888  13.840 -0.5969  0.2121  0.7751
 6709TIP3    H241543   4.667   4.848  13.731 -1.3952 -1.1207  0.5364
 6710TIP3   OH241544   5.827   5.171   2.308  0.1137 -0.4767 -0.4566
 6710TIP3    H141545   5.738   5.154   2.340  0.8134 -0.9791  1.3542
 6710TIP3    H241546   5.876   5.093   2.332  1.1974  0.0579 -0.8786
 6711TIP3   OH241547   5.216   5.227   4.011  0.0043 -0.0382  0.1510
 6711TIP3    H141548   5.232   5.308   3.964 -2.5325 -0.4371 -1.5711
 6711TIP3    H241549   5.253   5.158   3.955 -2.4790 -0.4566 -1.1092
 6712TIP3   OH241550   6.715   0.382   5.342  0.1062 -0.4232 -0.5039
 6712TIP3    H141551   6.652   0.425   5.283  1.1457  1.2383 -0.4565
 6712TIP3    H241552   6.776   0.337   5.283 -0.2542 -0.8191 -0.5875
 6713TIP3   OH241553   1.191   5.450   2.579 -0.7694  0.1192 -0.1560
 6713TIP3    H141554   1.269   5.456   2.634 -0.8108 -0.4576 -0.0380
 6713TIP3    H241555   1.180   5.539   2.545 -0.5208  0.3899  0.4523
 6714TIP3   OH241556   6.272   1.793  14.890 -0.2111 -0.2068  0.1593
 6714TIP3    H141557   6.333   1.853  14.932 -1.2099 -0.3124  1.8825
 6714TIP3    H241558   6.317   1.708  14.892  0.6149  0.1926 -0.9579
 6715TIP3   OH241559   0.324   2.327   0.670 -0.2343  0.2640 -0.1375
 6715TIP3    H141560   0.362   2.389   0.608 -0.1347 -1.4812 -1.8970
 6715TIP3    H241561   0.394   2.264   0.686 -1.0778 -0.7073 -0.2173
 6716TIP3   OH241562   6.619   5.812   1.502 -0.2939  0.7446  0.0397
 6716TIP3    H141563   6.685   5.773   1.444 -0.3726  0.8166 -0.1005
 6716TIP3    H241564   6.603   5.746   1.569 -1.3701 -0.0086 -0.9117
 6717TIP3   OH241565   5.434   6.057  10.828 -0.2846 -0.0498 -0.6076
 6717TIP3    H141566   5.475   6.039  10.913  0.7501  3.1008 -0.2850
 6717TIP3    H241567   5.500   6.031  10.764  0.0233 -0.0178 -0.3086
 6718TIP3   OH241568   3.869   3.848   5.983  0.5975  0.3675 -0.2971
 6718TIP3    H141569   3.827   3.874   6.066  0.9625  1.1612 -0.3478
 6718TIP3    H241570   3.962   3.863   5.998  0.5385  1.9937 -1.3393
 6719TIP3   OH241571   5.744   0.898   1.548  0.3089  0.0690  0.2123
 6719TIP3    H141572   5.721   0.876   1.458 -0.0454  1.3065 -0.0108
 6719TIP3    H241573   5.707   0.826   1.600  1.4147 -1.2120 -0.6900
 6720TIP3   OH241574   3.829   4.809   2.202  0.4925  0.1403 -0.0971
 6720TIP3    H141575   3.752   4.856   2.232 -0.2563 -0.5980 -0.7934
 6720TIP3    H241576   3.828   4.727   2.251  1.7292  0.7635  1.0368
 6721TIP3   OH241577   1.209   4.401  11.689  0.3320  0.2202  0.7439
 6721TIP3    H141578   1.133   4.354  11.654  0.3585 -1.4957  2.7893
 6721TIP3    H241579   1.188   4.493  11.675 -2.8328 -0.1014  2.4320
 6722TIP3   OH241580   4.115   5.361  11.872  0.2417  0.0415 -0.2020
 6722TIP3    H141581   4.203   5.324  11.862  1.1396  1.7564  0.7426
 6722TIP3    H241582   4.056   5.290  11.848  1.8800 -0.8134 -2.0310
 6723TIP3   OH241583   3.214   0.146   5.847  0.4387  0.1532 -0.4768
 6723TIP3    H141584   3.264   0.186   5.775  1.2191 -0.8828 -0.5345
 6723TIP3    H241585   3.209   0.053   5.824 -0.1604 -0.0251  0.3237
 6724TIP3   OH241586   2.751   3.717   2.398  0.4385  0.1556 -0.3348
 6724TIP3    H141587   2.708   3.776   2.459 -0.5930  0.2524 -1.1303
 6724TIP3    H241588   2.834   3.761   2.377  1.3821 -0.4336  1.8555
 6725TIP3   OH241589   6.475   0.352   5.637 -0.3005 -0.0913 -0.3221
 6725TIP3    H141590   6.419   0.399   5.576 -0.6415  0.5367  0.4631
 6725TIP3    H241591   6.416   0.317   5.703  0.0006 -1.2450 -0.6373
 6726TIP3   OH241592   4.262   2.936   4.763  0.4904  0.1430  0.6047
 6726TIP3    H141593   4.255   2.985   4.845 -0.8016  1.9016 -0.4917
 6726TIP3    H241594   4.172   2.907   4.745  0.4942  0.9853 -0.8781
 6727TIP3   OH241595   4.283   5.591   4.927 -0.6320  0.0431 -0.8369
 6727TIP3    H141596   4.303   5.542   4.847 -1.8512  0.0236 -1.1431
 6727TIP3    H241597   4.288   5.526   4.997 -1.4412 -0.3577 -1.1418
 6728TIP3   OH241598   2.252   2.303   0.113  0.1829  0.0296 -0.1870
 6728TIP3    H141599   2.202   2.222   0.119  0.9774 -0.4397  0.3464
 6728TIP3    H241600   2.254   2.336   0.203 -0.8788  1.1240 -0.5348
 6729TIP3   OH241601   1.631   5.457  12.884 -0.0059 -0.1809 -0.3782
 6729TIP3    H141602   1.551   5.405  12.887 -0.2973  0.0683 -2.4895
 6729TIP3    H241603   1.609   5.538  12.930 -0.7824 -0.3597 -0.4265
 6730TIP3   OH241604   0.589   2.659   0.309 -0.2896  0.2454 -0.5762
 6730TIP3    H141605   0.673   2.617   0.291  0.2180  1.3921 -0.9991
 6730TIP3    H241606   0.612   2.747   0.339 -1.3247  0.3266  0.0441
 6731TIP3   OH241607   6.395   4.495   5.616 -0.3418  0.3635 -0.3941
 6731TIP3    H141608   6.340   4.419   5.596  1.6225 -1.1031 -0.4052
 6731TIP3    H241609   6.479   4.475   5.576  1.1134  1.2470  2.0388
 6732TIP3   OH241610   3.703   2.392  17.178 -0.5838  0.1049 -0.2504
 6732TIP3    H141611   3.797   2.408  17.189 -0.8368  3.3842 -1.6362
 6732TIP3    H241612   3.678   2.343  17.257  2.4254 -2.0446 -0.4266
 6733TIP3   OH241613   1.229   5.378  16.779 -0.3930 -0.0523  0.1220
 6733TIP3    H141614   1.308   5.325  16.774  1.9426  3.1291 -0.3943
 6733TIP3    H241615   1.196   5.367  16.868 -0.2088 -2.4709 -0.0671
 6734TIP3   OH241616   0.205   3.408   1.827  0.4094 -0.3906  0.1003
 6734TIP3    H141617   0.206   3.418   1.922 -0.7794 -0.6799  0.1665
 6734TIP3    H241618   0.172   3.319   1.813  0.7133 -0.4003 -0.5843
 6735TIP3   OH241619   6.657   2.346   6.559 -0.7221  0.4083  0.1507
 6735TIP3    H141620   6.739   2.321   6.516  0.1590  2.2831  0.6231
 6735TIP3    H241621   6.680   2.421   6.613 -2.2872 -0.4684  2.1531
 6736TIP3   OH241622   3.336   6.624  13.996 -0.0184 -0.4040 -0.3695
 6736TIP3    H141623   3.250   6.623  13.954  0.0078 -0.1093 -0.4338
 6736TIP3    H241624   3.384   6.693  13.950 -0.1789  0.3183  0.5154
 6737TIP3   OH241625   2.865   4.587   2.159 -0.2160  0.0082  0.4484
 6737TIP3    H141626   2.911   4.542   2.089 -1.3655 -1.3948  0.5351
 6737TIP3    H241627   2.931   4.601   2.227  0.3619 -0.8111  0.0678
 6738TIP3   OH241628   5.345   6.063  12.202 -0.1937  0.2084  0.4229
 6738TIP3    H141629   5.361   5.986  12.148  0.6315  1.1874 -0.7700
 6738TIP3    H241630   5.376   6.038  12.289  1.7357 -0.2226 -0.3434
 6739TIP3   OH241631   4.368   2.626  13.089  0.1784 -0.0417 -0.0000
 6739TIP3    H141632   4.365   2.579  13.173 -0.7385  1.6967  0.9887
 6739TIP3    H241633   4.461   2.647  13.077  0.9314 -3.4418 -1.3287
 6740TIP3   OH241634   6.591   5.027   2.253 -0.2254  0.2585 -0.0244
 6740TIP3    H141635   6.579   4.947   2.202 -2.1565  0.2074  0.4156
 6740TIP3    H241636   6.634   4.999   2.333 -1.0592 -0.3867  0.2112
 6741TIP3   OH241637   1.011   5.137   3.614 -0.3278 -0.4062  0.1328
 6741TIP3    H141638   0.946   5.154   3.682 -0.4463 -1.7459  0.3978
 6741TIP3    H241639   0.999   5.206   3.550 -0.2572  0.8665  1.4432
 6742TIP3   OH241640   0.107   4.145  15.567 -0.4141 -0.0652 -0.2200
 6742TIP3    H141641   0.114   4.209  15.497 -1.9188 -1.2253 -1.4947
 6742TIP3    H241642   0.044   4.183  15.628  0.9201  0.9578  0.6028
 6743TIP3   OH241643   5.013   5.974   5.337 -0.0171 -0.3454 -0.1375
 6743TIP3    H141644   5.084   5.958   5.399  0.7285 -1.0686 -1.1359
 6743TIP3    H241645   5.029   6.063   5.305 -0.1069 -0.1627  0.3183
 6744TIP3   OH241646   1.457   3.649  15.748  0.3407 -0.5279 -0.1020
 6744TIP3    H141647   1.420   3.712  15.686  2.0693 -0.2734 -0.9310
 6744TIP3    H241648   1.546   3.634  15.717 -0.0199 -3.4751  0.0122
 6745TIP3   OH241649   4.969   1.393  13.189  0.1487 -0.2642 -0.7522
 6745TIP3    H141650   5.027   1.356  13.255 -1.6347  0.9942  1.6913
 6745TIP3    H241651   5.017   1.469  13.155  0.3922  0.1558  0.4765
 6746TIP3   OH241652   6.711   0.513  17.264  0.1266 -0.5279 -0.7855
 6746TIP3    H141653   6.694   0.471  17.179 -0.5119 -1.6429 -0.1327
 6746TIP3    H241654   6.652   0.588  17.266  0.5142 -0.1921 -1.5299
 6747TIP3   OH241655   5.471   0.071   5.451  0.1075 -0.0633  0.0554
 6747TIP3    H141656   5.560   0.096   5.425  0.3155 -1.4242 -0.6457
 6747TIP3    H241657   5.415   0.121   5.392  0.4765 -0.5142 -0.6946
 6748TIP3   OH241658   4.477   0.652   2.530 -0.1226  0.4833  0.5194
 6748TIP3    H141659   4.486   0.633   2.623 -2.2663 -2.4372  0.2847
 6748TIP3    H241660   4.512   0.575   2.485  1.3595  2.0435 -1.1767
 6749TIP3   OH241661   1.577   0.227  13.521  0.1866 -0.3501 -0.0667
 6749TIP3    H141662   1.541   0.152  13.475 -1.6045  1.1603 -1.2857
 6749TIP3    H241663   1.536   0.225  13.608  0.1001 -0.7292 -0.1152
 6750TIP3   OH241664   6.224   4.091   4.334  0.3861 -0.1843  0.6030
 6750TIP3    H141665   6.280   4.133   4.400  3.1717 -1.0697 -1.0148
 6750TIP3    H241666   6.243   3.998   4.343 -1.8916 -0.6918  0.8059
 6751TIP3   OH241667   2.384   1.487  15.410  0.5728 -0.0297  1.0508
 6751TIP3    H141668   2.405   1.567  15.458  1.6421 -0.3331  1.1188
 6751TIP3    H241669   2.446   1.422  15.443 -1.2680 -1.3284  2.1006
 6752TIP3   OH241670   2.671   1.870   2.763  0.2913 -0.5911  0.0702
 6752TIP3    H141671   2.650   1.825   2.681 -1.3911 -0.5415  0.4390
 6752TIP3    H241672   2.767   1.879   2.761  0.4586 -2.1104 -1.0799
 6753TIP3   OH241673   5.149   3.493   0.724 -0.7756 -0.2025  0.0132
 6753TIP3    H141674   5.063   3.535   0.728 -1.0439 -0.7259 -0.2195
 6753TIP3    H241675   5.210   3.561   0.754 -1.0866  0.6947 -1.3079
 6754TIP3   OH241676   6.233   4.648  12.024  0.3563  0.2049 -0.4996
 6754TIP3    H141677   6.222   4.655  12.119  1.5006  0.3612 -0.3606
 6754TIP3    H241678   6.328   4.637  12.012  0.0676 -1.4025 -1.5370
 6755TIP3   OH241679   6.238   2.834  15.203  0.0124  0.2708  0.0321
 6755TIP3    H141680   6.209   2.905  15.146 -0.5429  0.2520  0.2783
 6755TIP3    H241681   6.224   2.867  15.292  0.7699  0.2585  0.1598
 6756TIP3   OH241682   1.278   3.999   4.380  0.0136  0.6435 -0.0969
 6756TIP3    H141683   1.361   4.001   4.428 -0.5703  1.4044  0.9224
 6756TIP3    H241684   1.251   3.907   4.382  0.9231  0.3495 -0.6257
 6757TIP3   OH241685   1.114   1.980  12.415  0.3110  0.2671 -0.3263
 6757TIP3    H141686   1.033   1.948  12.456 -0.9757  0.6327 -2.3978
 6757TIP3    H241687   1.147   1.905  12.366  0.1096  0.6628 -1.0813
 6758TIP3   OH241688   3.792   4.803  14.255  0.2124  0.2639  0.8334
 6758TIP3    H141689   3.829   4.735  14.312 -1.5785 -0.5838  1.0551
 6758TIP3    H241690   3.755   4.867  14.316 -1.3307 -0.4342  0.7017
 6759TIP3   OH241691   1.644   5.401  15.051 -0.4718 -0.0693  0.3659
 6759TIP3    H141692   1.727   5.375  15.091 -0.6802 -0.4635  0.5518
 6759TIP3    H241693   1.594   5.438  15.123 -0.2006  0.8087  0.1147
 6760TIP3   OH241694   5.788   4.952   2.645 -0.4064 -0.1600 -0.2905
 6760TIP3    H141695   5.779   4.879   2.583  1.3062 -0.0269 -0.7568
 6760TIP3    H241696   5.707   4.952   2.695 -1.1353 -1.3268 -1.4261
 6761TIP3   OH241697   2.708   0.327  17.164  0.5204  0.2911 -0.6414
 6761TIP3    H141698   2.618   0.350  17.138  0.5598 -1.0336 -2.1131
 6761TIP3    H241699   2.759   0.405  17.145 -0.3745  1.3116  0.8356
 6762TIP3   OH241700   4.183   5.057   6.071 -0.6132 -0.5168  0.2163
 6762TIP3    H141701   4.105   5.095   6.031 -1.9260 -2.1808  1.0723
 6762TIP3    H241702   4.150   5.000   6.141  1.3353 -1.5711  0.3745
 6763TIP3   OH241703   3.727   4.562  11.549 -0.2145  0.0517  0.0582
 6763TIP3    H141704   3.800   4.609  11.590 -0.0022 -0.9866  0.9348
 6763TIP3    H241705   3.722   4.598  11.461 -0.0414  1.6636  0.6681
 6764TIP3   OH241706   0.190   2.070  15.274  0.1875  0.6680  0.3703
 6764TIP3    H141707   0.175   2.156  15.234 -2.1995  0.2729  0.2510
 6764TIP3    H241708   0.248   2.025  15.213 -0.2781  1.4512 -0.6768
 6765TIP3   OH241709   4.120   3.925   2.701  0.6501  0.2097  0.3302
 6765TIP3    H141710   4.088   3.866   2.769 -0.9530  0.9593  0.2745
 6765TIP3    H241711   4.069   3.902   2.623  1.4328  0.3377 -0.2323
 6766TIP3   OH241712   0.023   5.627  17.175 -0.5728 -0.1487 -1.0844
 6766TIP3    H141713  -0.033   5.630  17.098  0.5135  1.4146 -1.8910
 6766TIP3    H241714   0.078   5.550  17.162  0.5953  0.8870 -2.6761
 6767TIP3   OH241715   4.921   3.606   3.152  0.5992 -0.4145 -0.8810
 6767TIP3    H141716   4.861   3.555   3.207  2.4622 -1.4520  0.2859
 6767TIP3    H241717   4.960   3.541   3.093  0.2303  0.3368 -1.9897
 6768TIP3   OH241718   0.785   3.064  15.713 -0.5291 -0.1991 -0.0181
 6768TIP3    H141719   0.742   3.131  15.766 -1.3756 -0.9523  0.2689
 6768TIP3    H241720   0.869   3.104  15.687 -1.9497  1.8857 -1.8071
 6769TIP3   OH241721   5.676   0.440   5.466  0.2771  0.5030  0.1187
 6769TIP3    H141722   5.746   0.499   5.438  2.4469 -0.3487  3.1881
 6769TIP3    H241723   5.662   0.461   5.559 -2.4075 -0.5094  0.0427
 6770TIP3   OH241724   0.747   4.744  15.782  0.8761  0.5462  0.2798
 6770TIP3    H141725   0.831   4.718  15.743 -0.9528 -1.0404 -2.9615
 6770TIP3    H241726   0.687   4.673  15.759 -1.6354  2.1012  1.5981
 6771TIP3   OH241727   3.510   1.346  16.724  0.1694 -0.0580 -0.0785
 6771TIP3    H141728   3.573   1.396  16.775  0.6611  0.4870 -1.1964
 6771TIP3    H241729   3.485   1.404  16.652  0.6832 -1.3682 -1.3670
 6772TIP3   OH241730   0.853   5.560   0.259  0.3151 -0.3674 -0.2966
 6772TIP3    H141731   0.947   5.540   0.255  0.5063  0.5785 -0.7637
 6772TIP3    H241732   0.842   5.634   0.200 -0.6504 -0.1502  0.1427
 6773TIP3   OH241733   4.826   5.340  12.414  0.9551 -0.3777 -0.0685
 6773TIP3    H141734   4.820   5.247  12.390  3.0739 -0.1532 -1.7616
 6773TIP3    H241735   4.745   5.378  12.379  1.4868 -1.0663 -2.2184
 6774TIP3   OH241736   0.110   0.892   1.240  0.0044  0.0241 -0.1159
 6774TIP3    H141737   0.167   0.925   1.171 -0.5684  0.5514 -0.3423
 6774TIP3    H241738   0.086   0.804   1.211  0.5111 -0.1076 -0.1362
 6775TIP3   OH241739   2.641   3.306   4.594  0.0809  0.3927  0.3627
 6775TIP3    H141740   2.572   3.355   4.549 -0.3510 -0.6433 -0.1350
 6775TIP3    H241741   2.722   3.334   4.552 -0.3901 -1.3888 -1.9383
 6776TIP3   OH241742   0.999   6.691  13.710 -0.0830 -0.4393 -0.5410
 6776TIP3    H141743   0.911   6.697  13.674 -0.7107 -0.1666  1.0120
 6776TIP3    H241744   1.055   6.729  13.642 -1.4496  1.7900 -0.4947
 6777TIP3   OH241745   1.458   3.244   5.189  0.0113 -0.0643 -0.7548
 6777TIP3    H141746   1.511   3.317   5.222  1.4134 -1.6623  0.7456
 6777TIP3    H241747   1.369   3.264   5.218  0.2691  1.2590 -0.7834
 6778TIP3   OH241748   5.564   1.100  12.695  0.1777 -0.4533 -0.0000
 6778TIP3    H141749   5.585   1.179  12.744  1.4989 -0.4415 -0.5657
 6778TIP3    H241750   5.477   1.117  12.659  0.4787  0.7698 -0.1813
 6779TIP3   OH241751   5.436   0.846   6.874  0.2016  0.1578  0.1401
 6779TIP3    H141752   5.377   0.905   6.827  0.8471 -0.3573 -1.3815
 6779TIP3    H241753   5.393   0.760   6.870 -0.5169  0.3881  1.9523
 6780TIP3   OH241754   4.809   0.787   3.080  0.4613 -0.0072 -0.3846
 6780TIP3    H141755   4.823   0.696   3.056  2.7378  0.9848 -3.4554
 6780TIP3    H241756   4.884   0.810   3.135  1.0753  0.4988 -1.3931
 6781TIP3   OH241757   2.319   4.584   0.235  0.2404 -0.4401 -0.2630
 6781TIP3    H141758   2.315   4.544   0.322 -1.3661  1.0628  0.3992
 6781TIP3    H241759   2.343   4.675   0.251  1.9451 -0.5808 -1.6048
 6782TIP3   OH241760   2.181   1.484   3.616  0.6412 -0.0205  0.2325
 6782TIP3    H141761   2.219   1.427   3.683  0.8164 -0.7426 -0.4580
 6782TIP3    H241762   2.251   1.544   3.592  1.9318 -2.1896 -1.9964
 6783TIP3   OH241763   4.168   4.270   2.127  0.0653 -0.1672 -0.0236
 6783TIP3    H141764   4.085   4.284   2.172  0.1848  1.4328 -0.2314
 6783TIP3    H241765   4.229   4.328   2.173  0.4837  0.5418 -1.4331
 6784TIP3   OH241766   3.827   0.651  11.775  0.4845 -0.0296 -0.2304
 6784TIP3    H141767   3.864   0.660  11.687  0.0651 -0.4099 -0.4465
 6784TIP3    H241768   3.815   0.557  11.786 -0.5617  0.1013 -0.2133
 6785TIP3   OH241769   5.286   2.900  10.905  0.0258  0.2577  0.0011
 6785TIP3    H141770   5.192   2.900  10.889  0.0983  2.2768 -0.7943
 6785TIP3    H241771   5.322   2.843  10.836 -0.6649 -1.6322  1.1383
 6786TIP3   OH241772   1.443   6.379  15.562 -0.0567 -0.0747  0.8490
 6786TIP3    H141773   1.538   6.367  15.570  0.7378  3.5630 -0.8536
 6786TIP3    H241774   1.421   6.438  15.635 -0.6303  0.5485  0.1758
 6787TIP3   OH241775   5.438   4.783  15.426 -0.3634 -0.0500 -0.2046
 6787TIP3    H141776   5.481   4.791  15.511  0.1106  0.7515 -0.5111
 6787TIP3    H241777   5.509   4.771  15.363 -0.7404 -1.1458 -0.4399
 6788TIP3   OH241778   1.765   2.313  13.361 -0.0726 -0.1174  0.3081
 6788TIP3    H141779   1.858   2.333  13.361 -0.0034 -0.3756  1.2334
 6788TIP3    H241780   1.724   2.386  13.408 -0.4833  0.5427 -1.0310
 6789TIP3   OH241781   3.637   5.765   1.738  0.4816 -0.4883 -0.5231
 6789TIP3    H141782   3.638   5.826   1.665 -0.4202 -0.9176 -0.9106
 6789TIP3    H241783   3.661   5.681   1.699 -1.0921 -0.9521 -0.5763
 6790TIP3   OH241784   3.278   1.398   1.830 -0.1966 -0.0517 -0.7410
 6790TIP3    H141785   3.234   1.319   1.862  0.3017 -0.2068 -0.4192
 6790TIP3    H241786   3.371   1.376   1.836 -0.0374  0.7582 -0.1273
 6791TIP3   OH241787   5.713   1.779  13.860  0.2108 -0.0674 -0.2952
 6791TIP3    H141788   5.748   1.741  13.779  2.0030 -1.5467  1.0668
 6791TIP3    H241789   5.789   1.820  13.901 -0.1386 -1.1827  1.5906
 6792TIP3   OH241790   4.882   2.689   5.851 -0.0690  0.1988  0.1078
 6792TIP3    H141791   4.889   2.684   5.946  1.0208 -1.4576 -0.0016
 6792TIP3    H241792   4.811   2.750   5.835 -0.3110  0.4758  1.9861
 6793TIP3   OH241793   5.133   5.650   1.676  0.1595  0.5299 -0.6926
 6793TIP3    H141794   5.179   5.568   1.655  0.0974  0.3921 -0.2899
 6793TIP3    H241795   5.148   5.663   1.770 -0.3831  0.6360 -0.6180
 6794TIP3   OH241796   5.065   6.448  13.451 -0.2785  0.1315  0.4393
 6794TIP3    H141797   5.087   6.454  13.358  1.9687 -1.7992  0.7630
 6794TIP3    H241798   4.986   6.394  13.453  0.5214 -1.1376 -0.3205
 6795TIP3   OH241799   0.772   1.565  13.927 -0.0929 -0.0731 -0.3890
 6795TIP3    H141800   0.812   1.577  13.841  1.1908 -0.5327  0.1238
 6795TIP3    H241801   0.680   1.548  13.907  0.0543  0.4351 -1.6351
 6796TIP3   OH241802   4.475   4.839  15.152  0.4359  0.0335  0.2030
 6796TIP3    H141803   4.487   4.804  15.063  1.1887 -1.2094  0.7658
 6796TIP3    H241804   4.548   4.899  15.164  0.4134  0.0943  0.0528
 6797TIP3   OH241805   5.564   4.451  14.432  0.3416 -0.0529 -0.1674
 6797TIP3    H141806   5.576   4.412  14.519 -1.8043  2.2421  1.3025
 6797TIP3    H241807   5.469   4.447  14.417  0.6880 -0.8122 -2.6943
 6798TIP3   OH241808   4.300   5.145  13.834 -0.1148  0.4464 -0.2738
 6798TIP3    H141809   4.363   5.160  13.904  1.0891  0.0567 -1.2482
 6798TIP3    H241810   4.266   5.232  13.814 -0.8446  0.5109  1.0956
 6799TIP3   OH241811   2.233   1.875   5.701 -0.6896 -0.5283  0.2653
 6799TIP3    H141812   2.309   1.853   5.648 -1.2043  1.8026 -1.6334
 6799TIP3    H241813   2.168   1.808   5.679  0.5685 -2.2760  1.5717
 6800TIP3   OH241814   2.500   4.950  16.584  0.4253 -0.1592 -0.0593
 6800TIP3    H141815   2.506   4.999  16.502  0.5478  0.5457  0.3594
 6800TIP3    H241816   2.524   5.014  16.651 -0.8580 -0.3801  0.6342
 6801TIP3   OH241817   2.561   2.390   0.390 -0.2989 -0.3085  0.5187
 6801TIP3    H141818   2.581   2.367   0.299  0.4080 -1.2945  0.9072
 6801TIP3    H241819   2.598   2.477   0.401  0.9730 -0.7914  0.2800
 6802TIP3   OH241820   5.529   0.568   0.930  0.4213 -0.2871 -0.7873
 6802TIP3    H141821   5.587   0.545   1.002 -0.0073 -0.6653 -0.5549
 6802TIP3    H241822   5.444   0.531   0.955 -0.0376  0.6820 -0.8946
 6803TIP3   OH241823   5.928   4.252  17.384  0.1516 -0.1909 -0.7554
 6803TIP3    H141824   5.906   4.306  17.460 -1.5288 -3.1723  1.0757
 6803TIP3    H241825   5.869   4.282  17.315  0.7545  1.6601 -0.5097
 6804TIP3   OH241826   1.376   2.008   6.258  0.3627  0.2865  0.3067
 6804TIP3    H141827   1.447   1.978   6.315  0.2121  0.3470  0.5295
 6804TIP3    H241828   1.409   2.089   6.219 -0.0205  0.9470  1.3073
 6805TIP3   OH241829   6.370   5.396  11.248 -0.0071  0.0357  0.1025
 6805TIP3    H141830   6.409   5.322  11.293 -2.3337 -1.0927  0.4147
 6805TIP3    H241831   6.278   5.373  11.238 -0.4411  2.0827 -1.4915
 6806TIP3   OH241832   1.946   4.569  12.664  0.8123 -0.5075 -0.6847
 6806TIP3    H141833   2.008   4.534  12.601  1.4707 -0.5221 -0.0487
 6806TIP3    H241834   1.989   4.646  12.700  0.4057 -0.4425 -0.3240
 6807TIP3   OH241835   0.484   3.695  13.348  0.1661 -0.2849  0.0772
 6807TIP3    H141836   0.502   3.684  13.442  0.6427 -0.9056 -0.0828
 6807TIP3    H241837   0.468   3.789  13.338 -0.1551 -0.2494  0.8241
 6808TIP3   OH241838   4.683   0.787   2.790 -0.0214  0.4917  0.0387
 6808TIP3    H141839   4.737   0.762   2.715 -1.1182 -0.0813 -0.5842
 6808TIP3    H241840   4.722   0.741   2.864  1.4432  1.5380 -0.0337
 6809TIP3   OH241841   1.076   1.570  11.391 -0.5792  0.4170 -0.1158
 6809TIP3    H141842   1.083   1.631  11.318  0.9591  1.5180  0.8695
 6809TIP3    H241843   1.001   1.601  11.441 -1.0874  0.2064 -0.7369
 6810TIP3   OH241844   0.567   4.384   2.639 -0.4673  0.0513 -0.3481
 6810TIP3    H141845   0.644   4.340   2.606 -0.1190  0.7787 -0.5319
 6810TIP3    H241846   0.499   4.316   2.643 -1.2161  0.2906 -4.6130
 6811TIP3   OH241847   1.991   6.642  15.027  0.8912 -0.0639 -0.1628
 6811TIP3    H141848   2.027   6.566  15.072  0.1112 -1.5748 -1.9631
 6811TIP3    H241849   1.963   6.609  14.942 -0.3908  2.0393 -0.6407
 6812TIP3   OH241850   4.547   2.337  15.326  0.0322  0.7716  0.1483
 6812TIP3    H141851   4.637   2.365  15.344 -0.1284  0.9779  0.6719
 6812TIP3    H241852   4.495   2.378  15.396 -0.5220  0.9632 -0.3703
 6813TIP3   OH241853   1.049   0.007  14.674  0.1220  0.5509 -0.2462
 6813TIP3    H141854   0.969   0.052  14.647  0.8654  1.3357 -1.2725
 6813TIP3    H241855   1.071  -0.049  14.600  0.0783 -0.2858  0.3702
 6814TIP3   OH241856   5.808   2.753  10.847  0.1122 -0.2135 -0.0031
 6814TIP3    H141857   5.891   2.710  10.866  1.2092  1.8575  0.2577
 6814TIP3    H241858   5.823   2.799  10.764 -1.0151 -0.3559 -0.3027
 6815TIP3   OH241859   0.664   1.752   2.408 -0.8346 -0.0149  0.6010
 6815TIP3    H141860   0.742   1.724   2.454  0.9156  1.9065 -0.9858
 6815TIP3    H241861   0.651   1.687   2.338 -1.3533 -0.9319  1.5248
 6816TIP3   OH241862   6.477   5.454   4.725 -0.8843 -0.5972 -0.4943
 6816TIP3    H141863   6.449   5.395   4.795 -0.2973  0.6351  0.8282
 6816TIP3    H241864   6.572   5.452   4.729 -0.8342 -0.7751 -1.5145
 6817TIP3   OH241865   4.793   6.280  13.075 -0.1336 -0.2179  0.2378
 6817TIP3    H141866   4.842   6.245  13.149 -0.6595 -0.8663  0.2939
 6817TIP3    H241867   4.842   6.250  12.998  0.6105  0.7577  0.3224
 6818TIP3   OH241868   0.993   2.858  17.133 -0.3041  0.5755 -0.5011
 6818TIP3    H141869   0.921   2.913  17.102  0.1771  1.2284 -0.4712
 6818TIP3    H241870   1.033   2.822  17.054 -0.5008  0.4101 -0.5273
 6819TIP3   OH241871   6.268   3.113  15.586  0.1989  0.3266  0.4994
 6819TIP3    H141872   6.278   3.190  15.530 -0.5629  0.1150  0.0617
 6819TIP3    H241873   6.326   3.130  15.660  2.8288 -0.2814 -1.2555
 6820TIP3   OH241874   3.790   0.564  16.072  0.2706  0.2477  0.0166
 6820TIP3    H141875   3.793   0.501  16.144  2.7927  0.6360  0.3216
 6820TIP3    H241876   3.729   0.632  16.102 -1.4542 -1.3274  0.2311
 6821TIP3   OH241877   5.500   4.360   2.989 -0.2261  0.4181 -0.1477
 6821TIP3    H141878   5.462   4.273   2.975  1.6431 -0.4804  0.0869
 6821TIP3    H241879   5.541   4.355   3.075 -3.4196  2.8501  1.7208
 6822TIP3   OH241880   5.630   5.203   0.628  0.1647  0.2236  0.6323
 6822TIP3    H141881   5.619   5.118   0.672  1.4148 -0.8876 -1.0658
 6822TIP3    H241882   5.710   5.239   0.665  0.3641  0.0174  0.4092
 6823TIP3   OH241883   4.086   3.695   5.435  0.0589 -0.2625 -0.7452
 6823TIP3    H141884   4.141   3.676   5.511 -0.3398 -0.3237 -0.4605
 6823TIP3    H241885   4.006   3.732   5.473  0.4222  1.0783 -1.2200
 6824TIP3   OH241886   1.571   2.972  14.903  0.0722 -0.2177 -0.1838
 6824TIP3    H141887   1.626   2.972  14.981  0.6783 -0.6019 -0.5996
 6824TIP3    H241888   1.488   2.936  14.932 -1.5702  4.2060  1.4988
 6825TIP3   OH241889   6.460   1.785   2.659 -0.3857 -0.5291  0.0115
 6825TIP3    H141890   6.554   1.799   2.668 -0.4401  1.1521 -1.3671
 6825TIP3    H241891   6.453   1.711   2.598  0.1251  0.6962 -1.6224
 6826TIP3   OH241892   5.297   4.069   1.026 -0.4134  0.1483 -0.1232
 6826TIP3    H141893   5.281   4.141   0.965 -0.9618  2.4863  2.5614
 6826TIP3    H241894   5.224   4.008   1.011  0.1835 -0.0813 -2.6034
 6827TIP3   OH241895   6.717   6.243  16.588 -1.1122  0.1995  0.2918
 6827TIP3    H141896   6.763   6.201  16.515 -1.0480 -0.0744  0.4884
 6827TIP3    H241897   6.631   6.202  16.589 -2.1302  2.0877 -1.3343
 6828TIP3   OH241898   1.579   4.425  16.988  0.4027 -0.3772  0.2592
 6828TIP3    H141899   1.550   4.347  16.940  1.4168  0.1246 -1.2268
 6828TIP3    H241900   1.497   4.465  17.018 -0.3077 -0.6375 -1.1900
 6829TIP3   OH241901   0.908   2.432  16.892 -0.0134  0.0649  0.2217
 6829TIP3    H141902   0.832   2.405  16.841 -0.3656 -0.7780  1.1625
 6829TIP3    H241903   0.968   2.470  16.828  0.5587 -3.0166 -1.2426
 6830TIP3   OH241904   5.185   0.660  12.551  0.0599 -0.7175  0.6768
 6830TIP3    H141905   5.227   0.738  12.587  0.4817 -0.2753 -0.7101
 6830TIP3    H241906   5.136   0.623  12.624 -0.7426  1.2533  1.2112
 6831TIP3   OH241907   2.205   2.347  11.684  0.8058  0.0758  0.0631
 6831TIP3    H141908   2.278   2.409  11.677 -1.6651  3.1220 -1.3230
 6831TIP3    H241909   2.145   2.389  11.746 -1.3840 -0.4018 -1.6421
 6832TIP3   OH241910   1.593   4.574  15.954 -0.0280  0.3085 -0.3140
 6832TIP3    H141911   1.611   4.637  16.023  0.3987 -1.0817  0.8851
 6832TIP3    H241912   1.654   4.502  15.970 -0.8337 -0.6383 -1.3387
 6833TIP3   OH241913   1.389   0.981  15.173 -0.2380 -0.2355  0.1238
 6833TIP3    H141914   1.308   0.979  15.225 -0.2101 -0.5104  0.1577
 6833TIP3    H241915   1.399   1.073  15.148 -0.5881 -0.2064  0.0791
 6834TIP3   OH241916   1.843   5.272  12.493  0.3908  0.5449 -0.1382
 6834TIP3    H141917   1.860   5.222  12.572 -1.5905  1.6606  1.0655
 6834TIP3    H241918   1.880   5.359  12.511  0.2254  0.7078 -0.5577
 6835TIP3   OH241919   4.927   0.806   0.051 -0.2352 -0.1249  0.2084
 6835TIP3    H141920   4.966   0.873  -0.006 -0.9663 -0.1709 -0.3467
 6835TIP3    H241921   4.976   0.815   0.133  0.4343  0.3345 -0.2234
 6836TIP3   OH241922   1.314   6.212  14.142 -0.2826  0.3772 -0.1299
 6836TIP3    H141923   1.270   6.294  14.118 -0.6267  0.0494 -0.6145
 6836TIP3    H241924   1.384   6.203  14.079 -0.3293  0.2260 -0.1596
 6837TIP3   OH241925   6.421   4.977   0.716  0.8450 -0.5031 -0.0076
 6837TIP3    H141926   6.362   4.904   0.696 -1.4664  1.5047 -1.1077
 6837TIP3    H241927   6.448   5.010   0.631 -0.3721  1.5208  0.3171
 6838TIP3   OH241928   0.494   3.108   5.039  0.3230 -0.5990  0.0683
 6838TIP3    H141929   0.547   3.177   5.078 -1.4696  0.3882  0.8959
 6838TIP3    H241930   0.484   3.135   4.947  0.1537 -0.0575  0.2378
 6839TIP3   OH241931   4.201   6.558   4.196  0.1897 -0.1015 -0.4039
 6839TIP3    H141932   4.184   6.570   4.103  1.0129 -0.7971 -0.6616
 6839TIP3    H241933   4.247   6.638   4.223  1.4454 -0.5891 -1.0036
 6840TIP3   OH241934   2.893   3.679  17.076 -0.0019  0.0391 -0.1721
 6840TIP3    H141935   2.900   3.659  17.169 -2.2157  1.0928  0.2980
 6840TIP3    H241936   2.964   3.740  17.059 -1.0631  1.8862  1.5221
 6841TIP3   OH241937   6.185   6.529   5.442  0.5877  0.4092 -0.0847
 6841TIP3    H141938   6.120   6.566   5.502  0.5289  0.2145 -0.0279
 6841TIP3    H241939   6.268   6.538   5.488  0.6177  0.7607 -0.2031
 6842TIP3   OH241940   3.762   0.630   4.273  0.1473  0.5666  0.7001
 6842TIP3    H141941   3.815   0.671   4.342  1.2661 -0.7185  0.6389
 6842TIP3    H241942   3.781   0.680   4.194 -0.4841  1.5109  1.1283
 6843TIP3   OH241943   4.475   4.261   2.139 -0.2302 -0.2492 -0.1521
 6843TIP3    H141944   4.431   4.251   2.224 -1.7502  0.8395 -0.7793
 6843TIP3    H241945   4.462   4.353   2.116  2.4110  0.1439 -0.3838
 6844TIP3   OH241946   2.807   1.759  15.278  0.2687  0.0536 -0.0887
 6844TIP3    H141947   2.718   1.795  15.282 -0.2401 -1.2360  0.6284
 6844TIP3    H241948   2.806   1.702  15.201  0.8661  0.9785 -0.8088
 6845TIP3   OH241949   4.378   4.373  13.968  0.2872 -0.1295 -0.2344
 6845TIP3    H141950   4.328   4.326  13.901  0.1850 -0.5389  0.1235
 6845TIP3    H241951   4.403   4.456  13.926 -0.3074 -0.1143 -0.5656
 6846TIP3   OH241952   0.241   4.870   0.027 -0.3172 -0.1492  0.2923
 6846TIP3    H141953   0.296   4.864   0.105  2.0411 -2.2447 -1.3766
 6846TIP3    H241954   0.293   4.920  -0.035  0.2288 -2.9239 -1.6454
 6847TIP3   OH241955   1.622   5.280  12.134  0.0379 -0.1230  0.0995
 6847TIP3    H141956   1.605   5.295  12.227 -1.2030 -1.0223  0.0334
 6847TIP3    H241957   1.539   5.298  12.091  0.2695 -0.9200 -0.6936
 6848TIP3   OH241958   4.574   2.318   0.836 -0.5985  0.3251 -0.3069
 6848TIP3    H141959   4.631   2.394   0.828 -1.4283  1.0168  0.2587
 6848TIP3    H241960   4.599   2.262   0.763  0.6938  0.6815 -0.1729
 6849TIP3   OH241961   2.506   2.330   1.977 -0.5594 -0.6325  0.2109
 6849TIP3    H141962   2.511   2.400   1.911  0.1905  0.3499  1.2641
 6849TIP3    H241963   2.597   2.314   2.001 -0.7136 -2.0583 -0.0630
 6850TIP3   OH241964   0.238   2.604   4.673 -0.7225 -0.4147 -0.2234
 6850TIP3    H141965   0.253   2.670   4.606 -1.9056 -1.1242 -1.2254
 6850TIP3    H241966   0.300   2.626   4.743  0.5724  0.3206 -1.5525
 6851TIP3   OH241967   2.927   5.245   5.109  0.2075  0.2685 -0.1049
 6851TIP3    H141968   2.878   5.165   5.091 -1.5944  0.5085  2.9694
 6851TIP3    H241969   2.886   5.281   5.188  3.2820  2.2964  0.7576
 6852TIP3   OH241970   2.365   5.387   3.136  0.7031  0.4864  0.0224
 6852TIP3    H141971   2.413   5.451   3.083 -0.6698  0.7905 -0.8922
 6852TIP3    H241972   2.314   5.441   3.197  0.2279  0.2390 -0.1532
 6853TIP3   OH241973   3.954   2.388   3.535  0.5435 -1.1159 -0.3914
 6853TIP3    H141974   3.918   2.440   3.607  1.0651 -1.6111  0.2411
 6853TIP3    H241975   4.025   2.442   3.501  0.7644 -1.1862 -0.0549
 6854TIP3   OH241976   1.684   2.453  11.880  0.3170 -0.0356  0.1138
 6854TIP3    H141977   1.627   2.387  11.840  1.1898 -2.3456  2.4133
 6854TIP3    H241978   1.624   2.521  11.910 -0.6063  0.3719 -2.4013
 6855TIP3   OH241979   1.684   5.361   1.176 -0.2931  0.1502  0.3130
 6855TIP3    H141980   1.611   5.321   1.223 -1.2566 -0.5111 -1.6558
 6855TIP3    H241981   1.650   5.446   1.146  0.4669  0.7753  1.1762
 6856TIP3   OH241982   5.459   5.988  11.158  0.3360  0.0852  0.2373
 6856TIP3    H141983   5.537   5.932  11.151  0.9848  0.5612  2.7521
 6856TIP3    H241984   5.385   5.927  11.152  0.9409 -0.6273 -0.2157
 6857TIP3   OH241985   6.538   1.373   3.040 -0.5918  0.2027 -0.0666
 6857TIP3    H141986   6.564   1.306   2.978 -0.3976  0.0540  0.1713
 6857TIP3    H241987   6.444   1.385   3.026 -0.8566 -0.9102  0.6432
 6858TIP3   OH241988   2.500   2.067  16.840  0.4087  0.2994  0.6304
 6858TIP3    H141989   2.432   2.124  16.875 -0.2114 -0.8898  1.4237
 6858TIP3    H241990   2.572   2.073  16.903  0.3619  0.2302  0.6901
 6859TIP3   OH241991   2.680   2.215   2.242  0.4111  0.4274  0.1554
 6859TIP3    H141992   2.681   2.156   2.318  0.2916 -0.6809 -0.6784
 6859TIP3    H241993   2.762   2.198   2.196  0.9141  1.7675  0.5104
 6860TIP3   OH241994   0.749   2.229   3.819  0.0667 -0.1801 -0.1420
 6860TIP3    H141995   0.698   2.255   3.896 -0.1356  0.6160 -0.5308
 6860TIP3    H241996   0.825   2.287   3.820  0.5555 -0.8107 -0.0205
 6861TIP3   OH241997   2.249   6.478   0.619 -0.8618  0.2015  0.2866
 6861TIP3    H141998   2.321   6.421   0.591 -0.8864 -0.3144  1.2329
 6861TIP3    H241999   2.174   6.449   0.568 -0.4060  0.7472 -0.7134
 6862TIP3   OH242000   3.647   3.358  13.775 -0.2401  0.0383  0.2085
 6862TIP3    H142001   3.645   3.327  13.685  0.4199  1.7340 -0.4336
 6862TIP3    H242002   3.663   3.452  13.768 -0.6656  0.2973  2.0864
 6863TIP3   OH242003   2.905   0.516  13.622 -0.0293 -0.3857  0.6822
 6863TIP3    H142004   2.875   0.427  13.605 -2.3009  0.4912 -0.3595
 6863TIP3    H242005   2.829   0.560  13.660  0.8229  1.2895  0.5622
 6864TIP3   OH242006   2.982   5.522   5.962 -0.0907  0.2846  0.5832
 6864TIP3    H142007   2.921   5.515   6.035  1.6871  4.5066  2.8463
 6864TIP3    H242008   2.965   5.608   5.924  2.8325  0.6805 -0.1376
 6865TIP3   OH242009   3.601   5.616  17.199  0.5304  0.3293  0.1674
 6865TIP3    H142010   3.688   5.623  17.239  0.5777  0.4979  0.0379
 6865TIP3    H242011   3.604   5.677  17.125  0.8155 -0.7906 -0.7725
 6866TIP3   OH242012   5.695   5.555   3.784  0.3112 -0.1377  0.1007
 6866TIP3    H142013   5.726   5.527   3.698 -2.9043  0.3525 -1.3633
 6866TIP3    H242014   5.604   5.526   3.788 -0.1925  1.4307  2.6081
 6867TIP3   OH242015   4.638   1.760   2.761 -0.0682 -0.1220  0.9131
 6867TIP3    H142016   4.632   1.824   2.689  1.8061  2.3680  2.8085
 6867TIP3    H242017   4.549   1.757   2.797  0.0755  2.9271  1.8588
 6868TIP3   OH242018   0.556   6.354   5.368 -0.0593  0.0809 -0.1576
 6868TIP3    H142019   0.548   6.405   5.448 -2.9399  2.0385 -1.4897
 6868TIP3    H242020   0.481   6.294   5.370  0.0394 -0.1026 -1.2098
 6869TIP3   OH242021   5.759   1.888  12.567  0.1821  0.3866 -0.7361
 6869TIP3    H142022   5.826   1.867  12.501  1.1412  1.3278 -0.0837
 6869TIP3    H242023   5.809   1.914  12.644 -0.9164  2.4370 -0.6501
 6870TIP3   OH242024   6.376   0.744  11.964 -0.2359 -0.2619 -0.0906
 6870TIP3    H142025   6.380   0.733  12.059 -0.7528 -0.6706 -0.1141
 6870TIP3    H242026   6.396   0.837  11.950  1.5270 -0.5563  0.2929
 6871TIP3   OH242027   1.202   4.683   1.194 -0.0243  0.5772 -0.2909
 6871TIP3    H142028   1.136   4.721   1.136 -1.0792 -0.7643 -0.0445
 6871TIP3    H242029   1.231   4.756   1.249 -1.0232  1.2929 -0.6886
 6872TIP3   OH242030   5.636   4.176  15.502  0.2756  0.8753  0.5623
 6872TIP3    H142031   5.573   4.107  15.481  0.0420  0.8553  1.3004
 6872TIP3    H242032   5.582   4.248  15.535  0.4880  1.5345 -0.4773
 6873TIP3   OH242033   2.706   5.224   5.688 -0.1819  0.2715  0.5459
 6873TIP3    H142034   2.632   5.184   5.641  0.0682  0.4585 -0.0201
 6873TIP3    H242035   2.779   5.164   5.672  0.1725  0.9040 -0.2332
 6874TIP3   OH242036   5.308   1.776   5.934  0.1904 -0.1845  0.0081
 6874TIP3    H142037   5.294   1.866   5.961 -1.8886 -0.3262 -0.4012
 6874TIP3    H242038   5.266   1.769   5.848  0.3040 -1.5176  0.0279
 6875TIP3   OH242039   5.736   0.789   3.118 -0.0420 -0.5868  0.1599
 6875TIP3    H142040   5.698   0.734   3.186 -1.4966 -0.8419 -0.8199
 6875TIP3    H242041   5.738   0.732   3.040  2.6565 -0.6981  0.2038
 6876TIP3   OH242042   5.647   5.970   5.715 -0.6947 -0.6207  0.1930
 6876TIP3    H142043   5.618   5.879   5.710 -0.3507 -0.7482  0.4852
 6876TIP3    H242044   5.725   5.974   5.660 -1.4746 -0.1837 -0.9157
 6877TIP3   OH242045   1.795   3.676  11.375  0.4861 -0.5564 -0.2000
 6877TIP3    H142046   1.814   3.624  11.296  1.0918 -1.3425  0.4466
 6877TIP3    H242047   1.699   3.679  11.379  0.4475 -0.3021 -1.0904
 6878TIP3   OH242048   0.476   0.658   1.061 -0.0379 -0.0805 -0.3708
 6878TIP3    H142049   0.462   0.647   1.155 -0.2080 -1.0806 -0.5002
 6878TIP3    H242050   0.536   0.733   1.054 -0.8128  0.6417  0.4708
 6879TIP3   OH242051   4.523   1.917  17.375  0.1722 -0.7830 -0.2319
 6879TIP3    H142052   4.531   1.931  17.281  0.2984 -0.3325 -0.1543
 6879TIP3    H242053   4.613   1.921  17.408 -0.0390  1.5524  0.2568
 6880TIP3   OH242054   4.691   3.692  11.168  0.1198  0.0796 -0.3593
 6880TIP3    H142055   4.670   3.655  11.082 -2.3522  2.5583 -0.9668
 6880TIP3    H242056   4.745   3.769  11.148  2.5665 -1.2910  0.6414
 6881TIP3   OH242057   1.321   5.206   5.013  0.4162 -0.5181 -0.0580
 6881TIP3    H142058   1.238   5.159   5.015  0.3462 -0.3922  0.0210
 6881TIP3    H242059   1.297   5.298   5.029  0.5651 -0.4755 -0.0772
 6882TIP3   OH242060   0.588   4.055   3.211  0.8349  0.4947 -0.1724
 6882TIP3    H142061   0.541   4.075   3.292 -0.1297  0.6366 -0.7543
 6882TIP3    H242062   0.580   4.134   3.158 -1.1477 -0.5767 -1.6103
 6883TIP3   OH242063   0.802   6.624  12.574 -0.3156  0.1188 -0.3089
 6883TIP3    H142064   0.893   6.605  12.597  0.1291 -0.2678 -2.2949
 6883TIP3    H242065   0.766   6.664  12.654  1.5425  0.1781  0.5522
 6884TIP3   OH242066   1.303   6.348   3.698 -1.0357  0.4913 -1.1447
 6884TIP3    H142067   1.318   6.411   3.628  0.6083 -0.4703 -1.7372
 6884TIP3    H242068   1.208   6.339   3.704 -1.2375  1.7600 -2.1818
 6885TIP3   OH242069   3.214   3.779   5.916  0.4876  0.5045  0.4171
 6885TIP3    H142070   3.181   3.689   5.913 -1.2431  1.1159 -2.0726
 6885TIP3    H242071   3.156   3.824   5.979  0.7101  0.1190  0.9001
 6886TIP3   OH242072   0.700   2.206  11.254 -1.1747  0.4012  0.6896
 6886TIP3    H142073   0.762   2.143  11.218 -1.0137  0.7533  0.3410
 6886TIP3    H242074   0.622   2.154  11.274 -2.0104  0.4341 -1.9713
 6887TIP3   OH242075   1.604   4.606  15.324  0.0125  0.2427  0.6715
 6887TIP3    H142076   1.583   4.696  15.346  0.2969 -0.0901  2.4782
 6887TIP3    H242077   1.555   4.554  15.388  1.3138 -0.7902  0.8738
 6888TIP3   OH242078   5.995   5.800   3.504  0.6623 -0.0557  0.1598
 6888TIP3    H142079   5.980   5.881   3.553  0.3912  0.0905 -0.1553
 6888TIP3    H242080   6.039   5.742   3.566 -2.1067 -0.8898  1.5289
 6889TIP3   OH242081   5.092   6.597  12.061  0.1630  0.4769 -0.0344
 6889TIP3    H142082   5.041   6.568  11.985  0.2805 -0.4379  0.2229
 6889TIP3    H242083   5.169   6.641  12.023 -0.0904  0.5776 -0.4365
 6890TIP3   OH242084   6.168   5.854  15.925  0.6238  0.0095 -0.3519
 6890TIP3    H142085   6.220   5.920  15.879 -0.6418  1.6787  0.5149
 6890TIP3    H242086   6.077   5.881  15.911 -0.0585 -2.4358 -1.2478
 6891TIP3   OH242087   5.690   2.896  11.917  0.3753 -0.2106  0.0601
 6891TIP3    H142088   5.705   2.858  11.831  0.3736  0.5401 -0.2795
 6891TIP3    H242089   5.620   2.961  11.903 -0.0023 -0.4643  0.7270
 6892TIP3   OH242090   4.737   0.569   6.167  0.3930  0.0938 -0.4067
 6892TIP3    H142091   4.758   0.477   6.187  1.8369  0.4794  0.0019
 6892TIP3    H242092   4.693   0.602   6.246  1.6477  0.2688  0.2434
 6893TIP3   OH242093   3.340   4.927   2.881 -0.1224  0.2817  0.6462
 6893TIP3    H142094   3.314   4.837   2.864  3.2134 -0.4672 -1.4939
 6893TIP3    H242095   3.371   4.927   2.971  1.5239 -1.2488  0.1198
 6894TIP3   OH242096   3.160   0.580  13.430  0.3682  0.0187  0.7860
 6894TIP3    H142097   3.070   0.550  13.420  0.3045  0.6098 -0.6964
 6894TIP3    H242098   3.163   0.663  13.382  0.5619  2.4726  4.6727
 6895TIP3   OH242099   2.304   0.866   5.163 -0.1865  0.2725  0.3322
 6895TIP3    H142100   2.387   0.912   5.152 -0.1994 -0.1568 -2.1435
 6895TIP3    H242101   2.327   0.773   5.163 -0.7688 -0.0468 -3.6751
 6896TIP3   OH242102   5.655   6.338  15.867 -0.2662 -0.4417 -1.2017
 6896TIP3    H142103   5.653   6.432  15.849  0.8161 -0.5666 -2.0443
 6896TIP3    H242104   5.573   6.321  15.914 -0.8705  0.7763 -1.7739
 6897TIP3   OH242105   5.375   1.784   4.331  0.3579  0.1847  0.0610
 6897TIP3    H142106   5.352   1.739   4.413  0.7844 -1.9471 -0.9078
 6897TIP3    H242107   5.470   1.789   4.333  0.2949  1.4226  0.3182
 6898TIP3   OH242108   0.995   1.065   3.997  0.0861  0.6324 -0.5844
 6898TIP3    H142109   1.070   1.124   3.989 -1.4147  2.7154 -0.0781
 6898TIP3    H242110   0.921   1.115   3.961 -1.4831 -0.4746  0.9204
 6899TIP3   OH242111   3.133   4.964  14.924 -0.4152 -0.2924  0.2036
 6899TIP3    H142112   3.091   5.020  14.990 -1.3513  0.0928 -0.6947
 6899TIP3    H242113   3.078   4.973  14.846  0.1277 -1.4890 -0.3487
 6900TIP3   OH242114   2.077   6.065  16.491  0.0431 -0.6240  0.2760
 6900TIP3    H142115   2.102   6.158  16.485  3.0704 -1.2520  1.4463
 6900TIP3    H242116   2.071   6.037  16.399  0.7742  0.3482 -0.0968
 6901TIP3   OH242117   4.680   6.080   0.748 -0.2840  0.2366 -0.6840
 6901TIP3    H142118   4.716   6.087   0.660  0.3287  3.9140 -0.2750
 6901TIP3    H242119   4.587   6.099   0.738 -0.6387 -1.3438 -0.7153
 6902TIP3   OH242120   3.480   0.161   4.341 -0.0940  0.3262 -0.5672
 6902TIP3    H142121   3.558   0.207   4.309 -1.7108  1.8230 -2.6352
 6902TIP3    H242122   3.494   0.153   4.436  2.4154  0.7879 -0.8394
 6903TIP3   OH242123   3.664   5.575  15.925  0.1538  0.2200  0.5989
 6903TIP3    H142124   3.590   5.535  15.878 -0.8676 -0.4483  2.6551
 6903TIP3    H242125   3.716   5.501  15.955  1.3524  0.6764 -0.3138
 6904TIP3   OH242126   4.956   1.417   5.263 -0.2371  0.1117 -0.5418
 6904TIP3    H142127   4.964   1.448   5.172  0.3129  1.0582 -0.1899
 6904TIP3    H242128   4.927   1.326   5.255 -1.3555  0.5261 -1.6501
 6905TIP3   OH242129   4.185   0.556  12.012 -0.1226 -0.4098 -0.3539
 6905TIP3    H142130   4.239   0.530  12.087  1.3189 -1.5310 -1.6904
 6905TIP3    H242131   4.095   0.539  12.039  0.0040  2.3996  2.2965
 6906TIP3   OH242132   1.993   0.515  11.150  1.5013 -0.1793  0.3995
 6906TIP3    H142133   2.059   0.464  11.196  1.7715  0.0367  0.2507
 6906TIP3    H242134   2.041   0.586  11.108  1.2190 -0.1934  0.0374
 6907TIP3   OH242135   0.064   4.730  16.976 -0.1490  0.0153 -0.3320
 6907TIP3    H142136   0.130   4.671  16.941  1.4620  1.0426  0.8228
 6907TIP3    H242137   0.114   4.805  17.010 -2.0318  1.5534 -0.7785
 6908TIP3   OH242138   4.726   6.536  12.967  0.0008  0.0604  0.1995
 6908TIP3    H142139   4.804   6.575  12.928 -0.8935 -0.5861 -2.4490
 6908TIP3    H242140   4.758   6.455  13.007  0.6615 -0.5233 -1.3993
 6909TIP3   OH242141   1.902   2.417   2.377 -0.0644 -0.3573 -0.4576
 6909TIP3    H142142   1.815   2.428   2.339 -0.8401 -3.0742  0.3327
 6909TIP3    H242143   1.903   2.478   2.451 -0.6991  0.7577 -1.3206
 6910TIP3   OH242144   5.869   1.819   1.519  0.0021  0.1544 -0.4020
 6910TIP3    H142145   5.893   1.798   1.429 -3.1296 -3.9491 -0.5777
 6910TIP3    H242146   5.808   1.893   1.511  0.4522  0.4240 -1.5198
 6911TIP3   OH242147   1.221   1.511   1.738  0.1300  0.2826  0.2199
 6911TIP3    H142148   1.201   1.506   1.645  4.0625 -1.9352 -0.7309
 6911TIP3    H242149   1.160   1.450   1.779 -0.8562  0.3611 -1.0728
 6912TIP3   OH242150   3.874   0.877   5.250  0.5011 -0.1562  0.2869
 6912TIP3    H142151   3.907   0.952   5.300 -1.3837  1.1251 -0.2788
 6912TIP3    H242152   3.894   0.801   5.304  2.2470  0.7523  1.0044
 6913TIP3   OH242153   4.855   3.908  14.987 -0.7320  0.1947  0.1077
 6913TIP3    H142154   4.852   3.858  14.906  0.0725  0.6230 -0.1927
 6913TIP3    H242155   4.939   3.885  15.026  0.4779  2.5905 -0.8787
 6914TIP3   OH242156   6.514   3.216  15.774  0.0391  0.4754 -0.3391
 6914TIP3    H142157   6.571   3.252  15.705 -1.0845 -0.6705 -1.9422
 6914TIP3    H242158   6.534   3.122  15.774  0.0428  0.4656  0.9546
 6915TIP3   OH242159   6.365   5.278  14.391  0.4230  0.5207 -0.0404
 6915TIP3    H142160   6.450   5.321  14.402  0.2854  0.8892 -0.4190
 6915TIP3    H242161   6.301   5.341  14.424  0.3678 -0.1565  1.1868
 6916TIP3   OH242162   1.752   3.908   3.922  0.1507 -0.3886 -0.0097
 6916TIP3    H142163   1.758   3.820   3.958 -0.4120 -0.5798 -0.3667
 6916TIP3    H242164   1.776   3.966   3.994 -0.1710 -0.8028  0.4355
 6917TIP3   OH242165   1.727   5.420   4.962 -0.0625  0.0529  0.6511
 6917TIP3    H142166   1.757   5.329   4.955  0.1655  0.1628  0.2025
 6917TIP3    H242167   1.766   5.451   5.044 -0.3715 -0.3358  0.9540
 6918TIP3   OH242168   5.795   5.303  11.194  0.2243 -0.0852 -0.0708
 6918TIP3    H142169   5.746   5.222  11.186 -0.2246  0.3035 -1.5079
 6918TIP3    H242170   5.744   5.356  11.256 -0.0772 -0.4724  0.0149
 6919TIP3   OH242171   0.232   3.687  13.918 -0.1918 -0.4406 -0.1888
 6919TIP3    H142172   0.208   3.706  14.009 -1.8407  1.1383 -0.9028
 6919TIP3    H242173   0.151   3.698  13.869  0.8686 -0.3859 -1.9981
 6920TIP3   OH242174   1.916   3.099  13.333 -0.4068 -0.1081 -0.1048
 6920TIP3    H142175   1.887   3.187  13.357 -0.4426  0.2283 -1.2797
 6920TIP3    H242176   2.011   3.102  13.336 -0.4046  0.0217 -0.2768
 6921TIP3   OH242177   6.669   0.329  14.933  0.6573 -0.0085 -0.4359
 6921TIP3    H142178   6.743   0.389  14.935 -0.0308  0.8478  0.5890
 6921TIP3    H242179   6.597   0.380  14.898 -0.3378  0.3025  1.8631
 6922TIP3   OH242180   4.668   1.304   2.380  0.4474  0.1575  0.4828
 6922TIP3    H142181   4.635   1.278   2.466  1.3601  1.8092  1.3787
 6922TIP3    H242182   4.757   1.267   2.377 -0.0679 -1.0789 -0.3638
 6923TIP3   OH242183   3.367   1.805  14.622 -0.0639  0.2596  0.1360
 6923TIP3    H142184   3.342   1.721  14.661 -1.7699 -0.1336 -1.6747
 6923TIP3    H242185   3.348   1.795  14.529  1.1567  2.1629 -0.3710
 6924TIP3   OH242186   2.943   5.810  15.723 -0.0964 -0.5727 -0.4859
 6924TIP3    H142187   3.020   5.831  15.671 -0.1916 -1.5221 -1.0231
 6924TIP3    H242188   2.883   5.884  15.710  0.7519  0.2247  0.0295
 6925TIP3   OH242189   2.869   4.664  11.526 -0.5594  0.2944  0.2988
 6925TIP3    H142190   2.960   4.676  11.501 -0.9020  2.2721 -0.1844
 6925TIP3    H242191   2.829   4.620  11.451 -0.2275  0.3993  0.0571
 6926TIP3   OH242192   3.079   6.206  15.559 -0.3203 -0.0411  0.0942
 6926TIP3    H142193   3.153   6.146  15.573  0.0560  0.3168 -0.3045
 6926TIP3    H242194   3.070   6.253  15.641 -0.1809 -0.1750  0.1866
 6927TIP3   OH242195   1.854   6.615   1.657 -0.2244 -0.2012  0.1690
 6927TIP3    H142196   1.896   6.535   1.688 -0.4977 -0.8178 -0.9934
 6927TIP3    H242197   1.825   6.659   1.736 -0.7650 -1.6397  0.8154
 6928TIP3   OH242198   0.565   5.950   4.897  0.0945  0.8906  0.0406
 6928TIP3    H142199   0.552   5.971   4.989 -0.9388 -0.6744  0.2945
 6928TIP3    H242200   0.632   5.882   4.897 -0.1620  0.6333 -0.3269
 6929TIP3   OH242201   1.423   0.144  14.889  0.3422 -0.0999 -0.0222
 6929TIP3    H142202   1.406   0.053  14.862 -0.5267 -0.0793  0.4382
 6929TIP3    H242203   1.496   0.137  14.950 -0.8522 -0.7239  1.4026
 6930TIP3   OH242204   3.893   6.492  16.835  0.0848  0.0635  0.3825
 6930TIP3    H142205   3.976   6.462  16.871  0.2671 -1.7869 -1.3976
 6930TIP3    H242206   3.913   6.518  16.745 -1.3081 -0.8094 -0.2181
 6931TIP3   OH242207   2.635   1.134   5.296 -0.4129 -0.3082  0.1431
 6931TIP3    H142208   2.725   1.109   5.277  0.3172  1.6262  0.8968
 6931TIP3    H242209   2.603   1.064   5.353  0.4981 -1.1595 -0.3551
 6932TIP3   OH242210   1.681   5.986  12.122  0.4051  0.3144 -0.0318
 6932TIP3    H142211   1.767   6.005  12.159  0.4202 -0.1452  0.1755
 6932TIP3    H242212   1.673   6.046  12.047  0.5287  0.9835  0.4821
 6933TIP3   OH242213   3.117   1.342   0.085  0.1453  0.3203  0.4084
 6933TIP3    H142214   3.173   1.312   0.156 -0.0779 -1.1963 -0.0188
 6933TIP3    H242215   3.177   1.381   0.021  0.2542  2.6558  1.8321
 6934TIP3   OH242216   2.849   4.964  11.679 -0.0179 -0.6283  0.1784
 6934TIP3    H142217   2.910   4.976  11.606  0.1569 -0.8042  0.2957
 6934TIP3    H242218   2.831   5.053  11.709  0.9339 -0.6207  0.7602
 6935TIP3   OH242219   2.122   4.025  10.318 -0.5862  0.4829 -0.3798
 6935TIP3    H142220   2.187   4.003  10.385 -0.2850  0.0925 -0.7932
 6935TIP3    H242221   2.062   4.086  10.362 -0.3060  0.3534  0.1961
 6936TIP3   OH242222   4.446   3.396  13.275 -0.2576  0.5334 -0.3303
 6936TIP3    H142223   4.367   3.345  13.259 -0.7211  1.0713  0.1861
 6936TIP3    H242224   4.465   3.438  13.191 -2.0705  2.5097  0.1578
 6937TIP3   OH242225   3.661   3.162  13.164  0.3103  1.1097 -0.1165
 6937TIP3    H142226   3.717   3.125  13.232 -0.5886 -0.0054  0.0462
 6937TIP3    H242227   3.697   3.127  13.082 -1.0063 -0.8731  0.0851
 6938TIP3   OH242228   4.692   6.021   3.949 -0.1878 -0.4320  0.1604
 6938TIP3    H142229   4.778   6.062   3.960 -0.0155 -0.5497 -0.6949
 6938TIP3    H242230   4.689   5.954   4.017  0.3814 -0.3904  0.2326
 6939TIP3   OH242231   3.796   1.141  15.042 -0.0446 -0.0382  0.3881
 6939TIP3    H142232   3.770   1.217  15.093 -0.2764  1.6225 -2.0491
 6939TIP3    H242233   3.892   1.144  15.042  0.0537 -1.0998  2.0708
 6940TIP3   OH242234   5.677   3.178  10.970 -0.1961 -0.4211  0.3108
 6940TIP3    H142235   5.743   3.179  11.040  0.3259 -1.9205 -0.1286
 6940TIP3    H242236   5.607   3.234  11.003  0.0319 -1.0972  2.0492
 6941TIP3   OH242237   0.999   4.105   0.048 -0.2100  0.2657 -0.3465
 6941TIP3    H142238   1.048   4.123  -0.032 -0.0797 -0.7434 -0.5092
 6941TIP3    H242239   1.054   4.044   0.097 -0.6706  0.2219  0.1243
 6942TIP3   OH242240   2.981   1.620  12.565  0.0138  0.6039  0.2260
 6942TIP3    H142241   3.033   1.569  12.503 -1.1485  0.5119 -0.6781
 6942TIP3    H242242   3.036   1.696  12.585  1.0812 -0.1721  0.3654
 6943TIP3   OH242243   2.250   0.495  12.792  0.5439 -0.2870  0.0261
 6943TIP3    H142244   2.221   0.479  12.882 -1.3955  1.5268 -0.1960
 6943TIP3    H242245   2.322   0.558  12.802  0.5848 -0.3764  0.3148
 6944TIP3   OH242246   1.264   0.559  17.195  0.5577  0.3544 -0.1341
 6944TIP3    H142247   1.264   0.626  17.263 -1.0543  1.0223 -0.7552
 6944TIP3    H242248   1.176   0.561  17.158  0.4068 -2.1631 -0.1285
 6945TIP3   OH242249   3.161   2.091  13.428 -0.1991 -0.2634 -0.2678
 6945TIP3    H142250   3.122   2.028  13.489 -0.9490  0.0755 -0.3891
 6945TIP3    H242251   3.126   2.176  13.455 -0.2733 -0.0651 -0.9602
 6946TIP3   OH242252   1.483   5.597   2.104 -0.4970  0.2070  0.0251
 6946TIP3    H142253   1.445   5.630   2.023 -0.0700 -0.5593 -0.5012
 6946TIP3    H242254   1.411   5.554   2.149 -0.8394  1.0204  0.2727
 6947TIP3   OH242255   4.768   4.669  16.632 -0.2436 -0.2845  0.0534
 6947TIP3    H142256   4.809   4.588  16.661  0.2205 -0.1580 -0.2344
 6947TIP3    H242257   4.689   4.677  16.685 -0.0694 -0.7054  0.3767
 6948TIP3   OH242258   0.581   1.550   3.012  0.4373 -0.5031 -0.5867
 6948TIP3    H142259   0.623   1.486   3.070  0.9087 -0.1576 -0.5370
 6948TIP3    H242260   0.653   1.606   2.983  0.3688 -1.1980 -2.2204
 6949TIP3   OH242261   5.143   4.022  12.104 -0.7403 -0.0527 -0.8303
 6949TIP3    H142262   5.221   3.989  12.149 -0.5101 -0.3508 -1.4306
 6949TIP3    H242263   5.165   4.014  12.011 -1.8790 -1.1410 -1.0339
 6950TIP3   OH242264   4.902   6.364  15.909 -0.1307 -0.0493  0.5227
 6950TIP3    H142265   4.891   6.320  15.993  1.9466 -2.6935 -0.4519
 6950TIP3    H242266   4.990   6.341  15.881 -0.8619  0.4365 -2.5594
 6951TIP3   OH242267   0.340   5.379  13.621 -0.5641 -0.6094 -0.0243
 6951TIP3    H142268   0.303   5.426  13.546  1.0658  0.5778 -0.1268
 6951TIP3    H242269   0.410   5.436  13.653 -0.6158 -1.5310  1.8360
 6952TIP3   OH242270   2.247   5.236   5.150  0.5160 -0.2702  1.1168
 6952TIP3    H142271   2.162   5.215   5.188 -0.2334 -2.4428 -1.4438
 6952TIP3    H242272   2.226   5.280   5.068  1.9817  1.4572  1.6030
 6953TIP3   OH242273   3.974   3.464   2.176 -0.2836 -0.2288  0.5113
 6953TIP3    H142274   3.900   3.525   2.168 -0.6731 -0.6287  1.0049
 6953TIP3    H242275   4.051   3.519   2.167 -0.6030  0.5766  2.2853
 6954TIP3   OH242276   3.083   0.308   3.473  0.2172  0.6954  0.5399
 6954TIP3    H142277   3.141   0.267   3.409 -0.2595  0.2099  0.4104
 6954TIP3    H242278   3.029   0.236   3.506 -0.8913  1.2680  0.0336
 6955TIP3   OH242279   2.514   6.011  15.618 -0.3049 -0.5113 -0.2843
 6955TIP3    H142280   2.433   5.970  15.589  0.1886 -1.9280  0.2621
 6955TIP3    H242281   2.583   5.956  15.581  0.3659 -0.6493  1.1163
 6956TIP3   OH242282   0.404   1.718  11.758 -0.0910  0.7825 -0.6286
 6956TIP3    H142283   0.355   1.799  11.770  0.8428  1.0931  1.6228
 6956TIP3    H242284   0.353   1.652  11.805 -0.7011  0.0886 -2.2126
 6957TIP3   OH242285   2.523   5.836  17.225  0.0357  0.4942  0.3426
 6957TIP3    H142286   2.479   5.752  17.237 -0.8357  0.8037 -0.5845
 6957TIP3    H242287   2.470   5.882  17.160  1.8489  0.8036 -0.9730
 6958TIP3   OH242288   6.631   5.219  13.142 -0.2327  0.2068 -0.1622
 6958TIP3    H142289   6.628   5.163  13.220 -1.1629  0.4737 -0.0020
 6958TIP3    H242290   6.724   5.225  13.121 -0.0521 -0.7508  0.2903
 6959TIP3   OH242291   3.174   2.707  14.424 -0.1236 -0.1175 -0.6033
 6959TIP3    H142292   3.130   2.729  14.507  0.0063 -1.9371 -0.0109
 6959TIP3    H242293   3.162   2.785  14.370  0.2401  1.3549  1.3043
 6960TIP3   OH242294   5.405   6.257  15.594 -0.3573 -0.2351  0.3216
 6960TIP3    H142295   5.383   6.246  15.502  0.8134  1.0349 -0.1383
 6960TIP3    H242296   5.416   6.168  15.627 -1.8188 -0.7396 -0.4865
 6961TIP3   OH242297   2.800   1.532  15.121  0.4657  0.1036  0.1781
 6961TIP3    H142298   2.880   1.502  15.077  1.2358  0.4143  1.3318
 6961TIP3    H242299   2.767   1.454  15.166 -0.4128 -0.2553 -1.0083
 6962TIP3   OH242300   4.247   1.884  17.388 -0.1083 -0.3611  0.2475
 6962TIP3    H142301   4.341   1.900  17.396 -0.1721  0.5863 -0.6482
 6962TIP3    H242302   4.214   1.957  17.334 -1.2188 -1.0957 -0.1239
 6963TIP3   OH242303   2.650   1.852  14.032  0.1626  0.3345 -0.7212
 6963TIP3    H142304   2.609   1.768  14.015 -2.2535  1.5274 -1.1483
 6963TIP3    H242305   2.649   1.862  14.127  2.2563 -0.8914 -0.5024
 6964TIP3   OH242306   2.425   3.577   5.545 -0.4754 -1.3832  0.2510
 6964TIP3    H142307   2.337   3.547   5.569 -0.4345 -2.1884 -0.5810
 6964TIP3    H242308   2.424   3.671   5.564 -2.8075 -0.5048 -3.3203
 6965TIP3   OH242309   6.516   6.371   3.216  0.1832 -0.6454  0.2911
 6965TIP3    H142310   6.507   6.429   3.140 -0.0933  0.4525  1.1196
 6965TIP3    H242311   6.436   6.318   3.216  0.8142 -1.6405 -0.9454
 6966TIP3   OH242312   3.401   3.793   4.996 -0.1207 -0.1861  0.1013
 6966TIP3    H142313   3.456   3.727   5.040  0.2300 -0.3631 -0.5807
 6966TIP3    H242314   3.395   3.762   4.906 -3.6928 -1.7121  0.7028
 6967TIP3   OH242315   3.601   0.601  15.588 -0.1808  0.0439  0.5782
 6967TIP3    H142316   3.617   0.619  15.680 -1.1417 -0.4192  0.8478
 6967TIP3    H242317   3.595   0.505  15.583 -2.2898  0.1386  0.4356
 6968TIP3   OH242318   2.627   4.210  12.958 -0.2526  0.0029 -0.2058
 6968TIP3    H142319   2.557   4.145  12.949 -1.2846  0.9955  0.3204
 6968TIP3    H242320   2.613   4.248  13.045 -0.2887  1.6113 -0.8838
 6969TIP3   OH242321   5.590   3.657  17.021 -0.1529  0.4355  0.1079
 6969TIP3    H142322   5.675   3.612  17.022 -0.5243 -0.2887 -0.2305
 6969TIP3    H242323   5.612   3.748  16.999  0.6794  0.5998  1.4984
 6970TIP3   OH242324   3.267   0.633  15.870 -0.5037 -0.1831  0.0312
 6970TIP3    H142325   3.293   0.688  15.796 -0.0166 -0.7215 -0.2050
 6970TIP3    H242326   3.339   0.570  15.879 -0.6001 -0.1679  0.9115
 6971TIP3   OH242327   2.213   4.413  14.733  0.2158 -0.6855  0.2737
 6971TIP3    H142328   2.303   4.436  14.754  0.6379 -1.3590 -0.7629
 6971TIP3    H242329   2.201   4.439  14.642 -1.9112  3.1436  1.4024
 6972TIP3   OH242330   6.626   2.108  16.801  0.4117 -0.6552  0.0657
 6972TIP3    H142331   6.614   2.132  16.709  1.3090 -0.1164  0.0849
 6972TIP3    H242332   6.720   2.114  16.816  0.1346  0.8123  1.4516
 6973TIP3   OH242333   0.510   0.457   6.110 -0.3341  0.1715  0.3603
 6973TIP3    H142334   0.474   0.380   6.067  1.1913 -0.9302  0.9681
 6973TIP3    H242335   0.546   0.510   6.039 -1.1595  0.2207 -0.0371
 6974TIP3   OH242336   2.504   0.702  12.159 -0.1323 -0.0156 -0.1494
 6974TIP3    H142337   2.434   0.717  12.223  0.7898 -0.9714  1.1484
 6974TIP3    H242338   2.467   0.730  12.076 -1.2820  1.5744  0.8355
 6975TIP3   OH242339   5.657   3.399   5.299 -0.0662  0.4880 -0.6018
 6975TIP3    H142340   5.714   3.465   5.339 -1.1124  0.8090  0.3967
 6975TIP3    H242341   5.666   3.413   5.205  1.0867  0.8777 -0.4488
 6976TIP3   OH242342   1.711   3.670   4.053 -0.1612  0.5488  0.5166
 6976TIP3    H142343   1.775   3.616   4.101  0.1139 -0.4304 -0.8884
 6976TIP3    H242344   1.627   3.626   4.067 -0.3017  1.0030  1.1495
 6977TIP3   OH242345   5.305   2.815  11.742 -0.1187  0.7163 -0.4738
 6977TIP3    H142346   5.279   2.808  11.833 -2.2252  1.0223 -1.0035
 6977TIP3    H242347   5.355   2.897  11.738  1.3176 -0.0700  0.6521
 6978TIP3   OH242348   3.830   6.246   2.755 -0.1655 -0.1616 -0.7192
 6978TIP3    H142349   3.799   6.170   2.706 -0.1844 -1.4446  1.1827
 6978TIP3    H242350   3.925   6.247   2.739 -0.2774 -0.0981 -1.3958
 6979TIP3   OH242351   0.206   3.839   5.468  0.6744 -0.3912 -0.0023
 6979TIP3    H142352   0.145   3.776   5.508 -0.3886 -0.6216 -1.8434
 6979TIP3    H242353   0.168   3.857   5.382  2.9408 -0.0973 -1.0131
 6980TIP3   OH242354   4.901   4.958  13.934 -0.2804  0.3202 -0.0081
 6980TIP3    H142355   4.818   4.915  13.915 -0.4683  0.9567 -0.6753
 6980TIP3    H242356   4.957   4.888  13.967 -0.8193 -0.2823 -0.3394
 6981TIP3   OH242357   6.260   0.506  13.201  0.0971  0.1228  0.0938
 6981TIP3    H142358   6.196   0.476  13.137 -0.4391  1.1749  0.1152
 6981TIP3    H242359   6.227   0.476  13.285 -0.9185  1.4808  0.2204
 6982TIP3   OH242360   3.045   1.265   3.124 -0.0889  0.5536  0.4277
 6982TIP3    H142361   3.057   1.170   3.119  0.4389  0.4256  2.7145
 6982TIP3    H242362   3.133   1.300   3.137 -0.5180  0.9723  2.8570
 6983TIP3   OH242363   1.239   4.912  12.149 -0.4279 -0.4483 -0.2842
 6983TIP3    H142364   1.335   4.916  12.158 -0.4155 -1.1797 -0.0070
 6983TIP3    H242365   1.216   4.994  12.106  0.4719 -0.8856 -1.6517
 6984TIP3   OH242366   5.818   6.698  14.812 -0.2174 -0.4379  0.0059
 6984TIP3    H142367   5.789   6.609  14.791  0.4095 -0.3930 -1.1597
 6984TIP3    H242368   5.794   6.710  14.904  0.3447 -2.0865  0.4086
 6985TIP3   OH242369   5.269   4.961   0.572  0.7977  0.0171  0.0799
 6985TIP3    H142370   5.353   4.988   0.608  1.7562 -1.0255 -1.2931
 6985TIP3    H242371   5.269   4.993   0.482  0.7526 -1.9488 -0.6828
 6986TIP3   OH242372   2.747   5.909   2.562 -0.4663  0.5381  0.1529
 6986TIP3    H142373   2.692   5.832   2.570  0.2205  0.0899  0.7652
 6986TIP3    H242374   2.731   5.942   2.473  1.8155 -2.3553 -1.5292
 6987TIP3   OH242375   4.028   2.163   2.787  0.3492  0.1001 -0.2807
 6987TIP3    H142376   3.952   2.113   2.757  0.2798 -0.1264  0.2663
 6987TIP3    H242377   4.043   2.133   2.877 -0.3738  1.8254  0.4752
 6988TIP3   OH242378   1.500   0.460  12.991  0.2951  0.0723 -0.2473
 6988TIP3    H142379   1.550   0.541  12.975  1.9714 -0.5585  1.4557
 6988TIP3    H242380   1.547   0.417  13.062 -1.3603 -1.7606 -0.1994
 6989TIP3   OH242381   3.121   3.314   0.059 -0.2973 -0.1061 -0.3488
 6989TIP3    H142382   3.199   3.347   0.103  0.7494 -0.8258 -1.5625
 6989TIP3    H242383   3.069   3.273   0.128 -0.5941  2.1279  0.8145
 6990TIP3   OH242384   5.373   4.828  13.922 -0.1952 -0.2901  0.6912
 6990TIP3    H142385   5.384   4.766  13.994  1.1311 -2.3491 -1.1113
 6990TIP3    H242386   5.459   4.868  13.912 -0.4831  0.2925  0.5305
 6991TIP3   OH242387   4.419   2.427  14.483 -0.8118 -0.2569  0.6530
 6991TIP3    H142388   4.385   2.479  14.410 -0.0421 -1.9994 -1.0195
 6991TIP3    H242389   4.488   2.481  14.521  1.7675 -0.9136 -2.6601
 6992TIP3   OH242390   4.019   5.683   0.317  0.5864  0.6254  0.0283
 6992TIP3    H142391   4.071   5.678   0.237 -0.0649  1.1550 -0.4399
 6992TIP3    H242392   3.982   5.771   0.315 -1.3649 -0.1598 -0.3033
 6993TIP3   OH242393   5.739   1.572  14.535 -0.1006 -0.0048  0.2392
 6993TIP3    H142394   5.760   1.623  14.457 -1.4575 -1.2044 -0.9657
 6993TIP3    H242395   5.719   1.484  14.502 -4.2093  0.2877  1.4690
 6994TIP3   OH242396   4.655   2.163   4.695 -0.0122  0.1588  0.2520
 6994TIP3    H142397   4.700   2.080   4.710  1.3343  0.3613 -2.1652
 6994TIP3    H242398   4.717   2.230   4.725 -0.0232  0.3430 -0.1241
 6995TIP3   OH242399   3.881   3.489   1.888  0.0624  0.1649  0.3418
 6995TIP3    H142400   3.807   3.452   1.840  0.7086  0.3899 -0.8458
 6995TIP3    H242401   3.842   3.523   1.969 -0.7017 -2.2089  1.0661
 6996TIP3   OH242402   0.086   3.047   1.541 -0.0657  0.4654  0.2015
 6996TIP3    H142403   0.003   3.095   1.538 -0.0984  0.3903 -2.1766
 6996TIP3    H242404   0.065   2.962   1.501  1.5650  1.2485 -2.5870
 6997TIP3   OH242405   5.440   5.596  12.213  0.1198 -0.1295 -0.1343
 6997TIP3    H142406   5.531   5.626  12.216  0.2590 -0.5903  0.3081
 6997TIP3    H242407   5.446   5.504  12.188  0.0037 -1.1335  3.1628
 6998TIP3   OH242408   3.206   6.596  11.651 -0.1351  0.0671  0.3912
 6998TIP3    H142409   3.112   6.612  11.645 -0.1493 -0.4847 -1.4471
 6998TIP3    H242410   3.233   6.575  11.561  1.4082 -1.6261  1.1721
 6999TIP3   OH242411   4.757   5.121  16.721  0.0505 -0.1540 -0.0196
 6999TIP3    H142412   4.780   5.028  16.727 -0.9566 -0.4502 -0.5299
 6999TIP3    H242413   4.663   5.122  16.701 -0.1115  0.9875  0.6818
 7000TIP3   OH242414   2.921   6.119  12.121 -0.1171  0.3498 -0.5278
 7000TIP3    H142415   2.872   6.052  12.072 -1.6293  2.2530 -1.7606
 7000TIP3    H242416   2.881   6.118  12.208 -0.4734 -0.0197 -0.6898
 7001TIP3   OH242417   2.914   2.328   0.441  0.0859 -0.1508  0.0404
 7001TIP3    H142418   2.905   2.418   0.409 -1.8972 -0.0958  0.6151
 7001TIP3    H242419   3.004   2.304   0.420 -0.0259  1.1320 -2.2610
 7002TIP3   OH242420   2.346   1.067   1.545 -0.0845  0.5504  0.6411
 7002TIP3    H142421   2.261   1.031   1.519  1.1184  0.4992 -3.9001
 7002TIP3    H242422   2.323   1.144   1.597 -2.9764  0.8120 -0.7858
 7003TIP3   OH242423   3.921   0.012   0.531 -0.0459  0.7483  0.6881
 7003TIP3    H142424   4.004   0.058   0.547  1.4883 -1.5121 -0.2097
 7003TIP3    H242425   3.860   0.052   0.592  1.5144  2.9674  0.9247
 7004TIP3   OH242426   6.152   1.612  10.970 -0.1937 -0.2211 -0.4126
 7004TIP3    H142427   6.084   1.571  10.916  0.5611 -0.4367 -1.2191
 7004TIP3    H242428   6.230   1.610  10.915  0.4427  0.1149  0.4673
 7005TIP3   OH242429   1.306   0.953  13.556  0.4340 -0.5883 -0.2840
 7005TIP3    H142430   1.390   0.995  13.578  0.8658 -1.2665 -0.5965
 7005TIP3    H242431   1.245   1.026  13.543  0.9843 -0.0844 -0.0916
 7006TIP3   OH242432   5.269   5.075  13.835 -0.2168 -0.2506  0.2849
 7006TIP3    H142433   5.315   5.131  13.897  0.1312 -1.0849  0.8054
 7006TIP3    H242434   5.237   5.002  13.888 -3.4052  0.9680  0.2286
 7007TIP3   OH242435   1.306   3.384  11.862 -0.1021  0.0129  0.7014
 7007TIP3    H142436   1.257   3.305  11.884  0.5485 -0.4568  0.4950
 7007TIP3    H242437   1.259   3.423  11.788 -0.8405  0.2220  1.2769
 7008TIP3   OH242438   2.440   1.717   0.294  0.0944 -0.5189  0.0951
 7008TIP3    H142439   2.521   1.742   0.337 -0.0452  0.0726  0.0121
 7008TIP3    H242440   2.429   1.780   0.223  0.0894 -1.2074 -0.5417
 7009TIP3   OH242441   0.491   1.990   6.153  0.3687 -0.2052  0.2543
 7009TIP3    H142442   0.542   1.909   6.160 -0.4663 -0.6747  1.1867
 7009TIP3    H242443   0.400   1.962   6.164  0.2028  1.1217  3.3152
 7010TIP3   OH242444   3.044   6.506  14.643 -0.1760 -0.1259 -0.0160
 7010TIP3    H142445   3.097   6.578  14.676  1.3825 -0.7436 -1.0721
 7010TIP3    H242446   2.956   6.544  14.633 -0.1622  0.7309  2.4018
 7011TIP3   OH242447   1.821   6.011  13.382  0.0269  0.0604 -0.5036
 7011TIP3    H142448   1.862   6.089  13.418  0.2420 -0.7515  1.0951
 7011TIP3    H242449   1.894   5.954  13.358 -0.1031 -0.5336  0.4232
 7012TIP3   OH242450   3.126   5.895  11.271 -0.0898  0.4396 -0.5706
 7012TIP3    H142451   3.084   5.981  11.277 -1.7325 -0.4507  1.6989
 7012TIP3    H242452   3.055   5.832  11.279  1.4020 -1.1339  1.2764
 7013TIP3   OH242453   2.404   6.743   0.191  0.0502 -0.1675  0.6660
 7013TIP3    H142454   2.478   6.796   0.162 -0.6746  0.8508  0.6163
 7013TIP3    H242455   2.442   6.658   0.211  1.1925  0.2641  0.4221
 7014TIP3   OH242456   5.316   1.878  14.407 -0.6158  0.3743  0.2501
 7014TIP3    H142457   5.304   1.973  14.417  1.0595  0.6397 -0.0446
 7014TIP3    H242458   5.312   1.844  14.497  0.4770  0.9509  0.5275
 7015TIP3   OH242459   6.341   1.273  14.859  0.1733 -0.0648 -0.3080
 7015TIP3    H142460   6.250   1.243  14.853 -0.1516 -0.2322  3.4729
 7015TIP3    H242461   6.390   1.196  14.889  1.0900  0.7240  0.2736
 7016TIP3   OH242462   5.377   0.171  16.191  0.1329 -0.1088  0.0089
 7016TIP3    H142463   5.363   0.181  16.097 -1.5046  1.7105  0.3936
 7016TIP3    H242464   5.471   0.188  16.203  0.4359 -0.7520 -1.3234
 7017TIP3   OH242465   4.249   1.957  11.242  0.3636 -0.0400  0.1135
 7017TIP3    H142466   4.297   1.907  11.176  0.9489  2.1609 -1.2684
 7017TIP3    H242467   4.179   2.000  11.192  0.3572  1.0774  1.0514
 7018TIP3   OH242468   0.289   5.206   6.197 -0.0726 -0.0288  0.4192
 7018TIP3    H142469   0.315   5.183   6.286  2.1706 -0.5832 -0.3120
 7018TIP3    H242470   0.316   5.297   6.187 -0.8458  0.2119  0.4743
 7019TIP3   OH242471   2.508   5.813   5.718 -0.0653  0.0848 -0.2427
 7019TIP3    H142472   2.461   5.744   5.671 -0.1476 -0.5187  0.6991
 7019TIP3    H242473   2.598   5.808   5.684 -0.4242  0.5837 -1.3223
 7020TIP3   OH242474   5.074   3.949  10.979 -0.4675  0.6206 -0.2681
 7020TIP3    H142475   5.143   3.898  11.022 -0.5754  0.3173 -0.4488
 7020TIP3    H242476   5.061   4.025  11.035  1.8633  2.0795 -1.5316
 7021TIP3   OH242477   3.184   3.726  16.391 -0.6461  0.1285 -0.2028
 7021TIP3    H142478   3.204   3.662  16.323 -0.4924 -0.1025  0.0558
 7021TIP3    H242479   3.199   3.811  16.350  0.9158 -0.0337 -0.0049
 7022TIP3   OH242480   1.670   0.810   4.663  0.1771 -0.3601 -0.1625
 7022TIP3    H142481   1.632   0.896   4.643 -0.1513 -0.4710 -0.0236
 7022TIP3    H242482   1.606   0.769   4.721 -0.6409 -1.4729 -1.7764
 7023TIP3   OH242483   3.012   6.279  13.173 -0.0536 -0.7664 -0.4527
 7023TIP3    H142484   3.077   6.228  13.221  0.4208 -0.1514 -0.4319
 7023TIP3    H242485   3.063   6.334  13.114 -0.4677  0.8420  0.6330
 7024TIP3   OH242486   1.285   2.382  12.996  0.5583  0.4973  0.2294
 7024TIP3    H142487   1.322   2.392  13.084  1.1470  1.2452 -0.0910
 7024TIP3    H242488   1.191   2.394  13.009  0.6645  0.8686  0.7231
 7025TIP3   OH242489   3.773   6.646  14.574 -0.5192 -0.3755 -0.3306
 7025TIP3    H142490   3.835   6.702  14.528  0.3149 -1.8373 -1.0815
 7025TIP3    H242491   3.824   6.567  14.594 -2.1658 -1.6738 -1.0955
 7026TIP3   OH242492   5.832   1.247   5.050  0.5172  0.5542 -0.0078
 7026TIP3    H142493   5.745   1.286   5.046 -0.3437 -1.3253 -1.3137
 7026TIP3    H242494   5.825   1.177   5.115  1.4203  1.1699  0.7771
 7027TIP3   OH242495   4.538   6.704  16.094  0.6071 -0.2195  0.5736
 7027TIP3    H142496   4.515   6.661  16.012  0.1989  0.9847  0.0337
 7027TIP3    H242497   4.608   6.651  16.130 -0.2610 -1.6640  0.2313
 7028TIP3   OH242498   2.230   0.408   1.919 -0.0344  0.4040  0.1455
 7028TIP3    H142499   2.273   0.480   1.874  0.0614 -0.4411 -1.1746
 7028TIP3    H242500   2.248   0.331   1.865 -1.3951 -0.3537  0.7095
 7029TIP3   OH242501   3.101   0.636   6.379 -0.0791 -0.8325 -0.0466
 7029TIP3    H142502   3.124   0.712   6.433 -1.3003 -0.5492  0.1084
 7029TIP3    H242503   3.184   0.595   6.359  0.5150 -0.0970  0.8270
 7030TIP3   OH242504   2.841   6.021  10.927 -0.2262 -0.6844 -0.2137
 7030TIP3    H142505   2.770   6.024  10.991 -1.5325 -1.1428 -1.5999
 7030TIP3    H242506   2.918   5.996  10.979 -1.0791 -0.2974  1.2995
 7031TIP3   OH242507   1.910   3.400  15.351 -0.1815 -0.4292 -1.2456
 7031TIP3    H142508   1.831   3.346  15.356  0.7884 -1.8376  0.4682
 7031TIP3    H242509   1.880   3.489  15.365 -1.3686 -1.0962  0.9145
 7032TIP3   OH242510   6.211   5.345   0.394  0.2268 -0.1440  0.6695
 7032TIP3    H142511   6.227   5.369   0.486 -0.1092  2.0421  0.2246
 7032TIP3    H242512   6.206   5.429   0.348 -1.0469 -1.1355 -1.1303
 7033TIP3   OH242513   3.018   0.014  14.023 -0.2192  0.2368 -0.3372
 7033TIP3    H142514   3.082   0.069  13.978 -0.0549  1.1912  0.9919
 7033TIP3    H242515   2.940   0.018  13.967  0.4760  0.0675 -1.3397
 7034TIP3   OH242516   3.792   5.813   3.954  0.2028  0.4138  0.2671
 7034TIP3    H142517   3.731   5.786   3.886  1.6208 -2.6032  0.0174
 7034TIP3    H242518   3.865   5.853   3.906  0.4289 -0.1464  0.1314
 7035TIP3   OH242519   6.336   3.982  15.134  0.9119  0.4769 -0.0418
 7035TIP3    H142520   6.243   3.999  15.147  0.4925 -1.9850  0.7124
 7035TIP3    H242521   6.379   4.062  15.164 -0.9372  1.7683 -0.6495
 7036TIP3   OH242522   5.058   1.394  14.771 -0.1488 -0.4212 -0.3443
 7036TIP3    H142523   5.108   1.371  14.850 -0.2085 -0.4610 -0.3178
 7036TIP3    H242524   4.995   1.459  14.801 -0.8363 -1.1560 -0.1360
 7037TIP3   OH242525   4.893   6.184   3.948 -0.6300  0.0714  0.2130
 7037TIP3    H142526   4.987   6.166   3.946 -0.7103 -0.3904  0.3385
 7037TIP3    H242527   4.883   6.253   4.014 -0.5128 -0.8078  1.1823
 7038TIP3   OH242528   0.733   0.607   4.141 -0.0525  0.5124 -0.2175
 7038TIP3    H142529   0.713   0.514   4.150  1.6622  0.0197 -1.1540
 7038TIP3    H242530   0.647   0.650   4.146 -1.0270 -1.2090 -1.1239
 7039TIP3   OH242531   2.437   0.619  17.346 -0.3794 -0.0756 -0.0663
 7039TIP3    H142532   2.432   0.695  17.289 -1.6394 -1.4847 -1.9593
 7039TIP3    H242533   2.435   0.655  17.435  1.3335  2.1792 -0.8587
 7040TIP3   OH242534   5.857   4.929   4.953  0.2352 -0.1514 -0.7561
 7040TIP3    H142535   5.908   4.874   4.894 -1.6910  0.1002 -2.7820
 7040TIP3    H242536   5.828   4.870   5.022  1.2034 -0.8233 -0.9043
 7041TIP3   OH242537   5.022   0.211   0.633 -0.4696  0.1440  0.1597
 7041TIP3    H142538   5.045   0.255   0.551  0.1102  0.0402  0.2647
 7041TIP3    H242539   5.106   0.185   0.671 -0.8113 -1.7698 -0.2808
 7042TIP3   OH242540   1.930   4.985  16.329  0.4794 -0.2569  0.4721
 7042TIP3    H142541   2.014   5.006  16.369  1.5098 -1.1166 -1.1838
 7042TIP3    H242542   1.914   4.894  16.354 -0.1516  0.0049  1.0630
 7043TIP3   OH242543   0.917   3.978   4.873  0.2467  0.1418 -0.2924
 7043TIP3    H142544   0.958   3.986   4.959 -0.9263 -0.2899  0.3169
 7043TIP3    H242545   0.988   3.950   4.815  0.6352 -1.4536  0.9072
 7044TIP3   OH242546   6.367   0.530  16.733 -0.0454 -0.2180 -0.0527
 7044TIP3    H142547   6.387   0.605  16.789 -1.7064 -0.0949  0.4495
 7044TIP3    H242548   6.336   0.569  16.651  2.4081 -0.3986 -1.1332
 7045TIP3   OH242549   0.674   3.887   5.037 -0.3030  0.2611 -0.1857
 7045TIP3    H142550   0.762   3.885   5.000  0.8758  0.3872  2.3859
 7045TIP3    H242551   0.657   3.980   5.053 -1.5632  0.3886 -1.9926
 7046TIP3   OH242552   1.717   0.625  12.883 -0.4984  0.2171  0.0938
 7046TIP3    H142553   1.696   0.716  12.905  2.0184  0.6715  0.9537
 7046TIP3    H242554   1.729   0.626  12.788 -0.2774  0.8500  0.1234
 7047TIP3   OH242555   4.078   3.064  15.826 -0.4282  0.0181 -0.0973
 7047TIP3    H142556   4.027   3.022  15.757  0.9802 -0.5464 -0.8313
 7047TIP3    H242557   4.105   3.147  15.788  1.3382 -0.7958 -0.7145
 7048TIP3   OH242558   1.391   6.683  12.257  0.5281  0.0327 -0.0626
 7048TIP3    H142559   1.412   6.625  12.184  0.6641 -0.6713  0.5177
 7048TIP3    H242560   1.469   6.681  12.312  0.9400  1.6180 -0.5643
 7049TIP3   OH242561   0.648   2.360   4.873 -0.0246 -0.3764 -0.2169
 7049TIP3    H142562   0.615   2.335   4.959 -0.2487 -1.3805 -0.5873
 7049TIP3    H242563   0.729   2.310   4.862 -1.2882 -2.2240 -1.6130
 7050TIP3   OH242564   3.998   6.524  11.977 -0.5237 -0.0171  0.1587
 7050TIP3    H142565   4.070   6.564  11.929  1.9804  0.5056  3.8729
 7050TIP3    H242566   3.936   6.595  11.992  0.8669  0.9895  1.4084
 7051TIP3   OH242567   6.653   5.148   0.129  0.2436 -0.1598  0.0333
 7051TIP3    H142568   6.634   5.103   0.211  1.9084  0.0941  0.5934
 7051TIP3    H242569   6.640   5.081   0.062 -0.0011 -0.6938  0.6017
 7052TIP3   OH242570   0.479   0.899   4.684  0.1872 -0.5162 -0.0390
 7052TIP3    H142571   0.393   0.936   4.663  0.1124 -0.5268  0.2487
 7052TIP3    H242572   0.475   0.810   4.650  0.7139  0.0260 -1.6259
 7053TIP3   OH242573   5.771   2.536  13.645  0.5281  0.5561 -0.1450
 7053TIP3    H142574   5.798   2.530  13.553 -0.0432 -0.0480 -0.2800
 7053TIP3    H242575   5.840   2.492  13.693  0.6724  0.5968 -0.3124
 7054TIP3   OH242576   0.291   6.581  16.902  0.0203 -0.2288  0.4763
 7054TIP3    H142577   0.275   6.614  16.990 -0.5979 -1.4987  0.8588
 7054TIP3    H242578   0.376   6.538  16.908  1.3152  2.0614 -0.2724
 7055TIP3   OH242579   4.759   0.020   4.889  0.5758  0.1128 -0.0058
 7055TIP3    H142580   4.843  -0.026   4.877 -0.2654 -1.4923 -0.0793
 7055TIP3    H242581   4.693  -0.045   4.862 -0.8392  0.3646  2.5555
 7056TIP3   OH242582   4.853   3.204  12.639  0.0617 -0.2707  0.5543
 7056TIP3    H142583   4.903   3.286  12.644 -0.8306  0.2318  1.5696
 7056TIP3    H242584   4.900   3.152  12.574  1.7427  0.2831  1.2643
 7057TIP3   OH242585   6.275   1.448  11.793 -0.3364 -0.3979  0.3580
 7057TIP3    H142586   6.370   1.453  11.793 -0.2579 -1.4754  1.6158
 7057TIP3    H242587   6.255   1.357  11.812 -1.6408 -0.5684 -1.5047
 7058TIP3   OH242588   6.000   2.053  12.102  0.0804 -0.3409  0.5778
 7058TIP3    H142589   6.030   2.144  12.094  1.3875 -0.5782  2.2558
 7058TIP3    H242590   6.036   2.023  12.186 -0.1627 -2.4768 -0.0219
 7059TIP3   OH242591   1.462   4.515   0.418 -0.6972  0.0529  0.1110
 7059TIP3    H142592   1.512   4.455   0.363  0.7703  0.5239  0.8960
 7059TIP3    H242593   1.441   4.588   0.360 -0.2545 -0.0240 -0.1505
 7060TIP3   OH242594   6.588   5.534  15.027 -0.3242  0.5263  0.1696
 7060TIP3    H142595   6.509   5.495  14.990 -0.1658 -1.2663  1.5505
 7060TIP3    H242596   6.596   5.620  14.985 -2.1058  0.0791 -1.1594
 7061TIP3   OH242597   1.642   0.418   6.417  0.5150  0.3853  0.1657
 7061TIP3    H142598   1.644   0.434   6.511  3.7308 -0.8186  0.4448
 7061TIP3    H242599   1.694   0.490   6.380  0.9822 -0.2344 -0.4150
 7062TIP3   OH242600   5.343   1.158  17.111  0.4623 -0.0018 -0.7283
 7062TIP3    H142601   5.430   1.162  17.071  0.4394 -1.4979 -0.9734
 7062TIP3    H242602   5.347   1.084  17.171 -0.3314  0.5752  0.0603
 7063TIP3   OH242603   3.269   0.229  12.909  0.2463  0.0039 -0.6268
 7063TIP3    H142604   3.364   0.217  12.907  0.6592  2.6545 -2.3243
 7063TIP3    H242605   3.254   0.286  12.984 -0.3543 -2.1504  0.9772
 7064TIP3   OH242606   1.544   1.147  15.855 -0.3849 -0.0151  0.2170
 7064TIP3    H142607   1.563   1.240  15.868 -1.2884  0.1005  0.8137
 7064TIP3    H242608   1.466   1.131  15.909  0.3320 -1.3422  0.8928
 7065TIP3   OH242609   1.313   2.848   2.267 -0.5903 -0.2073 -0.1418
 7065TIP3    H142610   1.370   2.913   2.227  2.2178 -2.2050  0.2499
 7065TIP3    H242611   1.270   2.804   2.194  0.3196 -0.2854 -0.6357
 7066TIP3   OH242612   6.135   4.560   2.571 -0.1592 -0.0849 -0.2892
 7066TIP3    H142613   6.161   4.620   2.500 -0.5698  1.6945  0.9941
 7066TIP3    H242614   6.175   4.598   2.649 -0.6384 -1.4000  0.6201
 7067TIP3   OH242615   3.805   0.074   2.616  0.0700  0.2454 -0.1808
 7067TIP3    H142616   3.895   0.104   2.633 -0.1490  0.5446  0.5052
 7067TIP3    H242617   3.788   0.010   2.685 -0.5256  0.7950  0.1895
 7068TIP3   OH242618   1.960   5.968   4.353 -0.2151 -0.2937  0.3851
 7068TIP3    H142619   1.995   5.879   4.348 -0.7373 -0.7106  2.8383
 7068TIP3    H242620   1.881   5.960   4.408 -0.2069  1.6843  0.7692
 7069TIP3   OH242621   6.334   5.048  15.551 -0.0457 -0.1526  0.6391
 7069TIP3    H142622   6.270   5.119  15.557  0.2289 -0.0017  3.2039
 7069TIP3    H242623   6.292   4.981  15.498 -0.7817  1.4263 -0.8534
 7070TIP3   OH242624   5.174   3.934  12.512 -0.0899 -0.0163  0.2192
 7070TIP3    H142625   5.254   3.986  12.498 -0.0409 -0.1179  0.1136
 7070TIP3    H242626   5.186   3.858  12.455 -0.1329 -0.1741  0.4232
 7071TIP3   OH242627   0.646   5.447  14.810  0.3843  0.4255  0.0374
 7071TIP3    H142628   0.673   5.381  14.875  0.2434  0.4358  0.1079
 7071TIP3    H242629   0.685   5.417  14.728  0.7424  0.5268  0.1704
 7072TIP3   OH242630   4.471   5.848   0.980 -0.0176 -0.5224  0.8857
 7072TIP3    H142631   4.558   5.878   0.956 -0.0112 -1.5229 -0.4841
 7072TIP3    H242632   4.454   5.775   0.921 -2.0844  0.1136  0.6264
 7073TIP3   OH242633   4.158   2.475  15.480  0.0585  0.8897  0.3219
 7073TIP3    H142634   4.090   2.525  15.524 -2.1076 -2.1443  0.7481
 7073TIP3    H242635   4.123   2.386  15.476  3.6835 -0.6807 -0.2090
 7074TIP3   OH242636   0.332   5.804   1.499  0.2569  0.3359  0.4510
 7074TIP3    H142637   0.418   5.761   1.500  1.0420  1.8649  1.2537
 7074TIP3    H242638   0.296   5.787   1.586 -0.2138 -0.1630  0.1702
 7075TIP3   OH242639   0.510   2.115  14.613  0.1306 -0.4007 -0.1919
 7075TIP3    H142640   0.544   2.201  14.588 -1.9839  0.4489 -0.3397
 7075TIP3    H242641   0.485   2.074  14.530 -0.9625 -0.2054  0.0294
 7076TIP3   OH242642   5.043   2.278  17.344  0.4012 -0.5101 -0.1848
 7076TIP3    H142643   5.041   2.183  17.361 -0.7812 -0.2838  1.1982
 7076TIP3    H242644   5.104   2.313  17.409 -0.1093 -0.1924  0.1276
 7077TIP3   OH242645   2.633   0.717  16.531  0.2620  0.1505 -0.3297
 7077TIP3    H142646   2.655   0.787  16.469  0.3783 -0.7481 -1.3407
 7077TIP3    H242647   2.614   0.641  16.475 -2.0287 -0.0477  0.6499
 7078TIP3   OH242648   0.023   6.272   5.730  0.3076  0.0221 -0.0528
 7078TIP3    H142649  -0.007   6.182   5.721  0.6218 -0.1846  0.8385
 7078TIP3    H242650   0.058   6.277   5.819  0.7406  0.8895 -0.2556
 7079TIP3   OH242651   0.044   0.641  12.446  0.1569  1.0228 -0.4085
 7079TIP3    H142652   0.032   0.729  12.411  0.9732  1.1629 -0.3562
 7079TIP3    H242653   0.137   0.622  12.432 -0.3483 -0.5299 -2.0354
 7080TIP3   OH242654   2.405   5.618   4.934 -0.2373 -0.0511 -0.6208
 7080TIP3    H142655   2.402   5.526   4.910 -0.3691 -0.1285 -0.3132
 7080TIP3    H242656   2.313   5.643   4.943 -0.1879 -0.2843  0.7758
 7081TIP3   OH242657   4.776   4.427   0.802  0.1231  0.5513 -0.1187
 7081TIP3    H142658   4.809   4.469   0.723  0.9015 -0.5916 -0.4136
 7081TIP3    H242659   4.725   4.352   0.771  0.2223  0.2395  0.4568
 7082TIP3   OH242660   5.714   0.544   0.091  0.4577 -0.6788 -0.1636
 7082TIP3    H142661   5.651   0.521   0.159  1.4683 -1.2764  0.6102
 7082TIP3    H242662   5.790   0.577   0.139  0.9316 -0.4538 -1.0379
 7083TIP3   OH242663   6.165   2.048   2.650 -0.1983 -0.4124  0.1547
 7083TIP3    H142664   6.104   2.065   2.722  0.8070 -1.3610  1.2527
 7083TIP3    H242665   6.249   2.082   2.680 -0.1132  0.7534 -1.2900
 7084TIP3   OH242666   3.226   1.151  14.408  0.2911  0.0428  0.0755
 7084TIP3    H142667   3.300   1.188  14.455  0.8502  0.1161 -0.8450
 7084TIP3    H242668   3.149   1.194  14.446  0.7289  0.1330  0.8754
 7085TIP3   OH242669   5.042   4.373  15.812  0.1576  0.2149 -0.1011
 7085TIP3    H142670   5.085   4.321  15.880  1.1973 -0.2762 -1.0885
 7085TIP3    H242671   5.109   4.384  15.744 -0.4179  1.8469 -0.4516
 7086TIP3   OH242672   2.447   2.921   4.215 -0.1037 -0.4435 -0.1252
 7086TIP3    H142673   2.527   2.927   4.269 -1.0230  0.2840  1.2181
 7086TIP3    H242674   2.396   2.998   4.240 -0.9159 -0.5030 -1.5129
 7087TIP3   OH242675   6.480   5.333  12.393 -0.0915 -0.3520  0.0135
 7087TIP3    H142676   6.524   5.418  12.395  2.0900 -1.3177 -2.1580
 7087TIP3    H242677   6.513   5.287  12.470 -0.2576  0.2624  0.4661
 7088TIP3   OH242678   1.021   6.208  13.851 -0.1026 -0.3831 -0.6780
 7088TIP3    H142679   0.968   6.244  13.780  0.3507 -1.2779 -1.5004
 7088TIP3    H242680   1.033   6.116  13.827  0.1368 -0.6790  0.5194
 7089TIP3   OH242681   3.145   1.015  11.864  0.1516 -0.3322  0.2378
 7089TIP3    H142682   3.171   1.040  11.775  2.2425  0.8515  1.1213
 7089TIP3    H242683   3.218   0.963  11.897 -0.3632 -0.3185  1.4669
 7090TIP3   OH242684   0.617   6.293   2.096 -0.2910  0.1716  0.1206
 7090TIP3    H142685   0.526   6.266   2.092 -0.6160  1.2690 -0.5436
 7090TIP3    H242686   0.651   6.273   2.009 -0.2794  0.9643 -0.0690
 7091TIP3   OH242687   1.541   3.139   2.865 -0.4576 -0.7433 -0.5425
 7091TIP3    H142688   1.488   3.069   2.830 -1.1763  0.1108 -1.2104
 7091TIP3    H242689   1.533   3.131   2.960 -0.4729 -1.5865 -0.6115
 7092TIP3   OH242690   4.665   0.876  14.403  0.1227  0.2591  0.2897
 7092TIP3    H142691   4.580   0.849  14.366 -1.2600  1.7944  2.1157
 7092TIP3    H242692   4.658   0.971  14.410  1.1618  0.2243  2.3842
 7093TIP3   OH242693   5.358   5.342  16.818  0.2963 -0.1251 -0.4432
 7093TIP3    H142694   5.435   5.394  16.841 -0.5733  1.8333 -1.7167
 7093TIP3    H242695   5.288   5.376  16.874  0.1912 -1.4972  0.3003
 7094TIP3   OH242696   4.254   3.683   5.676 -0.1424  0.2952 -0.0936
 7094TIP3    H142697   4.259   3.624   5.751 -0.3402  1.2983  0.7378
 7094TIP3    H242698   4.327   3.744   5.689  0.3222 -0.0097 -1.1636
 7095TIP3   OH242699   6.120   3.698   4.062  0.1007 -0.0129 -0.2444
 7095TIP3    H142700   6.140   3.789   4.039  0.1823  0.5212  1.7585
 7095TIP3    H242701   6.027   3.698   4.082  0.2222 -0.2373  0.3396
 7096TIP3   OH242702   5.666   6.223  13.979 -0.1263  0.0468 -0.4600
 7096TIP3    H142703   5.584   6.266  14.004 -0.8403 -0.2502 -2.1081
 7096TIP3    H242704   5.734   6.271  14.026 -1.3453 -1.1632  2.8482
 7097TIP3   OH242705   3.490   2.978  13.856  0.1082  0.5931  0.1559
 7097TIP3    H142706   3.576   3.020  13.854  0.1797  0.4596  0.3156
 7097TIP3    H242707   3.502   2.904  13.916  0.3583 -0.4610 -1.1527
 7098TIP3   OH242708   1.207   1.901   4.579 -0.4653  0.3048  0.1054
 7098TIP3    H142709   1.192   1.821   4.527  1.9936  0.1595 -0.5272
 7098TIP3    H242710   1.132   1.957   4.559 -1.9891 -1.6012  0.1366
 7099TIP3   OH242711   2.088   5.509   0.420 -0.1549  1.2195 -0.3289
 7099TIP3    H142712   2.037   5.543   0.346  1.5229  3.6729 -0.4817
 7099TIP3    H242713   2.179   5.528   0.398  0.6845 -0.9602  0.9452
 7100TIP3   OH242714   1.623   0.053   2.142  0.3977  0.4104 -0.7094
 7100TIP3    H142715   1.636   0.020   2.231 -0.1291  0.4787 -0.6057
 7100TIP3    H242716   1.641   0.147   2.149  1.1308  0.2900 -0.8445
 7101TIP3   OH242717   6.429   6.446   4.408 -0.2348 -0.1394  0.1902
 7101TIP3    H142718   6.357   6.393   4.374 -1.6255  1.7466  0.0661
 7101TIP3    H242719   6.504   6.423   4.353 -0.9949 -1.3542 -0.3736
 7102TIP3   OH242720   4.061   4.750   6.031  0.1754  0.2291  0.2801
 7102TIP3    H142721   3.970   4.778   6.036 -0.2512 -1.1625  0.6097
 7102TIP3    H242722   4.111   4.831   6.035 -1.0279  0.9813  0.5431
 7103TIP3   OH242723   4.262   3.998   0.778  0.0365  0.1031  0.7827
 7103TIP3    H142724   4.336   3.983   0.837  0.8482  0.1932 -0.1916
 7103TIP3    H242725   4.248   4.092   0.780  2.1890  0.5598 -1.6156
 7104TIP3   OH242726   2.110   1.789  13.510  0.7403  0.1625 -0.0696
 7104TIP3    H142727   2.018   1.788  13.483  0.3933  1.6601  0.9557
 7104TIP3    H242728   2.158   1.771  13.429 -0.4232  0.2756 -0.8103
 7105TIP3   OH242729   4.758   4.170  14.618  0.0496 -0.0188 -0.1517
 7105TIP3    H142730   4.725   4.083  14.640  1.1761 -0.5104 -0.3181
 7105TIP3    H242731   4.685   4.214  14.576 -0.4922 -0.9413 -0.2010
 7106TIP3   OH242732   1.247   4.684  14.485 -0.4390  0.3162 -0.1895
 7106TIP3    H142733   1.227   4.663  14.576  0.8270 -0.0855  0.0090
 7106TIP3    H242734   1.336   4.653  14.472 -0.1623  1.4674 -1.2280
 7107TIP3   OH242735   4.139   3.730   4.643  0.2966 -0.0698  0.0650
 7107TIP3    H142736   4.153   3.647   4.688 -0.2567  0.0040  0.3845
 7107TIP3    H242737   4.116   3.792   4.712 -0.5111  0.0591 -0.2949
 7108TIP3   OH242738   0.272   0.491   2.236  0.1553  0.5619 -0.2852
 7108TIP3    H142739   0.213   0.449   2.174  0.3133 -0.6685  0.3698
 7108TIP3    H242740   0.225   0.487   2.320  0.3551  1.3259 -0.1294
 7109TIP3   OH242741   4.187   0.606   2.715  0.0001 -0.4502 -0.0099
 7109TIP3    H142742   4.147   0.693   2.711 -0.5019 -0.6078  1.2878
 7109TIP3    H242743   4.277   0.622   2.744 -0.1084 -0.3714  0.2803
 7110TIP3   OH242744   3.010   4.747   0.330  0.0878 -0.2116 -0.0657
 7110TIP3    H142745   2.983   4.835   0.306 -1.6000 -0.5725  0.3939
 7110TIP3    H242746   2.981   4.736   0.420 -2.8492 -2.3526 -1.1159
 7111TIP3   OH242747   1.126   3.346  13.728 -0.5167  0.3205 -0.2581
 7111TIP3    H142748   1.043   3.301  13.713 -0.2415 -0.5362  0.6772
 7111TIP3    H242749   1.190   3.276  13.740 -0.1619  0.9191  1.6738
 7112TIP3   OH242750   2.908   1.465   0.244 -0.5506  1.1491  0.0552
 7112TIP3    H142751   2.974   1.436   0.181 -1.9591  0.7944 -1.3220
 7112TIP3    H242752   2.897   1.558   0.226  0.5956  1.5607  1.2990
 7113TIP3   OH242753   4.060   2.033   3.022 -0.2724 -0.6688  0.0556
 7113TIP3    H142754   4.139   2.051   3.073  1.0001 -0.7847 -1.7876
 7113TIP3    H242755   4.065   1.940   3.002 -1.3786 -0.8786  0.7016
 7114TIP3   OH242756   1.647   0.904   2.413 -0.3967 -0.1421 -0.2674
 7114TIP3    H142757   1.573   0.956   2.381 -0.1324  0.7990  0.6157
 7114TIP3    H242758   1.694   0.878   2.333 -1.3974 -0.3301 -0.8040
 7115TIP3   OH242759   3.765   4.413  11.024  0.0588  0.2558 -0.4114
 7115TIP3    H142760   3.699   4.482  11.036 -0.4044 -0.0770 -0.9652
 7115TIP3    H242761   3.742   4.374  10.940  0.2492 -0.6495 -0.0491
 7116TIP3   OH242762   6.192   3.292  15.365 -0.0290 -0.2940 -0.1206
 7116TIP3    H142763   6.252   3.264  15.296  0.7077  0.6874  0.1014
 7116TIP3    H242764   6.105   3.266  15.333  0.2022  0.8291 -1.8025
 7117TIP3   OH242765   4.517   0.141  14.205 -0.1345 -0.4555  0.6074
 7117TIP3    H142766   4.571   0.202  14.154  1.1226 -1.1325  1.0968
 7117TIP3    H242767   4.478   0.196  14.273  1.6628 -0.2838  1.5767
 7118TIP3   OH242768   6.231   3.541  14.189 -0.4700  0.0004 -0.4394
 7118TIP3    H142769   6.246   3.626  14.231  0.1309 -0.8968  1.2520
 7118TIP3    H242770   6.151   3.508  14.228 -0.2279 -0.5923 -0.4321
 7119TIP3   OH242771   1.925   0.204  17.098 -0.0482  0.0027 -0.5545
 7119TIP3    H142772   2.020   0.194  17.110  0.9309  1.8271 -4.9922
 7119TIP3    H242773   1.906   0.292  17.131 -0.6071 -0.8848  1.6624
 7120TIP3   OH242774   5.549   1.543   1.641  0.2219 -0.1474  0.7286
 7120TIP3    H142775   5.508   1.484   1.577 -0.1622  1.9943 -1.1078
 7120TIP3    H242776   5.476   1.593   1.678  0.7425  0.7454  0.5759
 7121TIP3   OH242777   4.075   4.702  16.094 -0.1529 -0.5022 -0.2999
 7121TIP3    H142778   4.048   4.789  16.121 -1.7447 -0.7171 -1.0992
 7121TIP3    H242779   4.059   4.647  16.170  0.2988 -0.2183  0.0079
 7122TIP3   OH242780   2.673   0.531  11.488 -0.0417 -0.4320 -0.0363
 7122TIP3    H142781   2.671   0.488  11.402  0.8801  0.3817 -0.4829
 7122TIP3    H242782   2.652   0.622  11.470 -1.2511 -0.5052  0.8146
 7123TIP3   OH242783   5.911   2.901  11.465  0.2963 -0.4760  0.5548
 7123TIP3    H142784   5.981   2.849  11.428  0.2990 -0.7175  0.8944
 7123TIP3    H242785   5.955   2.977  11.504  0.4654 -1.0895  1.5820
 7124TIP3   OH242786   1.693   1.998   3.484 -0.3183 -0.0248  0.5965
 7124TIP3    H142787   1.663   1.908   3.475  1.2399 -0.7086  1.8307
 7124TIP3    H242788   1.712   2.008   3.577 -0.9233  1.7605  0.5791
 7125TIP3   OH242789   0.353   5.217   2.428  0.0141 -0.4979  0.1551
 7125TIP3    H142790   0.320   5.252   2.346 -0.2058 -2.5426 -0.6808
 7125TIP3    H242791   0.362   5.294   2.485 -1.7677  0.7014 -1.0837
 7126TIP3   OH242792   4.945   0.804  14.419  0.5383  0.3886  0.5095
 7126TIP3    H142793   4.851   0.820  14.420  0.1555 -0.4259 -3.5005
 7126TIP3    H242794   4.984   0.890  14.427 -0.5480  0.8268  1.3737
 7127TIP3   OH242795   4.511   6.441  12.676 -0.2987  0.3561 -0.5319
 7127TIP3    H142796   4.422   6.410  12.689  0.1829 -1.0759 -0.4708
 7127TIP3    H242797   4.540   6.398  12.596  0.6214  0.1069 -0.0796
 7128TIP3   OH242798   3.972   3.826  14.473  0.0644 -0.1408  0.3091
 7128TIP3    H142799   3.957   3.794  14.384 -0.2106  0.1394  0.2553
 7128TIP3    H242800   3.886   3.823  14.514 -0.6965  3.5326 -0.6532
 7129TIP3   OH242801   5.358   5.596   6.403 -0.1920  0.1114  0.3276
 7129TIP3    H142802   5.440   5.645   6.393 -0.4476  0.1883 -1.7880
 7129TIP3    H242803   5.382   5.506   6.382 -0.6837  0.1950 -0.6720
 7130TIP3   OH242804   1.345   3.251  16.956 -0.2169  0.5172  0.2650
 7130TIP3    H142805   1.300   3.258  17.040  0.8415 -1.5197  1.0726
 7130TIP3    H242806   1.409   3.322  16.956 -0.5971  0.8645  0.9192
 7131TIP3   OH242807   5.451   3.848   0.349 -0.1161 -0.3870 -0.2651
 7131TIP3    H142808   5.474   3.758   0.370 -1.5934 -0.9155 -0.8125
 7131TIP3    H242809   5.408   3.843   0.264 -1.8959  0.5588  0.5354
 7132TIP3   OH242810   2.930   4.904   3.544 -0.1540  0.6253  0.1551
 7132TIP3    H142811   2.935   4.897   3.449 -0.4999 -0.3463  0.2032
 7132TIP3    H242812   3.017   4.882   3.575 -0.6041 -1.2359  0.1708
 7133TIP3   OH242813   3.786   3.712   0.650 -0.3399  0.4476  0.4650
 7133TIP3    H142814   3.845   3.787   0.655  2.3120 -1.4222 -0.1550
 7133TIP3    H242815   3.829   3.644   0.703 -2.0026 -0.9903  0.0665
 7134TIP3   OH242816   1.943   1.955  17.067  0.3311  0.1957  0.4699
 7134TIP3    H142817   2.007   2.008  17.114  2.4754 -0.6930 -1.2638
 7134TIP3    H242818   1.967   1.864  17.088 -1.8158 -0.2003  1.5355
 7135TIP3   OH242819   3.051   4.281  16.491  0.0301  0.3472 -0.2464
 7135TIP3    H142820   3.036   4.200  16.443 -0.4188 -1.2306  2.3561
 7135TIP3    H242821   2.963   4.312  16.514  0.2369  1.0599 -0.3710
 7136TIP3   OH242822   0.410   5.946   6.004 -0.7095 -0.0852  0.0102
 7136TIP3    H142823   0.449   5.999   6.074  0.6478  1.1121 -1.5640
 7136TIP3    H242824   0.356   6.009   5.955 -0.1626 -0.4358 -1.0821
 7137TIP3   OH242825   5.339   6.527  15.172 -0.7116  0.0803 -0.2750
 7137TIP3    H142826   5.377   6.600  15.124 -1.1560  0.7597  0.3852
 7137TIP3    H242827   5.399   6.512  15.245 -1.2148  0.5617  0.2513
 7138TIP3   OH242828   3.173   0.394  13.153  0.0986  0.0278  0.0459
 7138TIP3    H142829   3.101   0.433  13.204 -0.3346  0.8208 -1.1267
 7138TIP3    H242830   3.242   0.379  13.218 -1.1742 -0.9783  1.2592
 7139TIP3   OH242831   4.605   4.482   2.436  0.2376 -0.3269 -0.1632
 7139TIP3    H142832   4.540   4.416   2.460 -1.4343  1.3533  0.0935
 7139TIP3    H242833   4.674   4.473   2.502 -1.2869 -0.0061  1.5362
 7140TIP3   OH242834   5.889   1.380   5.664 -0.5484  0.3064  0.4780
 7140TIP3    H142835   5.930   1.298   5.636  0.0258 -0.0473  2.2493
 7140TIP3    H242836   5.882   1.431   5.583  1.5152 -0.4439 -0.2593
 7141TIP3   OH242837   6.536   1.690  14.647 -0.1885  0.2982  0.0212
 7141TIP3    H142838   6.472   1.619  14.645  0.5162 -0.3473 -0.9075
 7141TIP3    H242839   6.554   1.704  14.740 -2.0066  0.8142  0.3140
 7142TIP3   OH242840   6.116   5.580   3.657  0.2403 -0.0588 -0.4153
 7142TIP3    H142841   6.086   5.544   3.740  0.0735 -0.3481 -0.5968
 7142TIP3    H242842   6.208   5.603   3.672  0.3786 -0.6539 -0.3207
 7143TIP3   OH242843   4.894   5.562  15.038  0.2415  0.5330 -0.3477
 7143TIP3    H142844   4.882   5.631  14.973 -1.5298  0.8745  0.3030
 7143TIP3    H242845   4.921   5.608  15.117 -1.0493  0.5200  0.1172
 7144TIP3   OH242846   4.819   0.141  12.354 -0.4863 -0.3495  0.1044
 7144TIP3    H142847   4.724   0.154  12.365 -0.6899 -0.2409 -1.5406
 7144TIP3    H242848   4.832   0.142  12.259  1.1686 -0.4115  0.3110
 7145TIP3   OH242849   0.989   5.250  14.937 -0.4298 -0.4431  0.0682
 7145TIP3    H142850   1.010   5.246  15.031 -2.1432  0.5485  0.5398
 7145TIP3    H242851   0.902   5.211  14.930 -0.0067 -1.1989 -1.2517
 7146TIP3   OH242852   6.075   1.797   5.636 -0.5210  0.0379 -0.6146
 7146TIP3    H142853   6.153   1.852   5.644 -1.1215  1.0860 -1.6657
 7146TIP3    H242854   6.010   1.839   5.693 -0.9549  0.3927 -1.3518
 7147TIP3   OH242855   4.546   2.353  16.652 -0.2149  0.1513 -0.3347
 7147TIP3    H142856   4.591   2.286  16.703  0.0688  0.3600 -0.3067
 7147TIP3    H242857   4.502   2.304  16.582  2.2588  0.1295 -2.0270
 7148TIP3   OH242858   0.970   3.196   5.425  0.1205 -0.0093 -0.4831
 7148TIP3    H142859   0.942   3.127   5.365  0.3077 -0.6517  0.1701
 7148TIP3    H242860   1.062   3.177   5.443  0.0470  0.1452  0.0626
 7149TIP3   OH242861   3.431   2.159   3.535 -0.1882  0.1503 -0.0625
 7149TIP3    H142862   3.376   2.224   3.579 -0.0991 -0.7246  1.4285
 7149TIP3    H242863   3.374   2.082   3.526  0.5805 -0.5772  0.9888
 7150TIP3   OH242864   3.016   1.516  16.725  0.0176  0.4374 -0.2549
 7150TIP3    H142865   3.058   1.590  16.769 -0.8623  1.5452 -1.2003
 7150TIP3    H242866   3.052   1.439  16.767  0.9695  1.4097  0.7655
 7151TIP3   OH242867   5.079   0.920  12.705  0.2633  0.1585  0.0652
 7151TIP3    H142868   5.003   0.864  12.687 -0.5592  1.1037  0.5525
 7151TIP3    H242869   5.113   0.887  12.788 -0.9621  1.1381  0.9890
 7152TIP3   OH242870   5.201   6.253  11.839  0.1546  0.4813 -0.0861
 7152TIP3    H142871   5.159   6.241  11.753  0.3786  2.4102 -0.5172
 7152TIP3    H242872   5.128   6.254  11.901  0.0360 -1.6137 -0.1025
 7153TIP3   OH242873   6.130   5.534   0.090 -0.3130  0.8232 -0.3359
 7153TIP3    H142874   6.048   5.514   0.046 -0.5193  1.8651 -0.4502
 7153TIP3    H242875   6.173   5.598   0.032  1.0391 -0.4379 -0.7789
 7154TIP3   OH242876   1.427   0.180  11.346 -0.0605 -0.2351 -0.3126
 7154TIP3    H142877   1.451   0.090  11.324 -0.8784  0.1702 -3.2208
 7154TIP3    H242878   1.332   0.179  11.352  0.0029  0.1934  1.0592
 7155TIP3   OH242879   0.895   4.993   0.811  0.2902  0.4972 -0.1192
 7155TIP3    H142880   0.837   4.979   0.736  0.0324  1.3010 -0.0715
 7155TIP3    H242881   0.978   4.955   0.784  0.1244  0.5468 -0.7090
 7156TIP3   OH242882   1.594   5.909   3.733  0.1709  0.5328  0.3477
 7156TIP3    H142883   1.499   5.906   3.745 -0.2100 -0.1024 -2.1933
 7156TIP3    H242884   1.617   6.002   3.745 -1.2922  1.2698 -1.9487
 7157TIP3   OH242885   2.447   5.607  14.950 -0.1753 -0.1935  0.4116
 7157TIP3    H142886   2.471   5.611  15.043  0.9518  0.2095  0.1155
 7157TIP3    H242887   2.501   5.536  14.915 -1.4408 -1.1344  0.2878
 7158TIP3   OH242888   5.499   6.603   4.445 -0.0599  0.0748  0.2244
 7158TIP3    H142889   5.542   6.583   4.362 -0.1519  0.6266  0.0392
 7158TIP3    H242890   5.570   6.601   4.510 -0.2144 -1.7730  0.3775
 7159TIP3   OH242891   5.900   5.865   2.283 -0.1688 -0.4748 -0.0672
 7159TIP3    H142892   5.857   5.919   2.350 -1.1035  0.5076 -1.3977
 7159TIP3    H242893   5.836   5.798   2.262 -0.0304 -0.5506 -0.2452
 7160TIP3   OH242894   1.664   4.252  12.998  0.5013 -0.0503 -0.1153
 7160TIP3    H142895   1.735   4.273  12.938 -0.5502  0.2307 -1.2998
 7160TIP3    H242896   1.663   4.325  13.061  0.8893  0.2245 -0.4221
 7161TIP3   OH242897   6.133   1.201   3.222  0.2056  0.0239  0.0049
 7161TIP3    H142898   6.168   1.117   3.193 -0.7199 -1.0830  1.8973
 7161TIP3    H242899   6.153   1.205   3.315 -1.2882  1.0798  0.3310
 7162TIP3   OH242900   6.186   5.291  12.457  0.1170 -0.0793 -0.5146
 7162TIP3    H142901   6.131   5.213  12.463  1.8726 -1.3196  0.0120
 7162TIP3    H242902   6.270   5.260  12.424  1.7931  1.0547  2.2543
 7163TIP3   OH242903   3.957   2.611   3.278 -0.1172 -0.3772  0.1616
 7163TIP3    H142904   3.875   2.563   3.285  0.1226 -0.8292 -0.0913
 7163TIP3    H242905   4.025   2.546   3.293  0.2065 -0.0753  0.0435
 7164TIP3   OH242906   3.664   6.238   1.280  0.4135 -0.4383 -0.3595
 7164TIP3    H142907   3.643   6.242   1.373  1.1345  0.4026 -0.2112
 7164TIP3    H242908   3.737   6.177   1.274  1.4626  0.7354 -0.1202
 7165TIP3   OH242909   2.453   5.044  15.110 -0.1890 -0.7388 -0.1771
 7165TIP3    H142910   2.389   5.038  15.039 -0.6269 -3.0902  0.3081
 7165TIP3    H242911   2.410   5.003  15.185  0.4425  1.2502  1.3524
 7166TIP3   OH242912   4.450   1.861  16.389 -0.0882 -0.0854 -0.5122
 7166TIP3    H142913   4.481   1.801  16.321 -2.2377  1.2147 -2.8185
 7166TIP3    H242914   4.363   1.828  16.412  0.7445 -0.6990  1.9465
 7167TIP3   OH242915   0.521   2.048  11.430 -0.1128 -0.3108 -0.0661
 7167TIP3    H142916   0.541   1.986  11.499 -0.8012  0.6919  1.0794
 7167TIP3    H242917   0.445   2.011  11.386 -0.1529 -0.5755  0.2254
 7168TIP3   OH242918   2.706   3.327  13.239  0.5736 -0.0121 -0.1116
 7168TIP3    H142919   2.677   3.391  13.174 -2.3617 -1.7129 -0.6773
 7168TIP3    H242920   2.751   3.260  13.188  1.2895  0.2934  0.1108
 7169TIP3   OH242921   1.218   3.686  12.211  0.1391 -0.3143  0.2060
 7169TIP3    H142922   1.271   3.752  12.166  0.1836  0.5404  1.4698
 7169TIP3    H242923   1.259   3.603  12.188 -0.5472 -0.0471 -2.2835
 7170TIP3   OH242924   2.966   4.737  14.867 -0.3156  0.3973  0.6717
 7170TIP3    H142925   2.933   4.801  14.930 -0.0233  0.0060  1.2339
 7170TIP3    H242926   3.006   4.790  14.798 -1.9266  0.8678  0.0605
 7171TIP3   OH242927   0.466   1.845   1.799  0.0643  0.7718  0.3795
 7171TIP3    H142928   0.504   1.824   1.714 -0.1085  2.3986 -0.1393
 7171TIP3    H242929   0.517   1.794   1.862  0.9851  0.4611 -0.5955
 7172TIP3   OH242930   0.707   0.420   3.589  0.8764 -0.4469 -0.3710
 7172TIP3    H142931   0.778   0.450   3.532 -0.0607  0.4525 -1.1240
 7172TIP3    H242932   0.653   0.498   3.602 -0.2524 -1.2238 -0.2442
 7173TIP3   OH242933   0.293   3.433  10.915 -0.6615  0.0247 -0.5689
 7173TIP3    H142934   0.388   3.425  10.907 -0.7218 -0.3787 -0.9062
 7173TIP3    H242935   0.260   3.346  10.895 -1.1212  0.2306 -0.7221
 7174TIP3   OH242936   5.528   0.019   5.134  0.2766 -0.6407  0.4284
 7174TIP3    H142937   5.450   0.075   5.136 -0.3277 -1.2576 -2.2071
 7174TIP3    H242938   5.495  -0.069   5.152  0.4861 -0.7916  0.0816
 7175TIP3   OH242939   5.142   0.194   3.315  0.1058 -0.4188  0.2772
 7175TIP3    H142940   5.093   0.276   3.308 -0.2431 -0.5450  1.1395
 7175TIP3    H242941   5.180   0.182   3.228  0.4516  0.8376  0.2293
 7176TIP3   OH242942   3.113   4.653  12.921 -0.0390  0.0154 -0.5396
 7176TIP3    H142943   3.185   4.711  12.898  1.3033 -0.9396  0.9874
 7176TIP3    H242944   3.076   4.692  13.001  0.5124 -0.8861  0.1751
 7177TIP3   OH242945   3.821   0.542   5.813  0.7231 -0.8669  0.2197
 7177TIP3    H142946   3.899   0.566   5.863 -0.7903  1.1853  1.7531
 7177TIP3    H242947   3.767   0.494   5.874 -0.9215  1.2071  0.5171
 7178TIP3   OH242948   4.425   0.407   2.265  0.8827 -0.2510 -0.2415
 7178TIP3    H142949   4.356   0.436   2.324 -0.3276  0.1923 -1.8311
 7178TIP3    H242950   4.380   0.358   2.197  2.3056 -1.1452 -0.5918
 7179TIP3   OH242951   5.576   6.101   4.065  0.0836 -0.3427  0.7614
 7179TIP3    H142952   5.652   6.055   4.029 -0.9948 -2.2614  0.7948
 7179TIP3    H242953   5.556   6.054   4.145 -1.9563 -0.7424  0.0508
 7180TIP3   OH242954   6.171   5.421   1.550 -0.5029  0.0846 -0.2927
 7180TIP3    H142955   6.136   5.363   1.618 -1.3224  0.2573 -0.5560
 7180TIP3    H242956   6.201   5.498   1.598  0.3635 -0.4416  0.0333
 7181TIP3   OH242957   2.879   4.361   2.748 -0.3098 -0.2164 -0.3289
 7181TIP3    H142958   2.890   4.267   2.756  0.4786 -0.0521  0.8224
 7181TIP3    H242959   2.784   4.373   2.736 -0.1091 -1.3054 -4.0037
 7182TIP3   OH242960   6.229   1.332   1.759  0.1898 -0.3696 -0.4383
 7182TIP3    H142961   6.233   1.405   1.821  1.2209 -1.0713  0.3605
 7182TIP3    H242962   6.144   1.340   1.717  0.3381  1.3919 -0.4906
 7183TIP3   OH242963   1.002   0.852  11.080  0.0317 -0.6017  0.2755
 7183TIP3    H142964   0.989   0.944  11.056 -0.9323 -0.2223  2.0895
 7183TIP3    H242965   1.097   0.839  11.074  0.2388  0.6666  0.4858
 7184TIP3   OH242966   2.785   6.538  13.936  0.6069 -0.7122 -0.1450
 7184TIP3    H142967   2.750   6.502  13.854  0.3624  0.8080 -0.7495
 7184TIP3    H242968   2.819   6.624  13.911  4.0269 -1.7182  0.5939
 7185TIP3   OH242969   4.040   2.907   0.676 -0.1459  0.3661 -0.0732
 7185TIP3    H142970   4.093   2.907   0.597  0.5972 -0.8340  0.3976
 7185TIP3    H242971   3.954   2.877   0.646  0.3467 -0.8558 -0.3083
 7186TIP3   OH242972   3.440   2.824   4.514 -0.1354  0.4330 -0.1194
 7186TIP3    H142973   3.396   2.793   4.435  1.2658 -0.7362 -0.4953
 7186TIP3    H242974   3.532   2.828   4.490  0.1548  1.3804  1.0718
 7187TIP3   OH242975   3.017   4.990   6.265 -0.4937 -0.6772  0.0016
 7187TIP3    H142976   2.925   4.981   6.290 -1.3900  1.2206 -2.2001
 7187TIP3    H242977   3.018   4.974   6.171  1.0044  1.5011 -0.4333
 7188TIP3   OH242978   3.151   3.575   2.697  0.0588  0.6955 -0.6257
 7188TIP3    H142979   3.153   3.517   2.621  2.3012 -0.0214 -0.1026
 7188TIP3    H242980   3.148   3.515   2.772  0.0628  1.3259 -0.1101
 7189TIP3   OH242981   2.681   6.165  16.166  0.4730 -0.3104  0.4598
 7189TIP3    H142982   2.591   6.183  16.194  1.4826  2.4340  2.3422
 7189TIP3    H242983   2.671   6.118  16.084 -2.6909  0.2474  0.3897
 7190TIP3   OH242984   0.208   1.353   0.600 -0.6278  0.1660 -0.6140
 7190TIP3    H142985   0.132   1.331   0.654 -0.4670  2.7712  0.8538
 7190TIP3    H242986   0.268   1.279   0.612 -0.7213  0.4657  2.6862
 7191TIP3   OH242987   1.194   4.182   5.798  0.5998 -0.5848  0.6048
 7191TIP3    H142988   1.123   4.213   5.854 -0.4414  1.0529 -1.4860
 7191TIP3    H242989   1.256   4.254   5.795  1.8545 -1.5701  1.4832
 7192TIP3   OH242990   0.784   0.468  14.844 -0.1270  0.0102  0.4287
 7192TIP3    H142991   0.787   0.415  14.924 -0.0686  0.4144  0.6972
 7192TIP3    H242992   0.713   0.429  14.793  1.1316 -1.5214 -0.2362
 7193TIP3   OH242993   1.392   0.474   0.953  0.1259 -0.3946 -0.1068
 7193TIP3    H142994   1.474   0.473   1.002  0.6684  0.3525 -0.9744
 7193TIP3    H242995   1.394   0.556   0.905 -1.5516  0.0821  0.5503
 7194TIP3   OH242996   4.858   3.162   4.801 -0.4662 -0.0509  0.5334
 7194TIP3    H142997   4.942   3.140   4.759 -0.3024 -1.9709  1.7511
 7194TIP3    H242998   4.824   3.235   4.749  1.8503  0.6455 -0.1248
 7195TIP3   OH242999   3.400   1.363   1.140  0.2073 -0.8124  0.0725
 7195TIP3    H143000   3.403   1.404   1.226  1.7884  1.2215 -0.8521
 7195TIP3    H243001   3.341   1.289   1.150  0.0845 -0.4334  2.7987
 7196TIP3   OH243002   2.415   5.801   2.825 -0.0846  0.4351  0.3801
 7196TIP3    H143003   2.386   5.716   2.792 -1.0512 -0.0809  2.3820
 7196TIP3    H243004   2.498   5.783   2.869 -1.4748 -0.0854  3.0095
 7197TIP3   OH243005   2.411   1.209   5.195 -0.0119  0.3611 -0.2756
 7197TIP3    H143006   2.418   1.144   5.125  0.0303  0.5165 -0.4143
 7197TIP3    H243007   2.491   1.196   5.247 -0.1287  0.1250 -0.1502
 7198TIP3   OH243008   5.910   3.077  14.439  0.1009 -0.0258 -0.4066
 7198TIP3    H143009   5.818   3.084  14.464 -0.3969  2.9733 -2.4635
 7198TIP3    H243010   5.909   3.037  14.352  0.6068  0.6665 -0.7492
 7199TIP3   OH243011   0.047   1.647   4.209  0.7257  0.2078 -0.7702
 7199TIP3    H143012   0.090   1.571   4.170 -0.0052 -0.1303 -0.9389
 7199TIP3    H243013   0.022   1.617   4.297  0.0781  0.1197 -0.9842
 7200TIP3   OH243014   0.808   0.223  15.405  0.5387  0.0647 -0.1664
 7200TIP3    H143015   0.891   0.244  15.448  0.6399 -0.5060 -0.0787
 7200TIP3    H243016   0.746   0.287  15.441  0.6365 -0.3699  0.7860
 7201TIP3   OH243017   1.528   2.045   2.606  0.3968  0.2420 -0.6353
 7201TIP3    H143018   1.560   2.131   2.633  1.1703 -0.3313  0.3141
 7201TIP3    H243019   1.460   2.064   2.541 -1.4459  1.6852  1.5797
 7202TIP3   OH243020   6.187   6.537  12.911  0.2584 -0.4423 -0.3552
 7202TIP3    H143021   6.150   6.624  12.931  1.5206  0.3497 -1.3304
 7202TIP3    H243022   6.217   6.544  12.820  0.9738 -1.7077 -0.2375
 7203TIP3   OH243023   4.743   5.707  15.442 -0.1681  0.0127  0.2419
 7203TIP3    H143024   4.666   5.660  15.412  0.1788 -0.4424  0.0391
 7203TIP3    H243025   4.714   5.798  15.454 -0.3371  0.2025 -1.4121
 7204TIP3   OH243026   1.374   6.259   5.461 -0.2755 -0.0511  0.1031
 7204TIP3    H143027   1.344   6.310   5.536 -0.1445  0.5473 -0.2423
 7204TIP3    H243028   1.466   6.283   5.451  0.1076 -1.2350  0.6413
 7205TIP3   OH243029   2.922   3.190  11.943  0.4305 -0.3118  0.1960
 7205TIP3    H143030   2.845   3.245  11.958  1.1578  0.9095 -0.3280
 7205TIP3    H243031   2.887   3.107  11.912 -0.6562  0.8386 -1.9065
 7206TIP3   OH243032   1.096   2.611   3.737 -0.1308 -0.2436 -0.0491
 7206TIP3    H143033   1.058   2.698   3.728 -0.9137 -0.3618  1.7279
 7206TIP3    H243034   1.161   2.621   3.807 -0.3792 -1.1226  0.3175
 7207TIP3   OH243035   4.547   5.945  11.927 -0.3869  0.5619  0.4164
 7207TIP3    H143036   4.469   5.992  11.956  0.8732  2.1939  1.3187
 7207TIP3    H243037   4.613   6.012  11.916  1.0322 -0.8293  0.0360
 7208TIP3   OH243038   6.080   4.262   5.790  0.1952 -0.0031  0.0517
 7208TIP3    H143039   6.069   4.169   5.769  0.0623 -0.0056  0.1288
 7208TIP3    H243040   6.043   4.271   5.878 -2.9663  0.7326 -1.1861
 7209TIP3   OH243041   3.375   2.426  15.074  0.9341 -0.2769 -0.3993
 7209TIP3    H143042   3.416   2.512  15.062 -0.2524  0.7468  2.0675
 7209TIP3    H243043   3.298   2.429  15.018  2.3905 -0.9235 -2.5288
 7210TIP3   OH243044   1.031   5.777   1.453  0.0159 -0.1036  0.5260
 7210TIP3    H143045   1.070   5.741   1.533 -0.8272  0.6041  1.2815
 7210TIP3    H243046   1.032   5.872   1.467 -0.4821  0.0073 -0.1545
 7211TIP3   OH243047   6.030   0.767   2.169 -0.0850  0.5210 -0.1450
 7211TIP3    H143048   6.000   0.721   2.091 -1.7453  1.1452  0.0899
 7211TIP3    H243049   6.040   0.858   2.141 -1.3226  0.8776  0.4928
 7212TIP3   OH243050   0.649   4.664   0.457 -0.2981 -0.5874  0.4487
 7212TIP3    H143051   0.680   4.701   0.374  1.4546  2.8279  2.3919
 7212TIP3    H243052   0.556   4.649   0.444 -0.2734  0.7994 -1.8407
 7213TIP3   OH243053   6.267   1.372  11.185 -0.3784 -0.0583  0.8943
 7213TIP3    H143054   6.290   1.305  11.249  0.2376 -0.3778  0.3571
 7213TIP3    H243055   6.297   1.336  11.101 -0.9267  0.4670  0.4672
 7214TIP3   OH243056   6.144   4.255  15.968 -0.7495 -0.3436 -0.4038
 7214TIP3    H143057   6.226   4.304  15.958 -1.7689  2.1544  2.1606
 7214TIP3    H243058   6.101   4.263  15.882  0.5924  0.4619 -1.0265
 7215TIP3   OH243059   0.786   1.934   0.188 -0.5213  0.4277 -0.4600
 7215TIP3    H143060   0.750   2.001   0.130  0.1233  1.6150  0.4731
 7215TIP3    H243061   0.776   1.970   0.276  2.3922  0.5776 -0.0930
 7216TIP3   OH243062   0.758   3.555   2.219 -0.1805 -0.4307  0.3548
 7216TIP3    H143063   0.675   3.530   2.179 -1.0120  2.4352  0.0657
 7216TIP3    H243064   0.808   3.594   2.147  0.2630  0.4235  1.1067
 7217TIP3   OH243065   4.205   6.757   0.241  0.0635  0.5387 -0.2379
 7217TIP3    H143066   4.114   6.781   0.224 -0.6981 -2.2938 -0.5411
 7217TIP3    H243067   4.209   6.743   0.335 -1.6956 -5.4321 -0.6463
 7218TIP3   OH243068   3.480   0.424  12.625  0.2215 -0.5289 -0.4825
 7218TIP3    H143069   3.387   0.411  12.606 -0.0516 -0.2603  0.6226
 7218TIP3    H243070   3.510   0.340  12.660 -0.0210 -0.1384  0.7138
 7219TIP3   OH243071   4.677   5.479  15.660 -0.3064  0.8736 -0.3236
 7219TIP3    H143072   4.722   5.434  15.588  2.8175  0.9139  1.3922
 7219TIP3    H243073   4.627   5.410  15.704  0.4669  0.1214 -0.5879
 7220TIP3   OH243074   5.797   5.554  12.354 -0.1999 -0.0494  0.6250
 7220TIP3    H143075   5.829   5.525  12.439  1.6998  1.2083  0.3818
 7220TIP3    H243076   5.846   5.502  12.290  0.1024  0.6713  0.2638
 7221TIP3   OH243077   6.693   1.079   5.674 -0.4361 -0.2221 -0.3505
 7221TIP3    H143078   6.731   0.994   5.696  0.5779  0.2995 -0.0341
 7221TIP3    H243079   6.695   1.128   5.756  3.1174  1.6457 -1.3361
 7222TIP3   OH243080   2.425   1.305   3.327  0.2654 -0.5196  0.1033
 7222TIP3    H143081   2.508   1.301   3.375 -0.9796  0.3507  2.5332
 7222TIP3    H243082   2.373   1.233   3.362 -0.6066  0.0064 -0.0616
 7223TIP3   OH243083   0.371   3.587  16.698  0.0995  0.2663 -0.0329
 7223TIP3    H143084   0.301   3.587  16.633  0.6842 -1.5686 -0.7429
 7223TIP3    H243085   0.424   3.663  16.677 -0.5806  0.5618 -0.7268
 7224TIP3   OH243086   0.300   1.387   0.988  0.6692  0.0876 -0.1140
 7224TIP3    H143087   0.364   1.442   0.942 -1.5914  0.7049 -2.7539
 7224TIP3    H243088   0.225   1.444   1.003 -1.1416 -1.7692 -1.5286
 7225TIP3   OH243089   4.757   6.100  11.871  0.6707  0.1389  0.6387
 7225TIP3    H143090   4.759   6.165  11.941  2.3125  1.1588 -0.2853
 7225TIP3    H243091   4.750   6.152  11.791 -0.6605 -0.9764 -0.0036
 7226TIP3   OH243092   0.440   3.956  13.422 -0.1512  0.0521  0.8234
 7226TIP3    H143093   0.356   4.001  13.431  0.0020  0.7011 -0.7448
 7226TIP3    H243094   0.499   4.022  13.386  0.4059 -1.0405 -0.3370
 7227TIP3   OH243095   1.655   4.103  15.402 -0.1924 -0.2724 -0.2128
 7227TIP3    H143096   1.737   4.054  15.412  0.5571  1.2791  1.8967
 7227TIP3    H243097   1.604   4.080  15.480 -0.7752  0.5631 -0.3441
 7228TIP3   OH243098   0.647   4.665  16.874  0.7441 -0.2720 -0.3551
 7228TIP3    H143099   0.726   4.620  16.906  0.7367  0.1061  0.1978
 7228TIP3    H243100   0.575   4.624  16.921  0.7780  0.6300  0.5129
 7229TIP3   OH243101   5.990   3.585   1.287 -0.0156  0.0756  0.3986
 7229TIP3    H143102   5.999   3.490   1.281 -0.5411  0.0660 -0.4060
 7229TIP3    H243103   6.080   3.616   1.301  0.0265 -0.5904  1.7535
 7230TIP3   OH243104   6.067   1.021  11.673  0.4717  0.6572 -0.2903
 7230TIP3    H143105   5.995   0.977  11.718  2.7133  0.0677  3.0124
 7230TIP3    H243106   6.065   0.984  11.584 -0.7956 -2.3953  0.8750
 7231TIP3   OH243107   4.396   4.028   5.087  0.3543  0.0952 -0.0777
 7231TIP3    H143108   4.485   4.059   5.071  0.1148 -0.7389 -4.1919
 7231TIP3    H243109   4.395   3.938   5.055 -1.8958 -0.0391  0.1840
 7232TIP3   OH243110   5.823   1.048  13.043 -0.1712 -0.3192  0.2611
 7232TIP3    H143111   5.760   1.119  13.032 -0.6924 -1.0410 -2.0719
 7232TIP3    H243112   5.780   0.972  13.003  1.3147 -1.3679  0.5732
 7233TIP3   OH243113   3.054   4.985  13.906 -0.1476  0.2300 -0.3107
 7233TIP3    H143114   3.042   5.059  13.966 -1.5831  0.2680 -0.6064
 7233TIP3    H243115   3.019   4.910  13.955  0.8468 -0.1670 -0.2026
 7234TIP3   OH243116   4.391   6.185   4.446  0.5703 -0.4693  0.2247
 7234TIP3    H143117   4.425   6.095   4.445 -0.2591 -0.8026 -0.9824
 7234TIP3    H243118   4.401   6.214   4.355 -0.4872  0.1514  0.3005
 7235TIP3   OH243119   3.924   6.285   0.833 -0.3912  0.0130  0.0739
 7235TIP3    H143120   3.922   6.293   0.928  1.9313 -0.6718  0.2533
 7235TIP3    H243121   3.960   6.369   0.803 -0.8578  0.1229 -0.1816
 7236TIP3   OH243122   1.706   3.069  11.431  0.0543  0.1068 -0.1920
 7236TIP3    H143123   1.638   3.135  11.447  1.2979  1.7380 -1.2703
 7236TIP3    H243124   1.786   3.109  11.465  0.2854 -2.5289  2.7666
 7237TIP3   OH243125   1.088   3.202   2.568  0.1126 -0.0509  0.3007
 7237TIP3    H143126   1.142   3.247   2.503 -0.9959 -0.3370 -0.8548
 7237TIP3    H243127   1.079   3.113   2.535  0.7756 -0.6580  1.6453
 7238TIP3   OH243128   5.928   1.242   2.659 -0.1936 -0.1820  0.5278
 7238TIP3    H143129   5.969   1.277   2.580 -0.1562  0.0461  0.6501
 7238TIP3    H243130   5.855   1.302   2.677  1.0904  1.0323  1.9166
 7239TIP3   OH243131   6.487   5.981   4.046 -0.0029  0.5407 -0.2418
 7239TIP3    H143132   6.582   5.973   4.046  0.1388  1.9892 -1.1360
 7239TIP3    H243133   6.460   5.944   4.130  1.4796  1.5761  0.7258
 7240TIP3   OH243134   0.439   3.593   5.328  0.1618  0.0944 -0.1944
 7240TIP3    H143135   0.442   3.683   5.361 -0.4725  0.2328 -0.4958
 7240TIP3    H243136   0.514   3.587   5.269  0.5583  0.2354  0.2838
 7241TIP3   OH243137   3.968   4.353   4.702  0.1423 -0.3105  0.0943
 7241TIP3    H143138   3.918   4.296   4.760  0.9725 -0.3652  0.7819
 7241TIP3    H243139   3.923   4.437   4.706 -0.2217 -0.5130  0.2592
 7242TIP3   OH243140   6.622   2.648  12.973 -0.2105  0.0219 -0.2525
 7242TIP3    H143141   6.575   2.694  12.904 -1.7125  0.0109  0.7263
 7242TIP3    H243142   6.598   2.695  13.054  1.4444 -0.0028  0.2930
 7243TIP3   OH243143   4.964   1.309   0.807  0.1199 -0.0196 -0.5574
 7243TIP3    H143144   5.017   1.365   0.863  2.2249 -1.5207 -0.9326
 7243TIP3    H243145   4.986   1.337   0.718 -1.3400  0.7236 -0.7056
 7244TIP3   OH243146   3.051   3.410  13.708  0.4049  0.1537  0.0471
 7244TIP3    H143147   3.052   3.318  13.681 -1.3129  0.5738 -1.6675
 7244TIP3    H243148   3.138   3.442  13.687 -0.2920 -0.0106 -3.6565
 7245TIP3   OH243149   1.004   3.848  16.227 -0.0074  0.0344 -0.7068
 7245TIP3    H143150   1.082   3.793  16.236  0.2376  0.6456  1.5367
 7245TIP3    H243151   0.952   3.829  16.305 -2.1120 -0.2902 -2.0962
 7246TIP3   OH243152   0.558   3.997  17.156 -0.1625 -0.5171  0.2818
 7246TIP3    H143153   0.500   4.006  17.231  0.4978  3.2315  0.4977
 7246TIP3    H243154   0.646   4.009  17.192  0.4443 -1.8545 -0.6722
 7247TIP3   OH243155   5.978   5.990  16.592  0.2432 -0.2653 -0.1798
 7247TIP3    H143156   6.045   6.054  16.569  0.3193  0.8685  2.7874
 7247TIP3    H243157   6.028   5.911  16.615  0.1818 -1.2724 -3.0115
 7248TIP3   OH243158   3.644   4.649  11.254  0.5520 -0.0458  0.5142
 7248TIP3    H143159   3.604   4.736  11.266  0.9067  0.2189 -0.1431
 7248TIP3    H243160   3.649   4.639  11.159  0.2504 -0.9158  0.5885
 7249TIP3   OH243161   5.548   1.506  13.863  1.2584  0.4730  0.0250
 7249TIP3    H143162   5.508   1.592  13.870  0.4714  0.0662  0.7239
 7249TIP3    H243163   5.586   1.490  13.950 -1.2122 -1.1045  0.9264
 7250TIP3   OH243164   1.705   4.254  14.548  0.3003 -0.3512 -0.2381
 7250TIP3    H143165   1.762   4.329  14.566  1.7912 -1.6162  0.5612
 7250TIP3    H243166   1.709   4.202  14.628 -1.8902 -0.5898 -0.2231
 7251TIP3   OH243167   5.627   1.906  11.461  0.1205  0.5479 -0.3234
 7251TIP3    H143168   5.719   1.926  11.444  0.0909  1.0004  0.0090
 7251TIP3    H243169   5.579   1.972  11.411 -0.0684 -0.4169 -1.4701
 7252TIP3   OH243170   2.941   3.306   0.718  0.6971 -0.1578 -0.7999
 7252TIP3    H143171   3.000   3.304   0.643  1.6138 -1.2197 -0.0871
 7252TIP3    H243172   2.995   3.276   0.791  0.0506  1.6182  0.4545
 7253TIP3   OH243173   0.897   5.259  15.901 -0.3318 -0.1806 -0.5498
 7253TIP3    H143174   0.805   5.264  15.929 -0.2375  0.4153 -0.3316
 7253TIP3    H243175   0.921   5.350  15.882  0.9305  0.0499  1.7928
 7254TIP3   OH243176   3.014   1.529  16.459 -0.2272  0.2373 -0.6114
 7254TIP3    H143177   2.941   1.519  16.398 -0.9991 -0.5180  0.4119
 7254TIP3    H243178   2.975   1.520  16.546  1.2351 -1.3193 -0.0543
 7255TIP3   OH243179   4.684   4.465  15.354 -0.5704 -0.0095  0.2104
 7255TIP3    H143180   4.660   4.385  15.402 -1.0125 -0.3926 -0.6253
 7255TIP3    H243181   4.742   4.512  15.414  0.6636 -1.5178  0.2795
 7256TIP3   OH243182   5.028   3.469   1.741 -0.1801  0.1269  0.4530
 7256TIP3    H143183   4.966   3.444   1.673  1.1165  0.0451 -0.7527
 7256TIP3    H243184   5.100   3.406   1.732  1.6376  2.2119 -0.4596
 7257TIP3   OH243185   5.202   0.273   4.565 -0.4082  0.5237  0.0785
 7257TIP3    H143186   5.124   0.229   4.532  0.0828 -0.1095 -0.2474
 7257TIP3    H243187   5.175   0.364   4.576 -1.2613  0.2634  0.2009
 7258TIP3   OH243188   3.510   6.701  16.862 -0.4499 -0.2650 -0.1212
 7258TIP3    H143189   3.451   6.634  16.826 -0.1677  0.1276 -1.3501
 7258TIP3    H243190   3.500   6.776  16.803 -0.6138  0.7301  1.1263
 7259TIP3   OH243191   1.609   2.043   5.527  0.0793 -0.1671  0.4996
 7259TIP3    H143192   1.688   1.989   5.518 -0.6545 -1.3530  0.9667
 7259TIP3    H243193   1.541   1.995   5.480 -0.4858  0.5951  0.5195
 7260TIP3   OH243194   2.364   6.257   3.866 -0.2857  0.0382  0.2266
 7260TIP3    H143195   2.327   6.251   3.954 -0.9179 -0.1282 -0.0483
 7260TIP3    H243196   2.458   6.247   3.880 -0.3796 -0.0069  0.8817
 7261TIP3   OH243197   0.908   2.684   2.360 -0.4573  0.1302 -0.5606
 7261TIP3    H143198   0.826   2.723   2.391  0.4592  0.1092  2.1152
 7261TIP3    H243199   0.963   2.759   2.338 -0.2918  0.2088  0.1291
 7262TIP3   OH243200   5.293   1.895   0.184 -0.1425  0.1570  0.0053
 7262TIP3    H143201   5.378   1.864   0.155  0.9589 -0.8410  3.8345
 7262TIP3    H243202   5.236   1.818   0.181  0.1353 -0.0941  0.9818
 7263TIP3   OH243203   4.446   0.108   5.749  0.1659  0.6408  0.1266
 7263TIP3    H143204   4.452   0.169   5.823 -1.8156 -0.6304  1.4389
 7263TIP3    H243205   4.410   0.161   5.678 -0.2756  1.3210  0.8365
 7264TIP3   OH243206   5.876   6.691  12.011  0.8567 -0.3558 -0.2068
 7264TIP3    H143207   5.898   6.735  11.929  0.7029  0.1399  0.0094
 7264TIP3    H243208   5.930   6.735  12.077  0.7014 -0.4931  0.0142
 7265TIP3   OH243209   5.729   2.770  11.322 -1.4670  0.4942 -0.1188
 7265TIP3    H143210   5.797   2.818  11.369  0.1362 -2.0446  0.3748
 7265TIP3    H243211   5.742   2.794  11.230 -1.8040  2.2159  0.2579
 7266TIP3   OH243212   5.031   3.448  12.618  0.1717  0.3161  0.8447
 7266TIP3    H143213   5.083   3.460  12.539 -0.9493 -0.2055 -0.0072
 7266TIP3    H243214   5.053   3.523  12.673  1.8188  0.0976  0.5395
 7267TIP3   OH243215   5.824   4.814   0.383  0.1474 -0.0589  0.1843
 7267TIP3    H143216   5.803   4.863   0.304 -0.7403  0.4678  0.7239
 7267TIP3    H243217   5.749   4.829   0.441  0.2146 -1.4304  0.6611
 7268TIP3   OH243218   4.291   2.553   0.327  0.5149 -0.0069  0.0518
 7268TIP3    H143219   4.332   2.495   0.392 -0.0836  0.2511  0.6740
 7268TIP3    H243220   4.292   2.503   0.246 -2.9938 -2.3710  1.2267
 7269TIP3   OH243221   5.563   3.181  16.747 -0.4152  0.1916  0.3652
 7269TIP3    H143222   5.518   3.140  16.673 -2.2583 -0.3002  1.6878
 7269TIP3    H243223   5.643   3.130  16.758 -1.2241 -1.1792  0.1227
 7270TIP3   OH243224   2.282   6.012  12.552  0.2043  0.2003 -0.5174
 7270TIP3    H143225   2.353   6.019  12.616  0.1265 -2.3569 -0.0303
 7270TIP3    H243226   2.214   6.071  12.584  1.0910  0.7242  0.4428
 7271TIP3   OH243227   1.715   4.547  12.898 -0.3196  0.0255 -0.2164
 7271TIP3    H143228   1.802   4.586  12.889 -0.5117  0.5262  0.0418
 7271TIP3    H243229   1.717   4.470  12.842  0.5914 -0.4769  0.4904
 7272TIP3   OH243230   0.227   5.448   4.553  1.3372  0.6681 -0.4977
 7272TIP3    H143231   0.307   5.399   4.532  0.9423 -0.2390  0.0433
 7272TIP3    H243232   0.244   5.537   4.522  2.2667  0.3050 -1.0659
 7273TIP3   OH243233   3.120   0.675   3.840  0.0114 -0.3488  0.2383
 7273TIP3    H143234   3.077   0.715   3.916  1.5483 -0.8878  1.4463
 7273TIP3    H243235   3.212   0.669   3.865  0.7905  0.4967 -2.1274
 7274TIP3   OH243236   2.204   4.247   4.278  0.0558  0.2762  0.0983
 7274TIP3    H143237   2.179   4.325   4.328  0.0592  1.0648 -1.0974
 7274TIP3    H243238   2.238   4.281   4.195  0.7885 -0.9679 -0.1464
 7275TIP3   OH243239   3.388   4.944  11.442  0.1906  0.2017 -0.7105
 7275TIP3    H143240   3.481   4.949  11.421  0.3589 -0.4252 -0.1581
 7275TIP3    H243241   3.380   4.990  11.526  0.3614 -1.4179  0.2459
 7276TIP3   OH243242   6.435   6.282   1.319  0.7484  0.5745  0.2406
 7276TIP3    H143243   6.414   6.192   1.345 -1.4999  1.4618  1.7763
 7276TIP3    H243244   6.511   6.273   1.262 -0.0903 -2.3980 -0.5858
 7277TIP3   OH243245   5.781   2.083   0.605 -0.0794  0.4306 -0.2307
 7277TIP3    H143246   5.845   2.151   0.628 -0.5246  1.5036 -1.9429
 7277TIP3    H243247   5.833   2.003   0.597  0.6909  0.8365  0.4460
 7278TIP3   OH243248   3.829   5.310   5.563 -0.1499 -0.6283 -0.1713
 7278TIP3    H143249   3.893   5.268   5.620  0.1553  0.4176  0.2768
 7278TIP3    H243250   3.755   5.249   5.562  0.9471 -2.0189 -0.9598
 7279TIP3   OH243251   3.520   0.420   3.562  0.6534 -0.4567 -0.7423
 7279TIP3    H143252   3.453   0.450   3.500 -0.0478 -0.4047  0.0154
 7279TIP3    H243253   3.591   0.484   3.554 -1.2148  2.1364  1.5630
 7280TIP3   OH243254   2.394   0.825  13.986  0.3189 -0.2667  0.0443
 7280TIP3    H143255   2.389   0.732  14.005 -3.0925 -0.2267 -0.1589
 7280TIP3    H243256   2.441   0.830  13.903 -2.2750 -2.1905 -1.6996
 7281TIP3   OH243257   4.098   5.211   5.648 -0.0212 -0.3357 -0.1448
 7281TIP3    H143258   4.099   5.116   5.646  0.8577 -0.3555  0.6338
 7281TIP3    H243259   4.176   5.235   5.698  0.3256  0.8304 -1.2004
 7282TIP3   OH243260   6.396   2.093  16.331 -0.1889  0.3174 -0.6198
 7282TIP3    H143261   6.304   2.117  16.342 -0.0643  0.7189 -0.4033
 7282TIP3    H243262   6.394   2.013  16.279 -0.6123  1.0242 -1.7352
 7283TIP3   OH243263   4.955   4.985   0.146  0.2553 -0.4988 -0.1775
 7283TIP3    H143264   4.886   5.029   0.095  0.3095 -0.7187 -0.4452
 7283TIP3    H243265   5.019   5.054   0.164  0.5407 -0.5446 -0.9455
 7284TIP3   OH243266   3.665   0.021  13.624 -0.2240  0.0064  0.5098
 7284TIP3    H143267   3.618   0.056  13.548 -0.4079  0.5185  0.8511
 7284TIP3    H243268   3.725   0.091  13.649  2.7338 -1.5797 -1.5407
 7285TIP3   OH243269   1.735   3.290  12.676  0.5821  0.8581  0.1982
 7285TIP3    H143270   1.821   3.252  12.693 -0.1258 -0.7016  0.4432
 7285TIP3    H243271   1.750   3.353  12.605  1.4996 -1.2498 -1.5837
 7286TIP3   OH243272   5.204   6.178  10.740 -0.5315  0.1386 -0.6315
 7286TIP3    H143273   5.140   6.128  10.689 -0.9672  0.4649 -0.4177
 7286TIP3    H243274   5.282   6.124  10.741 -1.3057 -1.0091  0.4433
 7287TIP3   OH243275   1.891   5.421  11.789 -0.3042  0.1777 -0.2007
 7287TIP3    H143276   1.915   5.425  11.881  1.3307 -0.2094 -0.5666
 7287TIP3    H243277   1.952   5.481  11.746 -1.0240  0.3309 -1.0302
 7288TIP3   OH243278   1.830   2.382   6.664 -0.1581 -0.7659 -0.0551
 7288TIP3    H143279   1.833   2.307   6.722 -2.1434 -1.2366 -0.4766
 7288TIP3    H243280   1.760   2.437   6.698 -1.3898 -1.0584 -1.9433
 7289TIP3   OH243281   4.790   5.119  17.359  0.4253  0.2183  0.3968
 7289TIP3    H143282   4.730   5.193  17.371  0.4456  0.5372 -1.1823
 7289TIP3    H243283   4.827   5.133  17.272 -0.0597 -2.0115 -0.2222
 7290TIP3   OH243284   5.222   1.243  16.651  0.2910  0.0136 -0.2019
 7290TIP3    H143285   5.153   1.287  16.602  2.1210  1.7280 -1.3846
 7290TIP3    H243286   5.208   1.270  16.742 -0.4028  0.5836 -0.4720
 7291TIP3   OH243287   6.066   6.132   5.838 -0.0784  0.2004 -0.5372
 7291TIP3    H143288   6.138   6.176   5.792 -1.0611  2.3986 -0.1159
 7291TIP3    H243289   5.987   6.167   5.797 -0.9807 -2.4814 -1.2724
 7292TIP3   OH243290   3.378   6.034   2.756  0.2482 -0.5369  0.2478
 7292TIP3    H143291   3.381   6.129   2.772 -0.7662 -0.2677 -0.9633
 7292TIP3    H243292   3.470   6.009   2.746  0.4888  0.5986 -0.7626
 7293TIP3   OH243293   2.548   4.773  14.371 -0.0825  0.1228  0.0607
 7293TIP3    H143294   2.602   4.795  14.447 -0.0373  0.4311 -0.0594
 7293TIP3    H243295   2.588   4.693  14.337 -0.2819 -0.1795  0.5315
 7294TIP3   OH243296   1.018   0.302  15.184  0.2535 -0.0979 -0.2098
 7294TIP3    H143297   1.096   0.327  15.233 -0.3541  0.9432  0.2486
 7294TIP3    H243298   0.981   0.228  15.233 -0.3620  0.9477  0.9461
 7295TIP3   OH243299   4.588   4.724   3.031  0.0339  0.5898 -0.0799
 7295TIP3    H143300   4.571   4.778   3.108  0.5421  0.4424  0.1412
 7295TIP3    H243301   4.580   4.634   3.063 -0.8339  0.5298 -0.4509
 7296TIP3   OH243302   4.334   1.852   2.707 -0.2032  0.1109 -0.0982
 7296TIP3    H143303   4.357   1.941   2.734  0.1331 -0.1666  0.5473
 7296TIP3    H243304   4.244   1.859   2.676  0.5128  1.1174 -2.1885
 7297TIP3   OH243305   1.075   2.700  12.400 -0.0292  0.0796 -0.5594
 7297TIP3    H143306   1.142   2.715  12.334 -0.6191  0.1015 -1.1696
 7297TIP3    H243307   1.026   2.624  12.368  0.9724 -1.2440  0.9227
 7298TIP3   OH243308   4.744   2.602   2.850 -0.0892 -0.1678  0.0685
 7298TIP3    H143309   4.675   2.625   2.913  0.7360 -0.9572  1.3311
 7298TIP3    H243310   4.710   2.525   2.804  0.9690 -2.3920  2.6956
 7299TIP3   OH243311   1.042   6.290  12.594 -0.5558  0.1333  0.7874
 7299TIP3    H143312   1.135   6.287  12.619 -0.5417  0.4807  0.7794
 7299TIP3    H243313   1.044   6.307  12.500 -0.6153 -0.7583  0.6174
 7300TIP3   OH243314   0.294   5.795   5.006 -0.5715 -0.3538  0.0896
 7300TIP3    H143315   0.324   5.775   5.095  0.5693  0.5343 -0.0694
 7300TIP3    H243316   0.242   5.875   5.016  1.1856  0.9001 -0.2545
 7301TIP3   OH243317   1.082   4.862  11.590 -0.3092 -0.2712 -0.0160
 7301TIP3    H143318   1.153   4.902  11.640 -0.4604  0.2015 -0.1763
 7301TIP3    H243319   1.060   4.783  11.639  2.3376 -2.0848 -1.4940
 7302TIP3   OH243320   3.746   5.139   0.307 -0.1897 -0.0990  0.2836
 7302TIP3    H143321   3.799   5.182   0.375 -0.2168 -0.6863  0.6865
 7302TIP3    H243322   3.751   5.197   0.232  1.4749 -0.3948  0.1256
 7303TIP3   OH243323   3.130   4.718  11.433  0.2059  0.4492  0.2167
 7303TIP3    H143324   3.216   4.758  11.422  0.9665 -1.3788 -0.9181
 7303TIP3    H243325   3.105   4.692  11.344 -0.7450 -0.5892  0.7729
 7304TIP3   OH243326   1.617   6.043   5.588  0.4035  0.0038 -0.3355
 7304TIP3    H143327   1.533   6.036   5.633 -1.4066 -0.2591 -3.4777
 7304TIP3    H243328   1.610   6.124   5.538  1.1485 -1.0491 -2.2385
 7305TIP3   OH243329   2.681   2.267   5.539 -0.3886  0.4965 -0.1307
 7305TIP3    H143330   2.741   2.317   5.484  2.0911 -2.1822 -0.0802
 7305TIP3    H243331   2.691   2.305   5.627  0.5673  0.6493 -0.2975
 7306TIP3   OH243332   4.971   5.165   2.307 -0.4113 -0.3669 -0.4720
 7306TIP3    H143333   4.942   5.099   2.244 -1.9518 -1.2614  1.0853
 7306TIP3    H243334   4.949   5.128   2.393  0.9507  1.1096  0.5815
 7307TIP3   OH243335   4.068   3.655  13.472 -0.8257  0.0402  0.1020
 7307TIP3    H143336   4.131   3.665  13.543 -0.0297  0.0135 -0.5811
 7307TIP3    H243337   4.102   3.711  13.402 -2.2240  1.0136  0.1505
 7308TIP3   OH243338   0.307   4.409   1.817  0.5453  0.9079 -0.5888
 7308TIP3    H143339   0.240   4.476   1.829  2.2683  2.8187 -1.0233
 7308TIP3    H243340   0.317   4.401   1.722 -0.0454 -0.4260 -0.5574
 7309TIP3   OH243341   1.819   5.342  11.528 -0.0401  0.1645 -0.2795
 7309TIP3    H143342   1.865   5.356  11.611 -0.5998 -1.8002  0.4169
 7309TIP3    H243343   1.851   5.257  11.496 -0.1570  0.6805 -1.8718
 7310TIP3   OH243344   2.420   6.638  14.772  0.1906 -0.4833  0.3960
 7310TIP3    H143345   2.459   6.705  14.828  1.1588 -0.6321 -0.0814
 7310TIP3    H243346   2.442   6.555  14.814  0.7639 -0.5873 -0.0987
 7311TIP3   OH243347   1.295   6.691   1.548 -0.0629 -0.2968 -0.9889
 7311TIP3    H143348   1.357   6.633   1.592 -0.5478 -1.4599 -1.7969
 7311TIP3    H243349   1.224   6.702   1.612  0.7842  0.7961 -0.1812
 7312TIP3   OH243350   1.404   4.566   2.155 -0.3680 -0.4805  0.2328
 7312TIP3    H143351   1.435   4.651   2.123  2.6435 -1.0574  1.3111
 7312TIP3    H243352   1.379   4.582   2.246 -3.2381 -0.0893 -0.5400
 7313TIP3   OH243353   5.099   1.105   2.898 -0.6537 -0.7821  0.7388
 7313TIP3    H143354   5.189   1.132   2.917 -0.7746  0.4838 -0.2917
 7313TIP3    H243355   5.045   1.158   2.956 -0.9029  1.5004 -1.4051
 7314TIP3   OH243356   2.435   0.443   6.246  0.3071 -0.4621  0.1349
 7314TIP3    H143357   2.437   0.537   6.259 -0.1653 -0.6028  1.4322
 7314TIP3    H243358   2.447   0.406   6.334 -3.2579 -1.5498  0.3540
 7315TIP3   OH243359   2.837   3.046  13.877 -0.3072  0.2516 -0.1181
 7315TIP3    H143360   2.803   3.125  13.835 -0.5742  0.0132 -0.3453
 7315TIP3    H243361   2.917   3.076  13.922 -0.9206  0.8590  0.6001
 7316TIP3   OH243362   4.396   0.071  12.407  0.2149  0.0328 -0.1445
 7316TIP3    H143363   4.455   0.062  12.332  1.6577  0.3732  0.9070
 7316TIP3    H243364   4.417   0.157  12.444 -2.6161  1.2777 -1.0787
 7317TIP3   OH243365   1.598   4.670  17.218 -0.1700 -0.1770  0.0169
 7317TIP3    H143366   1.691   4.651  17.226 -0.4799 -1.9946 -0.3475
 7317TIP3    H243367   1.554   4.603  17.270 -1.2923  0.9527  0.6168
 7318TIP3   OH243368   5.661   5.383  15.981  0.3803 -0.2164  0.2417
 7318TIP3    H143369   5.721   5.456  15.965  0.9467 -1.1959 -2.6756
 7318TIP3    H243370   5.713   5.318  16.028  0.8813 -0.0845 -0.1250
 7319TIP3   OH243371   0.610   4.921   6.352 -0.2063  0.8770  0.4735
 7319TIP3    H143372   0.659   5.000   6.328  0.6788 -0.0286 -0.8335
 7319TIP3    H243373   0.575   4.940   6.439  2.7077  1.4887  1.6504
 7320TIP3   OH243374   6.267   3.526  11.675 -0.6038  0.1349 -0.5839
 7320TIP3    H143375   6.328   3.546  11.605 -1.2349  3.8056 -0.2985
 7320TIP3    H243376   6.183   3.558  11.643 -1.3957 -0.3790  0.9022
 7321TIP3   OH243377   6.623   3.001  15.535 -0.9828  0.3292 -0.1096
 7321TIP3    H143378   6.714   3.016  15.561 -1.0605 -0.1603  0.4650
 7321TIP3    H243379   6.610   2.907  15.545 -1.1628  0.1864 -1.4766
 7322TIP3   OH243380   3.962   1.265  16.811 -0.4726  0.3514  0.9666
 7322TIP3    H143381   3.973   1.237  16.902  0.7150 -1.5831  0.2895
 7322TIP3    H243382   3.987   1.188  16.759 -2.4077  0.9514 -1.0018
 7323TIP3   OH243383   3.031   3.907  15.708 -0.1238 -0.1362  0.2069
 7323TIP3    H143384   2.940   3.921  15.733  0.0007  1.8365 -0.3298
 7323TIP3    H243385   3.033   3.925  15.614  0.9777  0.7395  0.3841
 7324TIP3   OH243386   0.429   1.180   2.658  0.6994  0.3293  0.3520
 7324TIP3    H143387   0.472   1.249   2.708  0.9450 -0.8687  1.8592
 7324TIP3    H243388   0.402   1.116   2.723  0.7031 -1.1256 -1.0173
 7325TIP3   OH243389   3.131   1.184  15.764  0.2626  0.1945  0.5841
 7325TIP3    H143390   3.041   1.217  15.756  0.0841 -0.5006 -0.5626
 7325TIP3    H243391   3.184   1.261  15.782 -0.4141  0.8002  0.0233
 7326TIP3   OH243392   4.651   1.824  15.624  0.5091 -0.6723  0.0864
 7326TIP3    H143393   4.729   1.853  15.576 -0.6575  1.0909 -0.8469
 7326TIP3    H243394   4.600   1.776  15.559 -1.1680  1.8821 -0.6161
 7327TIP3   OH243395   1.521   5.252   0.310 -0.1248 -0.1844  0.5449
 7327TIP3    H143396   1.571   5.333   0.311 -0.3066  0.0439 -2.3461
 7327TIP3    H243397   1.582   5.186   0.342  1.6138  0.3293 -1.4911
 7328TIP3   OH243398   4.206   6.227  14.916  0.0816  0.3742  0.2639
 7328TIP3    H143399   4.213   6.169  14.992 -0.3328  0.9503  0.7554
 7328TIP3    H243400   4.286   6.279  14.918  0.0753  0.3819  0.2965
 7329TIP3   OH243401   5.926   6.177   0.657  0.1014 -0.7321 -0.1246
 7329TIP3    H143402   5.856   6.207   0.598  0.0784 -2.0252 -0.7768
 7329TIP3    H243403   5.968   6.258   0.687 -0.2790 -0.0201 -1.4368
 7330TIP3   OH243404   1.225   0.759  11.761 -0.0416 -0.0439  0.4058
 7330TIP3    H143405   1.145   0.745  11.710  0.2686  0.3732 -0.2007
 7330TIP3    H243406   1.208   0.716  11.845 -0.8327 -0.1108  0.2133
 7331TIP3   OH243407   0.371   4.996  14.741  0.1164  0.1497 -0.1067
 7331TIP3    H143408   0.361   4.961  14.653 -1.2312 -0.3525  0.2219
 7331TIP3    H243409   0.347   4.923  14.799  0.3016  0.6763  0.6532
 7332TIP3   OH243410   1.574   3.353  16.401  0.1945  0.4708  0.7460
 7332TIP3    H143411   1.521   3.355  16.322  2.6015  1.3508 -0.9421
 7332TIP3    H243412   1.634   3.426  16.393  1.6025 -0.3761  2.6131
 7333TIP3   OH243413   5.371   5.261  12.972 -0.3162 -0.0720 -0.5486
 7333TIP3    H143414   5.391   5.342  13.018  0.9847  0.3777 -1.8392
 7333TIP3    H243415   5.318   5.289  12.896 -0.6184 -0.5422 -0.5172
 7334TIP3   OH243416   3.427   5.903  13.280  0.4270 -0.5276 -0.0628
 7334TIP3    H143417   3.460   5.983  13.321  1.7171 -0.3747 -1.3267
 7334TIP3    H243418   3.471   5.899  13.195 -0.1991 -2.1846 -0.3557
 7335TIP3   OH243419   5.388   3.887  14.226 -0.6022 -0.5648  0.3409
 7335TIP3    H143420   5.464   3.887  14.169 -1.4169 -0.2996 -0.7646
 7335TIP3    H243421   5.400   3.809  14.282 -1.0293 -2.3434 -1.9025
 7336TIP3   OH243422   1.434   4.584   5.623  0.7062  0.2532  0.1926
 7336TIP3    H143423   1.416   4.663   5.675  1.1904  1.8696 -1.9635
 7336TIP3    H243424   1.522   4.598   5.587  0.0426 -0.3362 -1.7983
 7337TIP3   OH243425   2.909   2.603   5.335 -0.4341 -0.5869 -0.3602
 7337TIP3    H143426   2.998   2.604   5.300 -0.6417  0.9487 -0.9177
 7337TIP3    H243427   2.858   2.557   5.268 -0.2607 -0.4649 -0.5762
 7338TIP3   OH243428   0.870   3.193   5.044  0.2237 -0.0478  0.3107
 7338TIP3    H143429   0.834   3.119   4.995 -1.1178 -0.6591  2.1197
 7338TIP3    H243430   0.794   3.245   5.069  0.9442  0.6764  1.0605
 7339TIP3   OH243431   4.315   1.239   5.179  0.1701 -0.8370 -0.2457
 7339TIP3    H143432   4.290   1.147   5.173 -0.6561 -0.6813  0.5130
 7339TIP3    H243433   4.336   1.253   5.272 -0.0077 -0.2030 -0.2903
 7340TIP3   OH243434   2.146   4.671   4.706  0.9800 -0.2146  0.2162
 7340TIP3    H143435   2.170   4.737   4.771  2.5347  0.1140 -0.6413
 7340TIP3    H243436   2.122   4.722   4.629  0.1275 -0.6262  0.1999
 7341TIP3   OH243437   3.440   4.901  16.557  0.2706 -0.1086 -0.6060
 7341TIP3    H143438   3.423   4.993  16.577  2.7474  0.5274 -1.1601
 7341TIP3    H243439   3.447   4.859  16.643  3.6931  1.1979 -0.0966
 7342TIP3   OH243440   5.025   1.987   2.094  0.3376 -0.7908  0.0450
 7342TIP3    H143441   4.961   2.050   2.128 -0.0563  0.7865 -3.2222
 7342TIP3    H243442   4.978   1.904   2.091 -0.9397 -0.0708 -0.4734
 7343TIP3   OH243443   3.890   0.666   5.420 -0.3498  0.1153 -0.4771
 7343TIP3    H143444   3.940   0.597   5.462 -0.8762 -1.7431 -2.6516
 7343TIP3    H243445   3.805   0.665   5.465 -0.1844 -0.3381 -0.1649
 7344TIP3   OH243446   1.380   2.332  12.540 -0.6577 -0.3363 -0.0144
 7344TIP3    H143447   1.428   2.250  12.540 -0.0224 -0.0291  2.3677
 7344TIP3    H243448   1.299   2.313  12.492  0.9897 -1.3169 -2.6227
 7345TIP3   OH243449   4.680   2.053   2.705 -0.5167 -0.2264 -0.0930
 7345TIP3    H143450   4.643   2.083   2.788  1.5271  1.1761  0.3977
 7345TIP3    H243451   4.630   2.100   2.638 -1.5808 -0.6832  0.3550
 7346TIP3   OH243452   1.284   4.387   3.584  0.2731  0.2068 -0.1054
 7346TIP3    H143453   1.227   4.437   3.525 -2.5602 -0.6067  1.7717
 7346TIP3    H243454   1.325   4.453   3.640 -1.4207  0.6676  0.6486
 7347TIP3   OH243455   4.530   1.556  16.335  0.3162 -0.2121 -0.2662
 7347TIP3    H143456   4.538   1.462  16.351  1.3651 -0.3479 -1.3338
 7347TIP3    H243457   4.588   1.596  16.400  0.0004 -0.3161  0.0802
 7348TIP3   OH243458   4.875   0.295   3.713  0.0492  0.3408  0.4311
 7348TIP3    H143459   4.930   0.292   3.791 -1.2614 -2.6066  1.3954
 7348TIP3    H243460   4.787   0.312   3.747 -0.3732  0.0907 -0.5179
 7349TIP3   OH243461   4.732   6.124   4.814 -0.4930  0.0063  1.0283
 7349TIP3    H143462   4.676   6.056   4.852 -0.8000 -0.8627 -0.9020
 7349TIP3    H243463   4.671   6.188   4.778 -0.2004  1.1054  2.3617
 7350TIP3   OH243464   1.145   6.496  12.095  0.2005  0.4073  1.1283
 7350TIP3    H143465   1.168   6.441  12.020  2.3083  1.4341  0.9392
 7350TIP3    H243466   1.108   6.575  12.056  1.2021  0.8990  1.1447
 7351TIP3   OH243467   6.228   5.206   4.740 -0.2555  0.3061 -0.0831
 7351TIP3    H143468   6.260   5.282   4.789  0.0881 -0.6865  1.3024
 7351TIP3    H243469   6.146   5.183   4.784 -1.7834  1.4223 -2.1543
 7352TIP3   OH243470   3.987   5.829  12.290 -0.0751 -0.7703  0.9179
 7352TIP3    H143471   4.036   5.872  12.219 -1.2723 -2.2556 -0.9131
 7352TIP3    H243472   3.971   5.899  12.353  0.9427  0.6779 -0.3410
 7353TIP3   OH243473   2.524   2.863  13.279  0.1683 -0.0052 -0.0525
 7353TIP3    H143474   2.433   2.837  13.293  0.8257 -1.6946  1.4327
 7353TIP3    H243475   2.528   2.954  13.309 -0.7171 -0.3849  1.3112
 7354TIP3   OH243476   0.130   6.059  13.002 -0.7003  0.2383  0.5059
 7354TIP3    H143477   0.103   6.031  13.090  0.0228  1.2184  1.0683
 7354TIP3    H243478   0.070   6.130  12.980 -0.0243  0.9182  0.8088
 7355TIP3   OH243479   6.458   6.097  12.970  0.5917 -0.8081 -0.1797
 7355TIP3    H143480   6.550   6.122  12.965  0.2221  0.4780 -0.9529
 7355TIP3    H243481   6.410   6.176  12.944 -0.7441 -1.3201  0.6231
 7356TIP3   OH243482   2.669   1.560  13.136  0.1490 -0.2929 -0.5213
 7356TIP3    H143483   2.670   1.656  13.133 -3.7366 -0.0567  0.5450
 7356TIP3    H243484   2.610   1.539  13.209 -2.4221 -3.3711 -3.1859
 7357TIP3   OH243485   5.048   5.365  15.984  0.0392 -0.9837 -0.5118
 7357TIP3    H143486   5.024   5.454  15.958 -1.3700 -1.1758  0.0527
 7357TIP3    H243487   5.035   5.363  16.078  0.8636 -1.5630 -0.3963
 7358TIP3   OH243488   3.022   0.511   6.142 -0.3879 -0.1573  0.1429
 7358TIP3    H143489   3.110   0.516   6.105 -0.9155 -1.2562 -1.3466
 7358TIP3    H243490   3.036   0.497   6.236  1.0164  0.0557 -0.0197
 7359TIP3   OH243491   3.416   6.341  12.949  1.4371 -0.2905 -0.3889
 7359TIP3    H143492   3.497   6.308  12.910  0.6574 -0.9142 -1.5388
 7359TIP3    H243493   3.349   6.323  12.883  0.2282 -0.5085  0.8662
 7360TIP3   OH243494   3.904   5.673   4.190  0.0069  0.1217  0.1334
 7360TIP3    H143495   3.900   5.723   4.108 -1.8182 -0.8779 -0.4373
 7360TIP3    H243496   3.997   5.673   4.213  0.6630 -0.0487 -2.2442
 7361TIP3   OH243497   3.316   5.614  16.830 -0.1698  0.0670 -0.2493
 7361TIP3    H143498   3.301   5.524  16.859 -1.8825  0.4565  0.1652
 7361TIP3    H243499   3.245   5.664  16.869 -0.4502  1.2532 -2.1676
 7362TIP3   OH243500   4.254   2.893   2.008 -0.2570 -0.3976 -0.0075
 7362TIP3    H143501   4.190   2.875   2.076 -0.9362 -1.4179 -0.8828
 7362TIP3    H243502   4.284   2.982   2.026 -1.8065  0.0540  0.5205
 7363TIP3   OH243503   2.847   4.788   1.178 -0.1513 -1.1734  0.2412
 7363TIP3    H143504   2.930   4.764   1.138 -0.5907 -1.3568 -0.5889
 7363TIP3    H243505   2.860   4.774   1.272  1.1599  0.0508  0.2615
 7364TIP3   OH243506   5.960   6.510   3.022  0.5237  0.2101 -0.2477
 7364TIP3    H143507   5.985   6.429   3.067  1.6905 -0.8746 -2.6486
 7364TIP3    H243508   5.867   6.499   3.002 -0.5258  1.4926  3.2274
 7365TIP3   OH243509   4.921   1.752   3.479 -0.0131  0.6622  0.7407
 7365TIP3    H143510   4.852   1.690   3.505 -0.2899  1.0159  0.8665
 7365TIP3    H243511   4.884   1.838   3.501 -0.4662  1.0246 -1.2648
 7366TIP3   OH243512   1.746   4.345  11.434  0.0935  0.3168 -0.1533
 7366TIP3    H143513   1.673   4.399  11.466  1.2480  3.0477 -1.7865
 7366TIP3    H243514   1.806   4.339  11.508 -1.3520 -1.4164  1.0019
 7367TIP3   OH243515   0.491   5.497  17.123 -0.7163  0.1062 -0.5926
 7367TIP3    H143516   0.402   5.520  17.150 -0.2692  0.4525  0.6717
 7367TIP3    H243517   0.546   5.565  17.161 -0.0264  0.6970 -2.5718
 7368TIP3   OH243518   6.505   6.065   3.315 -0.1242  0.2193  0.5038
 7368TIP3    H143519   6.570   6.086   3.382 -0.0808  0.8412  0.2730
 7368TIP3    H243520   6.427   6.040   3.364  0.7186 -2.0324  0.8105
 7369TIP3   OH243521   1.280   0.826  11.136 -0.0794  0.1166 -0.3439
 7369TIP3    H143522   1.329   0.751  11.171 -0.6479 -0.2405 -0.3059
 7369TIP3    H243523   1.257   0.878  11.213 -1.0575 -0.5050 -0.2029
 7370TIP3   OH243524   2.632   0.531  12.357  0.4262 -0.3251  0.2482
 7370TIP3    H143525   2.601   0.608  12.310 -1.7601 -2.0763 -1.3391
 7370TIP3    H243526   2.564   0.465  12.345  2.3216 -2.6456  1.2784
 7371TIP3   OH243527   2.368   2.067  11.312  0.0520 -0.3168 -0.6282
 7371TIP3    H143528   2.343   1.978  11.288  1.7297 -0.5782 -1.5310
 7371TIP3    H243529   2.380   2.111  11.228  1.4173  0.1170 -0.2228
 7372TIP3   OH243530   3.908   2.112  13.081 -0.1165 -0.0308 -0.0284
 7372TIP3    H143531   3.981   2.100  13.019  0.0481 -1.9115  0.4458
 7372TIP3    H243532   3.916   2.202  13.111 -0.2322  0.9685 -2.7658
 7373TIP3   OH243533   4.163   2.757   2.942  0.0690  0.0237 -0.1646
 7373TIP3    H143534   4.101   2.687   2.962  0.6154 -1.0070 -1.8943
 7373TIP3    H243535   4.135   2.791   2.857 -0.9593  2.8490  1.1827
 7374TIP3   OH243536   4.567   3.260   1.644  0.1151  0.3208  0.0446
 7374TIP3    H143537   4.552   3.273   1.738 -2.4741 -0.9436 -0.1134
 7374TIP3    H243538   4.536   3.171   1.627 -1.9682  1.3960 -2.4242
 7375TIP3   OH243539   0.119   2.359  14.514 -0.0187 -0.2758  0.2301
 7375TIP3    H143540   0.181   2.337  14.583 -0.0982  0.5203  0.5616
 7375TIP3    H243541   0.092   2.448  14.533 -1.9354 -0.8901  0.6023
 7376TIP3   OH243542   0.380   1.178  11.598  0.2062 -0.8329 -0.0708
 7376TIP3    H143543   0.336   1.262  11.610  0.0255 -0.6493 -1.7878
 7376TIP3    H243544   0.474   1.200  11.601  0.1617 -0.4971 -0.7946
 7377TIP3   OH243545   5.684   4.957  14.722 -0.1697 -0.0618  0.3013
 7377TIP3    H143546   5.669   4.910  14.640 -0.9656  0.2560  0.2505
 7377TIP3    H243547   5.777   4.979  14.721 -0.2927  0.4632 -0.7880
 7378TIP3   OH243548   4.726   5.474  15.998 -0.4809  0.0836  0.2074
 7378TIP3    H143549   4.686   5.439  15.918 -1.5642  0.8925  0.3669
 7378TIP3    H243550   4.803   5.522  15.968 -1.5545  1.4434 -0.5389
 7379TIP3   OH243551   3.480   0.061  13.873  0.0777  0.1665  0.4321
 7379TIP3    H143552   3.456   0.154  13.881 -2.8755 -0.3837 -0.7642
 7379TIP3    H243553   3.546   0.060  13.803 -0.4731  1.2970 -0.1429
 7380TIP3   OH243554   3.987   1.740  14.731  0.0100  0.5573 -0.4077
 7380TIP3    H143555   4.052   1.721  14.663  0.4982  0.1529  0.1627
 7380TIP3    H243556   4.029   1.713  14.813 -0.8917  0.2587 -0.0297
 7381TIP3   OH243557   1.722   2.411  15.020 -0.7210 -0.4731 -0.3476
 7381TIP3    H143558   1.726   2.319  14.992 -0.7119 -0.3976 -0.5956
 7381TIP3    H243559   1.795   2.453  14.975  0.5148 -0.7476  1.2905
 7382TIP3   OH243560   2.882   1.427   4.211 -0.0272  0.0884  0.0740
 7382TIP3    H143561   2.844   1.501   4.259  0.3572  0.4223 -0.1269
 7382TIP3    H243562   2.877   1.453   4.119  1.9587  0.7988  0.0969
 7383TIP3   OH243563   2.545   6.266  16.760  0.6317 -0.1068  0.1840
 7383TIP3    H143564   2.500   6.264  16.676  1.4530  1.4518 -0.3325
 7383TIP3    H243565   2.608   6.194  16.755  0.8367  0.1271 -0.6279
 7384TIP3   OH243566   3.156   4.889   0.776  0.4044 -0.1020  0.0443
 7384TIP3    H143567   3.125   4.872   0.687  0.4186  0.0632  0.0078
 7384TIP3    H243568   3.100   4.959   0.808 -0.1338 -0.7251  0.4605
 7385TIP3   OH243569   4.497   5.920   4.348  0.1150  0.3623  0.0658
 7385TIP3    H143570   4.536   5.854   4.291 -0.0209  1.2252 -1.0613
 7385TIP3    H243571   4.435   5.967   4.291 -2.0448 -0.4604  1.5903
 7386TIP3   OH243572   1.127   5.617  11.508  0.8723  0.1111  0.5818
 7386TIP3    H143573   1.065   5.676  11.551 -0.3438 -1.5830  1.2272
 7386TIP3    H243574   1.207   5.670  11.499  0.0604  1.6249  1.7481
 7387TIP3   OH243575   1.061   5.302   3.947 -0.4371  0.3407 -0.5050
 7387TIP3    H143576   1.070   5.210   3.972  1.4214 -0.2691 -3.0960
 7387TIP3    H243577   1.011   5.341   4.019  1.9681 -1.8328  2.6266
 7388TIP3   OH243578   0.172   0.424   2.761 -0.0772 -0.0131  0.2964
 7388TIP3    H143579   0.213   0.430   2.848 -0.1910 -0.3157  0.3701
 7388TIP3    H243580   0.175   0.331   2.740 -1.0178 -0.0834  0.4399
 7389TIP3   OH243581   1.896   6.690   6.182  0.3515 -0.1217  0.4782
 7389TIP3    H143582   1.920   6.750   6.252 -0.1274 -0.3268  0.8231
 7389TIP3    H243583   1.881   6.746   6.105 -1.8971  0.4275  1.2359
 7390TIP3   OH243584   0.615   1.440  11.445  0.3383 -0.2210  0.0978
 7390TIP3    H143585   0.524   1.419  11.425 -0.5069  0.3129  2.9625
 7390TIP3    H243586   0.648   1.363  11.491  0.5699  0.4930  1.1655
 7391TIP3   OH243587   6.184   4.799  14.581  0.1671 -0.0392  0.1006
 7391TIP3    H143588   6.189   4.744  14.660  0.6875 -0.0711  0.0482
 7391TIP3    H243589   6.128   4.749  14.521 -2.0538  0.9577  1.2176
 7392TIP3   OH243590   5.952   5.348   6.053 -0.1390  0.1725 -0.3761
 7392TIP3    H143591   5.997   5.412   6.107 -2.1701  0.8311  0.6360
 7392TIP3    H243592   5.872   5.327   6.101  0.5453 -3.4077 -0.4625
 7393TIP3   OH243593   6.230   5.774  16.224  0.1936 -0.2810  0.2369
 7393TIP3    H143594   6.236   5.868  16.240  0.8166 -0.2808  0.0217
 7393TIP3    H243595   6.283   5.759  16.147  0.3403 -0.8558  0.4430
 7394TIP3   OH243596   1.279   3.496   3.044  0.3367  0.1730  0.5443
 7394TIP3    H143597   1.370   3.517   3.024  0.2670 -0.1306 -0.1160
 7394TIP3    H243598   1.259   3.419   2.990 -1.0844  1.7369 -1.2786
 7395TIP3   OH243599   6.309   2.160   2.316  0.2186 -0.1757  0.0481
 7395TIP3    H143600   6.346   2.237   2.358  4.4355 -1.7615 -0.3046
 7395TIP3    H243601   6.315   2.177   2.222  2.4635 -1.3427 -0.0748
 7396TIP3   OH243602   6.234   4.966   6.661  0.0703 -0.2942 -0.1092
 7396TIP3    H143603   6.203   4.934   6.746  0.2441 -0.3056 -0.0494
 7396TIP3    H243604   6.228   4.889   6.604 -1.6148  0.1106 -0.5406
 7397TIP3   OH243605   5.672   5.686  11.019 -0.3829 -0.4857  0.0159
 7397TIP3    H143606   5.722   5.758  10.980 -0.7588 -0.8964 -1.2646
 7397TIP3    H243607   5.717   5.668  11.102 -1.7684  2.9745  1.7668
 7398TIP3   OH243608   3.064   5.655   0.992 -0.2438  0.1332  0.2865
 7398TIP3    H143609   3.094   5.730   1.044 -1.3182  0.0083  1.1266
 7398TIP3    H243610   3.087   5.579   1.045 -1.7169  0.0222  0.7910
 7399TIP3   OH243611   3.064   5.230   0.326 -0.2350 -0.1621  0.2298
 7399TIP3    H143612   3.079   5.313   0.371 -1.0112 -0.4412  1.0488
 7399TIP3    H243613   3.052   5.253   0.234 -0.5210  0.6338  0.4640
 7400TIP3   OH243614   0.104   4.946  14.418  0.2048  0.7904 -0.0644
 7400TIP3    H143615   0.088   4.963  14.511  1.1425 -2.0014  0.6929
 7400TIP3    H243616   0.017   4.933  14.381 -0.1019 -0.7975  1.0862
 7401TIP3   OH243617   3.882   4.563   1.262  0.6874  0.4269  0.3632
 7401TIP3    H143618   3.923   4.477   1.276  0.2105  0.3805  1.5169
 7401TIP3    H243619   3.941   4.607   1.200 -0.5294 -1.7740 -2.5747
 7402TIP3   OH243620   2.780   3.380  16.161  0.7483  0.8088 -0.9754
 7402TIP3    H143621   2.825   3.418  16.237  0.9240  1.3586 -1.3473
 7402TIP3    H243622   2.769   3.453  16.100  2.2095  0.0320 -2.2402
 7403TIP3   OH243623   4.395   4.168  14.610  0.0561 -0.1871 -0.0289
 7403TIP3    H143624   4.377   4.163  14.704 -0.2864  0.8059 -0.0244
 7403TIP3    H243625   4.331   4.110  14.570  0.9617 -1.5274  0.4247
 7404TIP3   OH243626   5.955   4.280  14.492 -0.2525 -0.3332 -0.4683
 7404TIP3    H143627   5.959   4.190  14.525 -1.4492 -0.3621 -0.3565
 7404TIP3    H243628   5.901   4.274  14.413 -1.3974  0.4800  0.2421
 7405TIP3   OH243629   1.408   3.005   0.075  0.0614 -0.7168  0.4758
 7405TIP3    H143630   1.329   3.059   0.086  0.0707 -0.5208 -0.3733
 7405TIP3    H243631   1.402   2.971  -0.014  3.1750  3.0040 -1.4501
 7406TIP3   OH243632   0.774   3.218   1.004  0.1211  0.0509  0.0394
 7406TIP3    H143633   0.855   3.193   1.049  1.2297  3.5080  0.2272
 7406TIP3    H243634   0.706   3.166   1.047  1.6618  0.3352  3.0527
 7407TIP3   OH243635   0.763   3.636  12.039  0.2967 -0.1057 -0.2144
 7407TIP3    H143636   0.761   3.576  11.964 -1.4269  0.0477 -0.3412
 7407TIP3    H243637   0.748   3.580  12.115 -0.8203  0.0602 -0.2869
 7408TIP3   OH243638   3.757   4.064   1.852 -0.1476  0.5430 -0.2592
 7408TIP3    H143639   3.852   4.055   1.855 -0.2975 -1.2354  0.7500
 7408TIP3    H243640   3.735   4.114   1.930 -0.0850  0.3418 -0.1117
 7409TIP3   OH243641   5.017   2.083  12.400  0.0644  0.5270  0.5088
 7409TIP3    H143642   4.932   2.038  12.395 -0.1253  1.0122 -1.0339
 7409TIP3    H243643   5.019   2.140  12.324  2.2437 -0.2892 -0.1251
 7410TIP3   OH243644   5.690   3.103   0.423 -0.0559 -0.4229  0.4519
 7410TIP3    H143645   5.689   3.195   0.449  0.2245 -0.1070 -0.5901
 7410TIP3    H243646   5.598   3.081   0.408 -0.1826 -0.5044  1.3251
 7411TIP3   OH243647   3.721   1.041  13.128  0.3348 -0.3016 -0.1663
 7411TIP3    H143648   3.638   1.058  13.084  0.5178  1.8088  0.2093
 7411TIP3    H243649   3.702   1.048  13.221  0.9666  0.3953 -0.0833
 7412TIP3   OH243650   1.863   5.139  13.973 -0.1916  0.2081  0.0376
 7412TIP3    H143651   1.952   5.166  13.953  0.0142  0.0445  0.7100
 7412TIP3    H243652   1.814   5.222  13.979  0.2967  0.4283  1.4252
 7413TIP3   OH243653   5.581   2.041  14.385 -0.7836 -0.0910  0.9727
 7413TIP3    H143654   5.523   2.010  14.455 -0.9143 -0.1970  0.8198
 7413TIP3    H243655   5.636   2.107  14.426  0.6638 -1.6943  1.7682
 7414TIP3   OH243656   0.966   1.019  13.285  0.1231  0.2384 -0.4334
 7414TIP3    H143657   1.002   1.047  13.201 -2.2803 -0.4271 -1.7745
 7414TIP3    H243658   0.882   1.064  13.291  0.4041  0.5570  1.8404
 7415TIP3   OH243659   5.848   2.498   2.723 -0.1746  0.4970  0.0614
 7415TIP3    H143660   5.935   2.509   2.761  0.2810  1.6731 -1.2363
 7415TIP3    H243661   5.863   2.459   2.638 -1.0993 -1.1498  0.6141
 7416TIP3   OH243662   3.901   3.573   4.190 -0.1391 -0.6485  0.4213
 7416TIP3    H143663   3.873   3.587   4.280  0.0810 -0.3531  0.4470
 7416TIP3    H243664   3.990   3.539   4.198 -0.0561 -0.4600  0.3126
 7417TIP3   OH243665   0.291   1.699  14.014 -0.0540  0.3057  0.1426
 7417TIP3    H143666   0.218   1.760  14.010  0.2313  0.7800  1.5649
 7417TIP3    H243667   0.369   1.754  14.006  0.1805 -0.0401  0.0090
 7418TIP3   OH243668   5.482   4.640   4.954  0.4028 -0.1719 -0.0810
 7418TIP3    H143669   5.395   4.610   4.980  0.5501  0.6593  1.4960
 7418TIP3    H243670   5.542   4.575   4.990  0.5501  0.4432  0.8114
 7419TIP3   OH243671   4.949   0.708  16.497  0.8715  0.5038  0.0132
 7419TIP3    H143672   4.902   0.692  16.416 -1.1517  1.3991  0.9335
 7419TIP3    H243673   5.033   0.663  16.486 -0.6975 -2.3700 -1.1866
 7420TIP3   OH243674   6.250   0.397  12.783 -0.0735 -0.1434  0.1005
 7420TIP3    H143675   6.344   0.392  12.801  1.1079 -0.6033 -4.8130
 7420TIP3    H243676   6.235   0.490  12.762 -1.2889  0.3342  2.7217
 7421TIP3   OH243677   3.228   3.843   3.765  1.2119  0.3865  0.1303
 7421TIP3    H143678   3.166   3.791   3.715  1.7315  1.0386 -1.2505
 7421TIP3    H243679   3.312   3.798   3.754  1.3728  0.6602  0.2246
 7422TIP3   OH243680   3.995   0.389  11.383 -0.1713  0.0581  0.0796
 7422TIP3    H143681   4.089   0.370  11.373 -0.3233 -1.9673  1.8130
 7422TIP3    H243682   3.974   0.443  11.308  1.9549 -1.1089 -1.4764
 7423TIP3   OH243683   5.851   1.176   2.373 -0.2055 -0.2602  0.1937
 7423TIP3    H143684   5.771   1.228   2.364 -1.0608 -1.8468 -2.3868
 7423TIP3    H243685   5.838   1.126   2.454 -1.3810  0.2370  0.3306
 7424TIP3   OH243686   3.088   3.589   4.450 -0.3799  0.2046  0.6890
 7424TIP3    H143687   3.179   3.565   4.431 -0.5798 -0.7066  0.8206
 7424TIP3    H243688   3.082   3.585   4.546  0.0100  2.4791  0.8672
 7425TIP3   OH243689   5.578   4.155   5.069  0.4760 -0.2774 -0.1844
 7425TIP3    H143690   5.495   4.124   5.107 -0.5865  1.9914 -0.5009
 7425TIP3    H243691   5.575   4.125   4.978  0.5964 -1.2303  0.1092
 7426TIP3   OH243692   0.429   1.753  11.462  0.1923  0.3778  0.4851
 7426TIP3    H143693   0.334   1.764  11.465 -0.1178 -1.4955 -0.6907
 7426TIP3    H243694   0.456   1.743  11.553 -1.0818 -1.3390  0.7133
 7427TIP3   OH243695   3.771   1.648   2.658  0.0481  0.1081  0.6233
 7427TIP3    H143696   3.715   1.650   2.581  2.2038 -1.0203 -1.0804
 7427TIP3    H243697   3.851   1.693   2.631  2.0733 -2.9269  1.0454
 7428TIP3   OH243698   2.794   1.437   6.146  0.2019  0.0887 -0.5393
 7428TIP3    H143699   2.865   1.490   6.109  0.4178  0.7195  0.7463
 7428TIP3    H243700   2.717   1.494   6.140 -0.1302 -0.4270 -1.5072
 7429TIP3   OH243701   0.209   1.638   2.062 -0.2629 -0.1724  0.1528
 7429TIP3    H143702   0.211   1.552   2.102  1.0452  0.7301  2.1496
 7429TIP3    H243703   0.279   1.687   2.105 -1.7831  2.2944  0.0353
 7430TIP3   OH243704   6.253   5.899   1.592 -0.6028  0.5318  0.9368
 7430TIP3    H143705   6.324   5.887   1.655  0.8980  1.1304 -0.5382
 7430TIP3    H243706   6.209   5.979   1.620  0.9797  1.6321  0.4510
 7431TIP3   OH243707   5.093   3.801   5.371  0.9265 -0.0116 -0.5413
 7431TIP3    H143708   5.101   3.897   5.374  1.5878 -0.0638 -0.3392
 7431TIP3    H243709   5.184   3.770   5.372  0.8336 -0.7883  3.9853
 7432TIP3   OH243710   0.141   6.458   4.286  0.0961  0.5048  0.1504
 7432TIP3    H143711   0.114   6.408   4.209  0.4869 -0.1891  0.4573
 7432TIP3    H243712   0.066   6.514   4.306 -0.4335 -0.1255 -0.0523
 7433TIP3   OH243713   5.621   4.183   5.456  0.0033 -0.7561  0.4710
 7433TIP3    H143714   5.675   4.148   5.385 -1.6431 -0.3085 -1.0847
 7433TIP3    H243715   5.645   4.276   5.461 -0.7815 -0.4850 -0.4324
 7434TIP3   OH243716   0.910   4.446  15.999  0.0494  0.1769 -0.7859
 7434TIP3    H143717   0.874   4.532  16.022 -0.4594 -0.3243  0.3271
 7434TIP3    H243718   0.864   4.422  15.919 -0.7644  0.3652 -0.3878
 7435TIP3   OH243719   3.349   6.723   3.503 -0.3730  0.7849  0.3988
 7435TIP3    H143720   3.253   6.726   3.509 -0.3715  1.0996  0.3096
 7435TIP3    H243721   3.368   6.749   3.413 -0.2372 -0.2084  0.1285
 7436TIP3   OH243722   6.358   5.613   6.039  0.4391 -0.0347 -0.0934
 7436TIP3    H143723   6.306   5.679   6.085 -0.4718 -0.8396  0.0593
 7436TIP3    H243724   6.364   5.540   6.101 -0.0668 -0.7922 -0.9073
 7437TIP3   OH243725   1.841   4.507  16.893 -0.4394 -0.1363 -0.1778
 7437TIP3    H143726   1.750   4.525  16.916 -0.0469  1.5877  0.1602
 7437TIP3    H243727   1.848   4.411  16.896 -1.4354 -0.2452  3.0896
 7438TIP3   OH243728   1.138   1.154  17.116 -0.2157 -0.0720  0.0136
 7438TIP3    H143729   1.151   1.226  17.178  1.1028  1.5857 -2.0633
 7438TIP3    H243730   1.067   1.103  17.154 -0.2384  1.4911  2.2993
 7439TIP3   OH243731   6.568   5.985  12.149 -0.8952  0.7648  0.1265
 7439TIP3    H143732   6.578   6.059  12.090 -1.4755  0.8970  0.1941
 7439TIP3    H243733   6.570   6.023  12.237  2.3354  0.3599  0.3686
 7440TIP3   OH243734   0.179   5.374  10.717 -0.3033  0.3956  0.1324
 7440TIP3    H143735   0.128   5.297  10.693 -1.5448  1.0991  0.4201
 7440TIP3    H243736   0.240   5.343  10.784 -0.7303 -0.3495  0.1838
 7441TIP3   OH243737   3.896   6.400   7.047 -0.2371 -0.2925  0.2648
 7441TIP3    H143738   3.871   6.383   6.956  0.1485 -3.0400  0.5847
 7441TIP3    H243739   3.975   6.453   7.041 -0.0842 -0.6372 -1.0176
 7442TIP3   OH243740   1.432   0.633  16.410 -0.0319  0.1107  0.3163
 7442TIP3    H143741   1.498   0.692  16.374 -1.0819  0.5341 -0.9919
 7442TIP3    H243742   1.469   0.604  16.493  1.6204  0.6307 -0.1960
 7443TIP3   OH243743   3.440   5.767   3.709  0.0091  0.4240  0.1115
 7443TIP3    H143744   3.401   5.681   3.721 -0.5405  0.5953 -0.3984
 7443TIP3    H243745   3.423   5.813   3.791 -0.4880  0.3519  0.0489
 7444TIP3   OH243746   4.845   3.145   3.267 -0.1033 -0.5625 -0.0415
 7444TIP3    H143747   4.800   3.065   3.296  0.0029 -0.2246  1.0969
 7444TIP3    H243748   4.892   3.118   3.188 -1.3361 -1.2228 -0.5852
 7445TIP3   OH243749   3.357   5.103  14.864  0.0425 -0.4934 -0.1462
 7445TIP3    H143750   3.412   5.049  14.920  0.1136 -0.2374  0.0316
 7445TIP3    H243751   3.273   5.057  14.862 -0.1522 -0.1886  0.6645
 7446TIP3   OH243752   1.689   0.905  16.748 -0.0664  0.4664 -0.0075
 7446TIP3    H143753   1.712   0.813  16.744 -3.3606 -0.4777  0.1155
 7446TIP3    H243754   1.694   0.927  16.842 -1.4868 -0.2836  0.2699
 7447TIP3   OH243755   1.169   1.274  16.880 -0.3262 -0.5208 -0.0745
 7447TIP3    H143756   1.163   1.223  16.961 -1.3432  0.0511  0.2245
 7447TIP3    H243757   1.189   1.209  16.813  0.8170 -0.9675  0.6679
 7448TIP3   OH243758   0.086   6.441  14.448 -0.0621  0.2240  0.0109
 7448TIP3    H143759   0.181   6.438  14.456 -0.2197 -0.1011  2.3187
 7448TIP3    H243760   0.069   6.510  14.383  1.7363 -0.4443 -1.2359
 7449TIP3   OH243761   0.340   4.756  14.541  0.1991 -0.0550 -0.0052
 7449TIP3    H143762   0.291   4.821  14.491  0.6706 -0.7542 -1.4455
 7449TIP3    H243763   0.279   4.682  14.551  1.2807 -1.5784 -3.1646
 7450TIP3   OH243764   3.982   1.579  15.009  0.0781 -0.6351  0.1060
 7450TIP3    H143765   3.979   1.549  15.100 -0.4248 -1.2289 -0.1096
 7450TIP3    H243766   4.047   1.650  15.011  0.0870 -0.6492  0.9228
 7451TIP3   OH243767   2.349   5.262   2.386  0.3466  0.3644 -0.6741
 7451TIP3    H143768   2.288   5.314   2.438  1.5873 -0.3160  1.5655
 7451TIP3    H243769   2.381   5.323   2.319 -1.4159  1.2131 -0.8005
 7452TIP3   OH243770   0.516   4.480  13.486 -0.4750  0.6758 -0.3673
 7452TIP3    H143771   0.514   4.395  13.531  0.7018  0.5203 -0.5757
 7452TIP3    H243772   0.456   4.470  13.412 -1.8754  0.6946  0.7287
 7453TIP3   OH243773   3.510   1.652  13.251 -0.3335 -0.0285  0.0825
 7453TIP3    H143774   3.526   1.646  13.157 -0.9859  1.1052 -0.1207
 7453TIP3    H243775   3.452   1.728  13.261 -2.2080 -1.5188  1.1640
 7454TIP3   OH243776   6.726   3.500  16.732  0.9258 -0.0487 -0.0905
 7454TIP3    H143777   6.650   3.470  16.682 -0.3487  0.0669  1.6976
 7454TIP3    H243778   6.690   3.524  16.817  2.9618  0.1687  0.7441
 7455TIP3   OH243779   6.551   4.310  13.131 -0.3537 -0.4607  0.0605
 7455TIP3    H143780   6.509   4.287  13.048  0.7783  0.3189 -0.7610
 7455TIP3    H243781   6.617   4.242  13.144 -1.4257 -1.3602  1.0583
 7456TIP3   OH243782   1.955   0.861   4.947  0.1703  0.0925  0.2537
 7456TIP3    H143783   1.927   0.901   4.864 -1.5516 -1.8084 -0.1640
 7456TIP3    H243784   2.050   0.871   4.947  0.1621  0.7123 -1.6453
 7457TIP3   OH243785   2.327   4.441   3.380 -0.3743 -0.0134  0.0926
 7457TIP3    H143786   2.298   4.495   3.454 -2.2483 -0.1003 -0.5237
 7457TIP3    H243787   2.266   4.464   3.309  0.9598 -0.4207 -1.2369
 7458TIP3   OH243788   2.338   3.521  12.890  0.2444  0.3829  0.2624
 7458TIP3    H143789   2.243   3.516  12.882  0.2290  1.5934 -0.6120
 7458TIP3    H243790   2.369   3.525  12.800  1.0750  0.5923  0.5521
 7459TIP3   OH243791   0.364   3.831   1.939 -0.3291 -0.0898 -0.3952
 7459TIP3    H143792   0.274   3.833   1.907 -1.5803 -0.4240  2.6612
 7459TIP3    H243793   0.399   3.747   1.910 -1.2519 -0.2515 -1.0518
 7460TIP3   OH243794   2.717   2.490   5.036 -0.4626  0.1512  0.5704
 7460TIP3    H143795   2.799   2.499   4.988 -0.4774 -1.7251  0.1280
 7460TIP3    H243796   2.741   2.449   5.119 -0.9512 -0.6066  0.3544
 7461TIP3   OH243797   2.461   5.345   0.517  0.7432  0.5053 -0.3059
 7461TIP3    H143798   2.548   5.381   0.533  0.2922  1.9882 -0.9699
 7461TIP3    H243799   2.401   5.410   0.555 -0.0959 -0.0223 -0.6968
 7462TIP3   OH243800   3.241   6.733   2.232 -0.4417 -0.1733 -0.0711
 7462TIP3    H143801   3.245   6.765   2.322  0.9582 -1.1797  0.2667
 7462TIP3    H243802   3.169   6.670   2.232 -0.2218 -0.4251  0.4398
 7463TIP3   OH243803   4.013   3.300   4.933  0.3010  0.3318  0.8325
 7463TIP3    H143804   3.931   3.338   4.965  0.5852  0.8546  0.9528
 7463TIP3    H243805   3.986   3.234   4.869 -0.1932  1.0358  0.3035
 7464TIP3   OH243806   3.953   4.845  12.658  0.1307 -0.1517  0.1058
 7464TIP3    H143807   4.002   4.906  12.603  1.0316 -0.6993  0.2835
 7464TIP3    H243808   3.991   4.760  12.638 -0.5698 -0.5510  0.4593
 7465TIP3   OH243809   3.347   5.952  13.709 -0.3886  0.0449 -0.3038
 7465TIP3    H143810   3.432   5.935  13.749  0.1734 -0.8911 -1.7851
 7465TIP3    H243811   3.283   5.937  13.778  0.5670 -0.8984  0.3896
 7466TIP3   OH243812   0.825   0.593   6.291 -0.4423  0.0877 -0.0828
 7466TIP3    H143813   0.844   0.592   6.197  3.4663  2.6391  0.4393
 7466TIP3    H243814   0.909   0.574   6.332 -1.0295  2.8974  2.8249
 7467TIP3   OH243815   4.766   5.298  15.454 -0.5426 -0.5583 -0.7096
 7467TIP3    H143816   4.741   5.220  15.502 -1.0252  0.1505  0.2227
 7467TIP3    H243817   4.688   5.321  15.403  0.1014 -1.5418 -2.1827
 7468TIP3   OH243818   2.983   0.600  11.259  0.1811 -0.1738 -0.1700
 7468TIP3    H143819   3.032   0.618  11.339  1.1833  0.9645 -1.0085
 7468TIP3    H243820   3.039   0.541  11.209  0.6705  0.9844 -1.0480
 7469TIP3   OH243821   1.577   3.159  13.236 -0.3446 -1.0616  0.4939
 7469TIP3    H143822   1.644   3.166  13.304 -0.7627  2.6097  0.7390
 7469TIP3    H243823   1.626   3.166  13.153 -0.2753  1.0401  0.6591
 7470TIP3   OH243824   4.289   3.150  11.271  0.0229  0.1850  0.4705
 7470TIP3    H143825   4.216   3.203  11.240  0.6012  1.4117  1.1523
 7470TIP3    H243826   4.365   3.208  11.268  1.1636 -1.2874 -0.9485
 7471TIP3   OH243827   0.007   0.946  17.180  0.3319 -0.2614  0.2290
 7471TIP3    H143828  -0.045   1.026  17.183  2.0828  0.9432  0.0272
 7471TIP3    H243829  -0.057   0.877  17.163 -0.8335  1.5577 -4.5781
 7472TIP3   OH243830   1.835   0.410   3.103 -0.4399 -0.1422  0.2326
 7472TIP3    H143831   1.872   0.353   3.171 -0.7818 -0.5899  0.0511
 7472TIP3    H243832   1.911   0.438   3.051 -0.4011 -1.6273 -0.5713
 7473TIP3   OH243833   3.175   1.903   2.977  0.4506 -0.0401  0.1508
 7473TIP3    H143834   3.240   1.836   2.959  1.0746  0.3300  0.9758
 7473TIP3    H243835   3.224   1.974   3.019 -0.2374  0.8371 -0.4969
 7474TIP3   OH243836   6.672   2.916  14.532 -0.4445  0.5491  0.3503
 7474TIP3    H143837   6.673   2.912  14.628  0.2475  0.0705  0.3334
 7474TIP3    H243838   6.764   2.927  14.508 -0.3844 -1.1169 -0.3165
 7475TIP3   OH243839   1.975   2.828   2.646  0.0340  0.4184  0.1765
 7475TIP3    H143840   1.969   2.854   2.737 -0.2479 -0.6081  0.4655
 7475TIP3    H243841   2.042   2.759   2.645  0.3059  0.6818 -0.4488
 7476TIP3   OH243842   6.458   1.811  11.645 -0.0907  0.0206 -0.1236
 7476TIP3    H143843   6.517   1.797  11.571 -0.3842 -0.2992 -0.2938
 7476TIP3    H243844   6.419   1.897  11.629 -1.8045 -0.9581 -1.4710
 7477TIP3   OH243845   3.742   5.656   5.965  0.1984 -0.1566  0.2454
 7477TIP3    H143846   3.758   5.726   5.901  1.1693 -0.2119  0.4088
 7477TIP3    H243847   3.827   5.614   5.976  0.0121 -0.2505  1.4552
 7478TIP3   OH243848   1.928   4.082   2.729  0.1257  0.2125 -0.1943
 7478TIP3    H143849   1.887   4.090   2.642  1.2371 -1.5082 -0.9343
 7478TIP3    H243850   1.877   4.013   2.772 -0.9983  1.6828  0.9195
 7479TIP3   OH243851   6.285   4.616   0.209 -0.7354  0.4173 -0.0260
 7479TIP3    H143852   6.374   4.639   0.184 -0.6612 -0.2230 -0.3771
 7479TIP3    H243853   6.264   4.675   0.281  0.6306 -0.6587  1.3058
 7480TIP3   OH243854   0.591   2.366  14.488 -0.5444 -0.5588  0.7145
 7480TIP3    H143855   0.641   2.447  14.486  0.3424 -1.0957  0.0001
 7480TIP3    H243856   0.625   2.315  14.415 -4.1405  0.1775 -1.7405
 7481TIP3   OH243857   1.949   5.426   2.943  0.3134 -0.4558  0.5239
 7481TIP3    H143858   1.973   5.410   3.034  1.3491  1.6531  0.6684
 7481TIP3    H243859   1.902   5.347   2.916  0.1845 -1.2083  2.8031
 7482TIP3   OH243860   2.923   1.526   5.702 -0.1227 -0.1197 -0.4755
 7482TIP3    H143861   2.997   1.526   5.641 -0.2505  0.7635 -0.6497
 7482TIP3    H243862   2.873   1.447   5.680  1.1523 -1.1318  0.1407
 7483TIP3   OH243863   2.798   1.151   3.250 -0.1178 -0.2153  0.3136
 7483TIP3    H143864   2.846   1.214   3.195  0.6012 -1.6923 -0.8307
 7483TIP3    H243865   2.710   1.148   3.212 -1.2138  2.3561  2.2995
 7484TIP3   OH243866   0.432   3.701   2.828  0.0131 -0.6094 -0.1706
 7484TIP3    H143867   0.501   3.635   2.818  0.0872 -0.3724 -1.4358
 7484TIP3    H243868   0.477   3.779   2.859  0.2649 -0.5521 -0.6725
 7485TIP3   OH243869   4.484   4.598   5.961  0.0834 -0.4259  0.1677
 7485TIP3    H143870   4.551   4.634   6.018  0.6476  0.6124 -1.1302
 7485TIP3    H243871   4.402   4.633   5.995  0.5337  1.2830 -0.4411
 7486TIP3   OH243872   0.788   1.553  14.519  0.3410  0.1606 -0.5901
 7486TIP3    H143873   0.693   1.539  14.526  0.2262  0.1751 -1.9384
 7486TIP3    H243874   0.797   1.648  14.514  0.2771  0.1116 -2.0830
 7487TIP3   OH243875   4.515   5.564   3.013  0.1677 -0.3513  0.0169
 7487TIP3    H143876   4.603   5.598   3.029  0.9403 -1.6150 -1.3320
 7487TIP3    H243877   4.520   5.472   3.037 -0.8358 -0.3986  0.0677
 7488TIP3   OH243878   2.299   2.742   0.808 -0.1503 -0.1465 -0.2015
 7488TIP3    H143879   2.267   2.785   0.887  0.9621  1.4235 -0.5453
 7488TIP3    H243880   2.231   2.759   0.743  0.0804  0.7591 -0.2197
 7489TIP3   OH243881   4.480   5.646   1.670 -0.4316 -0.3962 -0.2326
 7489TIP3    H143882   4.543   5.643   1.598  1.3289  0.4052  1.1717
 7489TIP3    H243883   4.428   5.725   1.653  0.0293 -0.1675 -0.6033
 7490TIP3   OH243884   1.038   4.083  13.336 -0.5212 -0.2668 -0.0172
 7490TIP3    H143885   0.986   4.002  13.337  0.4559 -1.2682 -4.9834
 7490TIP3    H243886   0.989   4.142  13.279  0.0632  1.7893  1.4983
 7491TIP3   OH243887   3.861   4.730  16.606  0.7132 -0.0037  0.2952
 7491TIP3    H143888   3.880   4.733  16.512 -1.3261  1.1068 -0.1271
 7491TIP3    H243889   3.793   4.663  16.615 -0.7990  1.4933  0.5883
 7492TIP3   OH243890   4.351   2.509   4.675  0.8069  0.0741 -0.6308
 7492TIP3    H143891   4.357   2.601   4.651  0.8722  0.3516  0.3733
 7492TIP3    H243892   4.299   2.508   4.755 -1.7513 -1.0698 -2.1870
 7493TIP3   OH243893   6.626   4.093   4.380 -0.2105  0.2042  0.1151
 7493TIP3    H143894   6.624   4.174   4.431  2.5617  0.3734  0.1201
 7493TIP3    H243895   6.664   4.029   4.440  0.5262 -0.2920 -0.8679
 7494TIP3   OH243896   0.214   1.522  11.861 -0.1692 -0.0839  0.2425
 7494TIP3    H143897   0.158   1.455  11.823  1.1551 -0.8642 -0.3715
 7494TIP3    H243898   0.182   1.532  11.950  1.0664 -3.2632  1.1647
 7495TIP3   OH243899   4.962   2.496   2.522 -0.2258  0.2632  0.0952
 7495TIP3    H143900   4.980   2.558   2.592  0.5803  0.0601  0.0806
 7495TIP3    H243901   5.048   2.461   2.499 -0.6544 -0.8528  0.1072
 7496TIP3   OH243902   4.306   4.883  16.075  0.1513 -0.1921 -0.0918
 7496TIP3    H143903   4.317   4.793  16.042  1.5034 -0.8498  1.9650
 7496TIP3    H243904   4.212   4.890  16.094 -0.1965 -0.6939 -1.5060
 7497TIP3   OH243905   3.313   2.687  17.262  0.0371 -0.4363 -0.2798
 7497TIP3    H143906   3.347   2.712  17.176  0.9434  1.5760  0.5900
 7497TIP3    H243907   3.386   2.642  17.305  0.6380  1.1539  0.4557
 7498TIP3   OH243908   4.716   5.258  11.803 -0.2691  0.2298  0.2026
 7498TIP3    H143909   4.786   5.302  11.755  1.3348 -0.0209  2.1985
 7498TIP3    H243910   4.642   5.259  11.742  1.2497  1.0451 -1.7563
 7499TIP3   OH243911   0.600   2.384  16.509  0.4983  0.2580 -0.4705
 7499TIP3    H143912   0.554   2.319  16.456  1.8535 -0.3025 -1.0100
 7499TIP3    H243913   0.565   2.468  16.481  0.8385 -0.0641 -1.9154
 7500TIP3   OH243914   3.252   1.864  13.660 -0.3309  0.4847 -0.3511
 7500TIP3    H143915   3.180   1.907  13.706 -0.3415 -0.0018  0.0873
 7500TIP3    H243916   3.317   1.846  13.728  0.7773  2.0477 -0.9299
 7501TIP3   OH243917   0.169   2.068   0.764  0.7780  0.0584  0.6947
 7501TIP3    H143918   0.231   2.006   0.726 -0.0057  0.3965 -1.2488
 7501TIP3    H243919   0.119   2.101   0.689 -0.0978  1.6266  1.9049
 7502TIP3   OH243920   5.003   4.516   5.325 -0.0675 -0.0342  0.5637
 7502TIP3    H143921   5.052   4.483   5.400  2.2080  0.5019 -0.6045
 7502TIP3    H243922   4.986   4.438   5.272 -1.5712 -0.3946  1.4914
 7503TIP3   OH243923   1.550   5.064   0.856  0.7418  0.2974 -0.1848
 7503TIP3    H143924   1.572   4.998   0.922  0.3971  0.7441  0.3818
 7503TIP3    H243925   1.613   5.049   0.785  2.3337  0.9674  1.0165
 7504TIP3   OH243926   1.981   0.287  12.411 -0.1637 -0.2115  0.2298
 7504TIP3    H143927   1.986   0.195  12.385 -4.7462 -1.5688  2.8780
 7504TIP3    H243928   1.978   0.335  12.328  0.2431 -2.6367 -1.3034
 7505TIP3   OH243929   1.983   1.257   1.838 -0.3472  0.0819 -0.2057
 7505TIP3    H143930   2.060   1.256   1.781  0.4657 -0.7428  0.8680
 7505TIP3    H243931   1.911   1.283   1.781  0.6686  0.5584 -1.3043
 7506TIP3   OH243932   2.216   3.243   0.213 -0.0892 -0.3000  0.2716
 7506TIP3    H143933   2.166   3.323   0.194  0.4561  0.0675  0.3538
 7506TIP3    H243934   2.273   3.267   0.285  0.3146 -0.6691  0.0827
 7507TIP3   OH243935   0.320   2.142   0.980 -0.0653  0.5272  0.1641
 7507TIP3    H143936   0.284   2.191   1.054 -0.2886 -1.5008  1.4809
 7507TIP3    H243937   0.250   2.140   0.916 -0.4974  0.8645  0.6216
 7508TIP3   OH243938   2.647   4.631   4.312 -0.7369  0.7495  0.0394
 7508TIP3    H143939   2.636   4.700   4.378 -1.1401  0.7866 -0.0644
 7508TIP3    H243940   2.558   4.614   4.280 -0.6948 -0.1528  0.3974
 7509TIP3   OH243941   4.189   5.229  16.745  0.3853 -0.4085 -0.6632
 7509TIP3    H143942   4.134   5.163  16.788  0.4759 -0.8393 -1.1873
 7509TIP3    H243943   4.128   5.277  16.689 -0.0941  1.3856  1.2871
 7510TIP3   OH243944   0.488   6.467  17.389 -0.1020  0.2887  0.1848
 7510TIP3    H143945   0.524   6.421  17.464 -1.9604 -0.0163  0.9516
 7510TIP3    H243946   0.554   6.533  17.368  1.7635 -1.4661  0.2293
 7511TIP3   OH243947   2.934   5.697  16.012  0.4198 -0.1474  0.0133
 7511TIP3    H143948   2.978   5.781  16.021  1.8622 -0.7803 -0.7267
 7511TIP3    H243949   2.929   5.683  15.917  0.5451 -1.0437  0.1277
 7512TIP3   OH243950   0.729   5.086   3.250 -0.0627 -0.0496 -0.1311
 7512TIP3    H143951   0.757   5.003   3.290  1.5946  0.5321 -0.0024
 7512TIP3    H243952   0.810   5.135   3.237 -0.8473  0.9518 -1.6112
 7513TIP3   OH243953   0.408   2.955  13.659 -0.9223  0.1025 -0.1021
 7513TIP3    H143954   0.446   2.877  13.698 -0.7812 -0.6103 -1.6095
 7513TIP3    H243955   0.321   2.929  13.630 -0.5310  0.2110 -1.4521
 7514TIP3   OH243956   5.964   0.039  13.139  0.5593  0.2110 -0.3169
 7514TIP3    H143957   5.911   0.079  13.070 -0.3095  1.4377  1.0177
 7514TIP3    H243958   5.916  -0.041  13.162  0.3433  0.3011 -0.4522
 7515TIP3   OH243959   2.844   5.179   4.023 -0.2146  0.2199 -0.3468
 7515TIP3    H143960   2.864   5.095   4.065 -0.0651 -0.7601 -2.2576
 7515TIP3    H243961   2.913   5.190   3.957 -0.8482  1.2992 -0.8554
 7516TIP3   OH243962   4.318   5.381  12.517 -0.6547 -0.0492 -0.1642
 7516TIP3    H143963   4.270   5.308  12.477  2.2743 -2.4518  0.2779
 7516TIP3    H243964   4.305   5.370  12.611  1.0083 -1.0567 -0.0052
 7517TIP3   OH243965   6.452   0.572   5.455 -0.3557 -0.0975 -0.3485
 7517TIP3    H143966   6.483   0.489   5.419  1.3655  0.5508 -0.4508
 7517TIP3    H243967   6.429   0.625   5.379 -0.4523 -0.1159 -0.3316
 7518TIP3   OH243968   5.246   3.701   1.398  0.2505  0.5204 -0.2801
 7518TIP3    H143969   5.268   3.775   1.456 -0.9192  0.9375 -0.3389
 7518TIP3    H243970   5.330   3.669   1.366  0.8678  0.8588  0.9513
 7519TIP3   OH243971   4.669   0.031   5.150  0.0295 -0.0490  0.0553
 7519TIP3    H143972   4.690   0.044   5.057 -0.8380  1.0638 -0.0087
 7519TIP3    H243973   4.621  -0.052   5.152 -0.1394  0.0273 -0.5232
 7520TIP3   OH243974   5.376   4.116   3.874 -0.6130 -0.4546 -0.0652
 7520TIP3    H143975   5.314   4.057   3.917  0.4644 -0.7854  1.0942
 7520TIP3    H243976   5.373   4.196   3.926 -1.4904  0.2709 -1.1774
 7521TIP3   OH243977   6.300   2.397  14.627  0.1799 -0.2780  0.5274
 7521TIP3    H143978   6.253   2.425  14.706 -2.4102 -2.8304  0.0844
 7521TIP3    H243979   6.242   2.423  14.555  0.8273 -1.0139 -0.2802
 7522TIP3   OH243980   6.251   0.829  11.691 -0.2761 -0.1395  0.1655
 7522TIP3    H143981   6.234   0.751  11.745 -2.6643 -0.2503 -0.6267
 7522TIP3    H243982   6.185   0.892  11.718  0.3896  0.9176 -0.5817
 7523TIP3   OH243983   2.469   0.750  15.378 -0.7651  0.5508  0.4438
 7523TIP3    H143984   2.564   0.757  15.368 -0.8140 -0.0795 -0.6724
 7523TIP3    H243985   2.434   0.775  15.293 -1.4948 -0.8821  0.2822
 7524TIP3   OH243986   1.406   4.968   4.626  0.2973 -0.1588  0.7185
 7524TIP3    H143987   1.491   4.992   4.589  0.8437  0.0682  2.0706
 7524TIP3    H243988   1.412   4.874   4.640  0.0377 -0.2684  0.1244
 7525TIP3   OH243989   2.645   5.028   4.610  0.1468  0.0708 -0.4377
 7525TIP3    H143990   2.620   5.097   4.548 -1.5704  0.2716  0.4365
 7525TIP3    H243991   2.732   5.053   4.639 -0.1611  1.5130 -0.6607
 7526TIP3   OH243992   6.163   2.565  15.323  0.6639 -0.6441 -0.4303
 7526TIP3    H143993   6.192   2.655  15.306  2.3623 -1.0218  0.2628
 7526TIP3    H243994   6.072   2.574  15.352  1.0345  0.9320  0.3567
 7527TIP3   OH243995   2.821   1.573  13.918  0.0696  0.0315 -0.0258
 7527TIP3    H143996   2.810   1.555  13.825  0.8579 -0.7066  0.0041
 7527TIP3    H243997   2.915   1.560  13.933 -0.1968 -0.7417  1.0445
 7528TIP3   OH243998   3.664   5.965   6.240  0.0490 -0.3028 -0.1992
 7528TIP3    H143999   3.702   5.991   6.156  2.1363 -3.3526 -0.3543
 7528TIP3    H244000   3.627   6.046   6.276  1.8846  1.7498 -2.6068
 7529TIP3   OH244001   5.399   0.771   3.175  0.0104  0.4374 -0.4527
 7529TIP3    H144002   5.485   0.731   3.160  1.2600  2.7270  0.0956
 7529TIP3    H244003   5.347   0.701   3.215  2.0977 -0.6082  0.6427
 7530TIP3   OH244004   3.170   0.434  13.683 -0.3732 -0.0463 -0.1316
 7530TIP3    H144005   3.083   0.468  13.702  0.7249  3.3396 -0.5660
 7530TIP3    H244006   3.186   0.457  13.591  1.2169 -0.0369  0.1113
 7531TIP3   OH244007   2.438   3.093   1.520  0.1960 -0.0636 -0.1652
 7531TIP3    H144008   2.470   3.010   1.554 -0.4690  0.2240  1.2363
 7531TIP3    H244009   2.515   3.150   1.519 -0.1421  0.6373  3.2197
 7532TIP3   OH244010   5.023   6.742  15.763  0.7238 -0.2000 -0.2911
 7532TIP3    H144011   5.113   6.735  15.731  0.2673  0.1388 -1.7274
 7532TIP3    H244012   4.987   6.819  15.719 -0.6225 -0.9869 -0.6470
 7533TIP3   OH244013   5.903   0.171   4.968  0.3174 -0.6956  0.1320
 7533TIP3    H144014   5.809   0.190   4.975  0.7252  0.8553  2.5624
 7533TIP3    H244015   5.910   0.078   4.990 -0.6477 -0.8503 -0.1512
 7534TIP3   OH244016   1.077   5.226  13.547 -0.7198  0.1874 -0.2190
 7534TIP3    H144017   1.141   5.157  13.564  1.0349  1.7923  0.1520
 7534TIP3    H244018   1.075   5.277  13.629 -0.5133  1.6491 -1.0890
 7535TIP3   OH244019   3.326   3.406  14.206 -0.1417  0.4793 -0.0308
 7535TIP3    H144020   3.408   3.448  14.182  0.1555 -0.1968 -0.2427
 7535TIP3    H244021   3.342   3.370  14.294  0.0512 -0.2907 -0.3704
 7536TIP3   OH244022   3.965   3.959   2.117  0.2314 -0.0352  0.6128
 7536TIP3    H144023   3.923   3.880   2.082  0.0790  1.5445 -3.2565
 7536TIP3    H244024   4.029   3.983   2.050  2.9668  1.1290  3.4255
 7537TIP3   OH244025   2.978   6.566  13.624  0.2607 -0.1033  0.1460
 7537TIP3    H144026   2.884   6.559  13.644  0.0123  1.6031 -0.2745
 7537TIP3    H244027   2.999   6.483  13.581 -1.3723 -0.0369 -0.8885
 7538TIP3   OH244028   1.197   4.160  12.068 -0.4607 -0.7594  0.0998
 7538TIP3    H144029   1.122   4.218  12.060  1.4037  2.0817  1.5881
 7538TIP3    H244030   1.206   4.145  12.163 -0.8782 -3.6218 -0.2187
 7539TIP3   OH244031   6.241   6.076  16.278  0.2027  0.1708  0.5986
 7539TIP3    H144032   6.215   6.127  16.202 -1.5398 -1.9783 -0.3629
 7539TIP3    H244033   6.335   6.062  16.267 -0.4193 -2.6643 -2.9847
 7540TIP3   OH244034   3.105   1.358   5.320 -0.3284 -0.0491  0.3907
 7540TIP3    H144035   3.175   1.293   5.316  0.7401  0.9370  1.9892
 7540TIP3    H244036   3.093   1.386   5.229  1.3667 -0.2398  0.0724
 7541TIP3   OH244037   4.275   4.185  13.220 -0.4441  0.5835  0.5390
 7541TIP3    H144038   4.330   4.110  13.200 -2.3929 -0.0548 -3.0565
 7541TIP3    H244039   4.209   4.151  13.280 -0.0146  0.0400  0.7167
 7542TIP3   OH244040   4.755   1.704   3.806  0.1517 -0.3777 -0.2018
 7542TIP3    H144041   4.712   1.696   3.891  1.2361  0.1400  0.4227
 7542TIP3    H244042   4.709   1.775   3.762  0.6138  0.4626  0.6308
 7543TIP3   OH244043   0.170   2.446   1.386  0.0958  0.4166  0.1433
 7543TIP3    H144044   0.109   2.438   1.459 -0.0262  0.5684  0.0584
 7543TIP3    H244045   0.209   2.533   1.397 -1.1309  1.1337 -0.9034
 7544TIP3   OH244046   1.101   3.345   4.926  0.3843 -0.3847 -0.1780
 7544TIP3    H144047   1.125   3.399   5.001  0.3105 -1.1577  0.4071
 7544TIP3    H244048   1.014   3.311   4.947 -0.5374  0.9813 -1.5052
 7545TIP3   OH244049   0.799   4.370   1.722 -0.5274  0.7274  0.2558
 7545TIP3    H144050   0.836   4.442   1.773 -0.3761 -0.0886  1.3282
 7545TIP3    H244051   0.712   4.356   1.760 -0.8461  0.8127 -0.4263
 7546TIP3   OH244052   4.196   6.704  11.879  0.0246  0.3700 -0.4451
 7546TIP3    H144053   4.169   6.677  11.792 -0.7404 -1.0691  0.2058
 7546TIP3    H244054   4.292   6.705  11.875 -0.0086  2.7690 -1.9712
 7547TIP3   OH244055   1.572   3.361   1.607 -0.5905 -0.2353 -0.0510
 7547TIP3    H144056   1.527   3.323   1.531 -0.7410 -0.1727  0.0065
 7547TIP3    H244057   1.528   3.323   1.682 -0.7319  0.0396  0.0075
 7548TIP3   OH244058   2.459   5.437   0.244 -0.1285  0.1549  0.1908
 7548TIP3    H144059   2.375   5.416   0.203 -1.5776  2.3834  1.8585
 7548TIP3    H244060   2.448   5.414   0.336  1.1280  0.4585  0.4380
 7549TIP3   OH244061   2.157   3.242   3.922  0.2677  0.0764  0.4038
 7549TIP3    H144062   2.239   3.206   3.888  0.7933 -0.1047  1.8080
 7549TIP3    H244063   2.089   3.184   3.887  0.8766 -0.7249  0.5146
 7550TIP3   OH244064   0.364   0.065   5.191 -0.0216  0.5027  0.5961
 7550TIP3    H144065   0.350  -0.025   5.220 -0.6548  0.7879  1.2052
 7550TIP3    H244066   0.435   0.059   5.126 -2.0167 -0.8625 -1.6407
 7551TIP3   OH244067   4.819   2.590  11.420  0.2489  0.2657 -0.0973
 7551TIP3    H144068   4.893   2.528  11.412  0.0600  0.0766 -0.4070
 7551TIP3    H244069   4.804   2.620  11.330 -0.4887 -0.2086 -0.1403
 7552TIP3   OH244070   4.920   1.434   1.646 -0.0239  0.3488  0.2634
 7552TIP3    H144071   4.891   1.347   1.674 -1.7887  0.7127 -0.3088
 7552TIP3    H244072   4.890   1.493   1.714 -2.4488  0.9717 -1.2325
 7553TIP3   OH244073   1.472   0.100   2.667  0.0613 -0.2455  0.4517
 7553TIP3    H144074   1.380   0.105   2.642  0.0047 -0.0856  0.6805
 7553TIP3    H244075   1.505   0.189   2.656  0.4411 -0.4970 -0.5455
 7554TIP3   OH244076   4.200   0.283  16.003 -0.0992 -0.5359 -0.7489
 7554TIP3    H144077   4.208   0.353  15.938  0.3897  0.7094  0.5844
 7554TIP3    H244078   4.289   0.249  16.012 -0.6757 -3.0164 -3.0619
 7555TIP3   OH244079   5.510   1.403   3.470  0.1089  0.4314 -0.7859
 7555TIP3    H144080   5.543   1.429   3.556  0.1710  4.0835 -1.7760
 7555TIP3    H244081   5.415   1.398   3.481  0.2362 -1.0141 -0.1180
 7556TIP3   OH244082   2.441   0.327   0.869  0.1638 -0.3743  1.1903
 7556TIP3    H144083   2.381   0.300   0.938 -0.7143  0.4473  0.7611
 7556TIP3    H244084   2.524   0.343   0.915 -0.1793 -0.6348  1.9227
 7557TIP3   OH244085   6.100   5.830   4.939  0.1970  0.1675  0.0667
 7557TIP3    H144086   6.034   5.839   5.008  0.5319 -0.0900  0.4257
 7557TIP3    H244087   6.178   5.871   4.976  0.4545 -0.2100 -0.0556
 7558TIP3   OH244088   3.320   3.574  13.720  0.3529 -0.3865 -0.4150
 7558TIP3    H144089   3.377   3.648  13.741 -0.2087 -0.0888  0.1007
 7558TIP3    H244090   3.322   3.568  13.624  3.3098 -2.0372 -0.3593
 7559TIP3   OH244091   0.827   2.744   4.157 -0.0550 -0.1996  0.0687
 7559TIP3    H144092   0.764   2.776   4.092  0.8945 -1.7350 -1.6974
 7559TIP3    H244093   0.796   2.780   4.240 -1.7044  1.2923 -1.1229
 7560TIP3   OH244094   0.771   0.167  14.682  0.6929  0.0147  0.2083
 7560TIP3    H144095   0.784   0.148  14.589  1.1802 -1.0919  0.4842
 7560TIP3    H244096   0.850   0.215  14.708  0.8100 -0.1685  0.1858
 7561TIP3   OH244097   5.151   2.978   0.815 -0.1262 -0.3580  0.0192
 7561TIP3    H144098   5.115   2.920   0.881 -2.3009 -0.4655 -1.1761
 7561TIP3    H244099   5.151   3.064   0.857  0.6883 -0.7809  0.9180
 7562TIP3   OH244100   5.424   5.147  15.467  0.5129  0.3749 -0.3145
 7562TIP3    H144101   5.365   5.188  15.404 -0.4641 -0.3411  0.1102
 7562TIP3    H244102   5.375   5.074  15.503  1.7366 -0.3655 -0.0747
 7563TIP3   OH244103   5.316   0.926  11.075 -0.5093 -0.3884 -0.4506
 7563TIP3    H144104   5.273   0.995  11.026 -0.4283 -1.3603 -1.9512
 7563TIP3    H244105   5.279   0.845  11.041  2.4377 -1.2882 -1.8418
 7564TIP3   OH244106   0.481   2.753  16.562  0.5657  0.7698 -0.0820
 7564TIP3    H144107   0.459   2.820  16.497 -0.7168 -0.3252 -0.8514
 7564TIP3    H244108   0.444   2.786  16.644 -1.2711  0.4374 -0.7284
 7565TIP3   OH244109   5.800   2.122   3.384  0.0966 -0.0307  0.1570
 7565TIP3    H144110   5.726   2.170   3.346  1.7851  0.9562 -2.1318
 7565TIP3    H244111   5.813   2.162   3.470 -1.0787  0.8354 -0.0499
 7566TIP3   OH244112   2.862   3.492   5.215 -0.4115 -0.0540  0.4202
 7566TIP3    H144113   2.902   3.520   5.298 -1.7110  2.7157  0.2344
 7566TIP3    H244114   2.936   3.463   5.162  0.9536  1.6008  1.2916
 7567TIP3   OH244115   0.470   0.746  14.186 -0.1673 -0.1518 -0.0657
 7567TIP3    H144116   0.447   0.753  14.279  0.4836  1.1565  0.0291
 7567TIP3    H244117   0.389   0.719  14.143  0.0515 -3.0239  1.1168
 7568TIP3   OH244118   1.815   0.167   5.559 -0.1564 -0.0149 -0.0963
 7568TIP3    H144119   1.895   0.153   5.608  0.8310 -0.0684 -1.6594
 7568TIP3    H244120   1.821   0.257   5.526 -0.1561 -0.3868 -1.1748
 7569TIP3   OH244121   5.022   0.127  16.736 -0.1420 -0.1531  0.5913
 7569TIP3    H144122   5.044   0.219  16.752  2.1277 -0.6630  0.8265
 7569TIP3    H244123   4.972   0.127  16.655  0.4990  1.2344  0.1713
 7570TIP3   OH244124   4.879   3.127  15.451 -0.1150 -0.2801 -0.0752
 7570TIP3    H144125   4.905   3.149  15.361 -0.4496 -1.5657 -0.5055
 7570TIP3    H244126   4.788   3.157  15.457  0.1391  0.4762  0.0840
 7571TIP3   OH244127   0.576   3.504  16.341  0.1629  0.5591  0.4183
 7571TIP3    H144128   0.633   3.534  16.412  0.5993  3.2072 -0.8932
 7571TIP3    H244129   0.502   3.566  16.342 -0.2384  0.1474 -0.8967
 7572TIP3   OH244130   2.322   4.454   0.497  0.0378 -0.0852  0.4771
 7572TIP3    H144131   2.261   4.510   0.546  0.3323  0.1437  0.5797
 7572TIP3    H244132   2.278   4.369   0.493 -0.6128  0.2606 -0.0536
 7573TIP3   OH244133   5.462   5.026  13.204  0.1152 -0.0126  0.4632
 7573TIP3    H144134   5.510   5.028  13.121  0.0293 -0.7150  0.3889
 7573TIP3    H244135   5.386   5.082  13.189 -1.1898 -1.9868 -0.7608
 7574TIP3   OH244136   5.041   2.986  11.755  0.1265 -0.6397  0.4171
 7574TIP3    H144137   5.046   2.913  11.693  1.4088  0.3045 -0.6617
 7574TIP3    H244138   5.133   3.008  11.772 -0.2389  0.0428  1.5600
 7575TIP3   OH244139   4.638   1.376   2.102  0.0429 -0.0718  0.5132
 7575TIP3    H144140   4.603   1.462   2.078 -0.3166 -0.3006  0.2003
 7575TIP3    H244141   4.658   1.384   2.196 -1.7717 -0.2276  0.9500
 7576TIP3   OH244142   1.984   3.891   1.839 -0.1623 -0.5021 -0.1307
 7576TIP3    H144143   2.033   3.972   1.825 -1.5177  0.3807  0.0358
 7576TIP3    H244144   2.045   3.821   1.814  0.8350  0.5858 -0.8459
 7577TIP3   OH244145   4.167   1.017   3.221  0.3700 -0.2884 -0.1624
 7577TIP3    H144146   4.083   0.996   3.181 -0.2625  1.2812  0.2649
 7577TIP3    H244147   4.192   1.101   3.181  1.9530 -0.9413 -0.5950
 7578TIP3   OH244148   4.984   6.566   3.131 -0.5137  0.2389  0.2373
 7578TIP3    H144149   4.928   6.602   3.200 -0.1573  1.1929  0.0483
 7578TIP3    H244150   4.964   6.472   3.130 -0.3213  0.1592  1.8128
 7579TIP3   OH244151   1.400   3.645  14.071 -0.0154  0.4285  0.0852
 7579TIP3    H144152   1.466   3.590  14.114 -0.0308 -0.7251 -1.3142
 7579TIP3    H244153   1.317   3.600  14.089 -0.0778  0.2237 -0.7131
 7580TIP3   OH244154   0.194   1.057   3.172  0.7218 -0.4453  0.0822
 7580TIP3    H144155   0.233   1.142   3.191 -2.2649  1.3586 -1.0321
 7580TIP3    H244156   0.170   1.062   3.079 -0.6192 -2.0244  0.2938
 7581TIP3   OH244157   5.221   4.231   0.810 -0.0328 -0.2605 -0.0264
 7581TIP3    H144158   5.167   4.179   0.750 -1.6469 -1.2546  2.1475
 7581TIP3    H244159   5.217   4.320   0.776  0.0123 -0.9634 -1.9650
 7582TIP3   OH244160   5.651   2.728  11.688  0.3505 -0.9805 -0.1191
 7582TIP3    H144161   5.732   2.677  11.687 -0.5172 -2.5573 -3.0076
 7582TIP3    H244162   5.582   2.664  11.707 -0.3903  0.0965  1.0148
 7583TIP3   OH244163   0.559   4.620   4.102  0.3075  0.2634 -0.2290
 7583TIP3    H144164   0.631   4.680   4.121 -0.6747  1.3604  0.2202
 7583TIP3    H244165   0.553   4.617   4.007 -0.9025  2.5698 -0.3069
 7584TIP3   OH244166   4.087   4.450  17.294 -0.1047 -0.0989  0.0386
 7584TIP3    H144167   4.042   4.428  17.212  0.7116 -1.0000 -0.1738
 7584TIP3    H244168   4.033   4.520  17.332 -2.0939 -1.6034  0.1504
 7585TIP3   OH244169   5.774   1.227   1.813  0.2739 -0.0143 -0.1112
 7585TIP3    H144170   5.712   1.277   1.866  0.5573  1.8454 -1.4422
 7585TIP3    H244171   5.856   1.276   1.819  0.3334  0.2053 -2.1593
 7586TIP3   OH244172   2.433   2.396  13.119  0.3749  0.0679 -0.8565
 7586TIP3    H144173   2.350   2.348  13.121 -0.6122  1.6286 -1.8027
 7586TIP3    H244174   2.421   2.467  13.182  1.8828 -0.9520  0.6621
 7587TIP3   OH244175   2.291   3.919   6.176  0.2834 -0.4685  0.4911
 7587TIP3    H144176   2.354   3.889   6.243 -0.2237  0.0709  1.2242
 7587TIP3    H244177   2.206   3.915   6.220  0.0174  0.5094  0.0875
 7588TIP3   OH244178   2.322   1.893  13.752 -0.4736  0.0934  0.4700
 7588TIP3    H144179   2.416   1.905  13.756 -0.5051 -0.0966  2.6999
 7588TIP3    H244180   2.289   1.973  13.709  0.6373  0.3677  0.1066
 7589TIP3   OH244181   5.265   0.719   4.209 -0.1587  0.1451  0.5223
 7589TIP3    H144182   5.187   0.767   4.181 -0.5187 -0.0979  1.0980
 7589TIP3    H244183   5.261   0.722   4.305 -0.9853 -2.3065  0.6204
 7590TIP3   OH244184   2.710   6.403  13.698 -0.6011  0.1389  0.1774
 7590TIP3    H144185   2.717   6.308  13.693 -0.7002  0.1702 -0.7251
 7590TIP3    H244186   2.718   6.433  13.608  2.0766  1.1894  0.6523
 7591TIP3   OH244187   6.755   6.712  15.278  0.3943 -0.0189  0.1998
 7591TIP3    H144188   6.763   6.691  15.185  0.0393  0.3225  0.0917
 7591TIP3    H244189   6.764   6.628  15.323 -2.4692 -0.6975 -0.2910
 7592TIP3   OH244190   0.906   6.637   3.504 -0.0202 -0.2292  0.0111
 7592TIP3    H144191   0.822   6.634   3.549 -0.2579  1.9244 -0.1485
 7592TIP3    H244192   0.909   6.725   3.466  2.6324  0.0509  0.6600
 7593TIP3   OH244193   3.983   3.697  13.896  0.4498 -0.0390  0.0234
 7593TIP3    H144194   4.037   3.701  13.976 -0.3806  0.9575  0.5612
 7593TIP3    H244195   3.893   3.704  13.928  0.1247  0.7988 -1.0396
 7594TIP3   OH244196   5.392   5.229  13.645  0.5163  0.2288 -0.1086
 7594TIP3    H144197   5.338   5.173  13.701 -0.8455  0.5454 -1.0522
 7594TIP3    H244198   5.435   5.168  13.585  0.3639  0.0495 -0.0381
 7595TIP3   OH244199   4.824   2.024   3.531 -0.0883  0.1910 -0.4231
 7595TIP3    H144200   4.823   2.096   3.594  2.0667  0.0908 -0.2184
 7595TIP3    H244201   4.856   2.064   3.450  0.6283 -0.4195 -0.4501
 7596TIP3   OH244202   1.390   2.492  15.612  0.3168  0.1206 -0.0411
 7596TIP3    H144203   1.363   2.420  15.555 -1.1969  0.1419  0.6160
 7596TIP3    H244204   1.378   2.458  15.701 -1.1377  1.4161  0.2854
 7597TIP3   OH244205   6.142   0.834   6.766 -0.3731  0.3152  0.1453
 7597TIP3    H144206   6.080   0.876   6.826 -0.1104  0.6308  0.1928
 7597TIP3    H244207   6.167   0.753   6.811  0.5312  0.9901  0.8894
 7598TIP3   OH244208   5.149   2.037   1.661 -0.0030  0.0425  0.7693
 7598TIP3    H144209   5.089   2.112   1.659 -0.3891 -0.1903 -2.8276
 7598TIP3    H244210   5.236   2.077   1.663 -0.2117  0.6229 -0.7818
 7599TIP3   OH244211   3.787   4.212   0.874  0.1689  0.3211 -0.4873
 7599TIP3    H144212   3.719   4.188   0.811 -0.2886 -0.1268  0.1706
 7599TIP3    H244213   3.814   4.300   0.847 -0.1603  0.2203 -1.1858
 7600TIP3   OH244214   4.992   0.030   5.298 -0.3885  0.1158  0.0324
 7600TIP3    H144215   5.005   0.025   5.393 -0.1400 -1.4864 -0.0618
 7600TIP3    H244216   5.062   0.087   5.267  1.2504 -1.5301  0.5314
 7601TIP3   OH244217   0.502   0.317   4.760 -0.0369 -0.3403  0.2094
 7601TIP3    H144218   0.457   0.395   4.792  1.6132 -0.2722  2.5528
 7601TIP3    H244219   0.536   0.342   4.674 -0.4201  1.1505  0.4694
 7602TIP3   OH244220   3.677   0.593  14.315 -0.3766  0.2448  0.5432
 7602TIP3    H144221   3.747   0.590  14.250 -1.1460  0.6786 -0.3287
 7602TIP3    H244222   3.720   0.570  14.397  0.0261 -3.7615 -0.5758
 7603TIP3   OH244223   5.293   1.784   2.064 -0.8713 -0.5724 -1.2986
 7603TIP3    H144224   5.281   1.717   2.132  0.7162 -0.9335 -1.3437
 7603TIP3    H244225   5.217   1.842   2.074 -0.2322 -0.0710  1.4021
 7604TIP3   OH244226   6.419   5.612  16.726  0.2028  0.3881 -0.0230
 7604TIP3    H144227   6.502   5.649  16.698 -0.0145  0.1914 -0.9719
 7604TIP3    H244228   6.382   5.574  16.646 -0.7973  0.4806  0.3828
 7605TIP3   OH244229   3.389   0.841  16.435 -0.1596  0.3531 -0.2548
 7605TIP3    H144230   3.364   0.749  16.429  0.6019  0.2347 -3.1252
 7605TIP3    H244231   3.485   0.840  16.424 -0.1125  1.4783 -0.0656
 7606TIP3   OH244232   4.244   5.772   5.699 -0.0457  0.9146  0.0563
 7606TIP3    H144233   4.228   5.762   5.605  0.1544  2.7289 -0.1996
 7606TIP3    H244234   4.318   5.713   5.717 -0.7592 -0.2448 -0.6876
 7607TIP3   OH244235   3.430   0.400   5.519 -0.1410  0.5073  0.2406
 7607TIP3    H144236   3.402   0.474   5.572  0.8833  0.4619  0.8684
 7607TIP3    H244237   3.489   0.437   5.454  0.8073  0.1808  0.8999
 7608TIP3   OH244238   4.083   5.806  15.650  0.2249  0.7423 -0.4666
 7608TIP3    H144239   4.044   5.893  15.663 -0.0040  0.5961 -0.1245
 7608TIP3    H244240   4.108   5.804  15.558 -0.1247  1.0295 -0.5727
 7609TIP3   OH244241   5.416   0.632  12.886  0.4377 -0.0897 -0.2419
 7609TIP3    H144242   5.463   0.670  12.813  0.6930 -0.5412 -0.3175
 7609TIP3    H244243   5.466   0.658  12.964  1.1373 -1.0120 -0.3585
 7610TIP3   OH244244   2.342   1.094  11.941  0.5550 -0.0065 -0.6558
 7610TIP3    H144245   2.311   1.043  11.866  0.1998  1.5684 -1.6321
 7610TIP3    H244246   2.277   1.079  12.009  0.8017 -1.3481 -0.6860
 7611TIP3   OH244247   4.750   3.024   0.788 -0.3386 -0.3939  0.2416
 7611TIP3    H144248   4.775   3.114   0.768 -3.0308  0.4427  0.2707
 7611TIP3    H244249   4.729   2.985   0.703  0.5778 -0.9466  0.2549
 7612TIP3   OH244250   2.248   4.629  15.561 -0.1858 -0.1236  0.3691
 7612TIP3    H144251   2.236   4.665  15.649 -1.3161 -1.5522  0.8437
 7612TIP3    H244252   2.199   4.689  15.505 -2.0174 -0.8003  1.1397
 7613TIP3   OH244253   1.703   4.386  14.904  0.0493  0.3695  0.0042
 7613TIP3    H144254   1.734   4.325  14.971  0.4288  1.3258  0.7380
 7613TIP3    H244255   1.754   4.366  14.827  0.0862 -0.3117  0.2013
 7614TIP3   OH244256   2.532   0.745   0.541  0.1225 -0.0325  0.0282
 7614TIP3    H144257   2.499   0.659   0.566  0.4733 -0.3288 -0.4985
 7614TIP3    H244258   2.617   0.727   0.501 -0.6304  0.3492 -1.8448
 7615TIP3   OH244259   0.540   0.036  14.227  0.4924 -0.0913  0.0380
 7615TIP3    H144260   0.575   0.029  14.138  0.0769 -0.4156 -0.1008
 7615TIP3    H244261   0.606  -0.006  14.281  0.9343  0.4521 -0.0655
 7616TIP3   OH244262   6.586   5.253   1.629  0.6826  0.3479 -0.0055
 7616TIP3    H144263   6.594   5.173   1.681 -0.6324  0.2085  0.0320
 7616TIP3    H244264   6.540   5.225   1.550  2.0627  0.6895 -0.9495
 7617TIP3   OH244265   1.246   3.165  16.286  0.3561 -0.7066 -0.2995
 7617TIP3    H144266   1.180   3.184  16.219 -0.7977  0.8518  1.1909
 7617TIP3    H244267   1.330   3.184  16.243 -0.3642  0.5430 -1.2198
 7618TIP3   OH244268   2.488   5.018  15.543  0.4393  0.4872  0.5317
 7618TIP3    H144269   2.404   5.045  15.505 -0.1880 -1.8574  0.1085
 7618TIP3    H244270   2.532   4.969  15.474  0.4550 -1.5459  1.9019
 7619TIP3   OH244271   2.458   1.262   0.160  0.0256  0.2221  0.0470
 7619TIP3    H144272   2.535   1.272   0.216  0.8129  0.5635 -1.0585
 7619TIP3    H244273   2.492   1.266   0.071 -1.0251 -1.5458 -0.5008
 7620TIP3   OH244274   5.834   5.561  14.166  0.0112  0.2183  0.0724
 7620TIP3    H144275   5.773   5.579  14.238 -0.2267  0.3368 -0.1588
 7620TIP3    H244276   5.795   5.486  14.120  0.6115 -0.4261  0.5839
 7621TIP3   OH244277   4.667   5.566  11.252 -0.2229 -0.0970 -0.3218
 7621TIP3    H144278   4.684   5.619  11.175  1.4203 -0.2852 -0.1219
 7621TIP3    H244279   4.754   5.544  11.286 -0.8978 -0.8847  0.9843
 7622TIP3   OH244280   1.592   0.740  16.144 -0.4323 -0.4648 -0.1214
 7622TIP3    H144281   1.621   0.823  16.106 -0.5300 -0.3981 -0.0499
 7622TIP3    H244282   1.500   0.733  16.120 -0.5554 -0.3144  0.2880
 7623TIP3   OH244283   3.775   6.108   1.556  0.5160  0.2085 -0.1009
 7623TIP3    H144284   3.863   6.127   1.589  0.9758 -0.8899 -0.6464
 7623TIP3    H244285   3.719   6.117   1.633  1.5253 -2.0259  0.9991
 7624TIP3   OH244286   3.419   3.199   0.496  0.3155  0.3109  0.9270
 7624TIP3    H144287   3.419   3.168   0.405 -2.1644  2.1634  0.1599
 7624TIP3    H244288   3.459   3.286   0.491 -1.0082  0.9763  1.2964
 7625TIP3   OH244289   1.085   1.924  17.239  0.2747 -0.4633 -0.2815
 7625TIP3    H144290   1.035   1.846  17.262 -0.4474 -0.0434 -0.3805
 7625TIP3    H244291   1.131   1.901  17.158  0.8030 -1.0858  0.1813
 7626TIP3   OH244292   5.228   1.564  16.686 -0.0190  0.2800 -0.0564
 7626TIP3    H144293   5.212   1.541  16.777 -0.1382  0.9557  0.1016
 7626TIP3    H244294   5.322   1.555  16.675 -0.2183 -1.6144 -0.3881
 7627TIP3   OH244295   0.569   2.152  15.293 -0.2107 -0.1570  0.2729
 7627TIP3    H144296   0.582   2.237  15.334 -0.3693 -0.4965  1.0476
 7627TIP3    H244297   0.553   2.172  15.201 -0.7864  0.6917  0.5469
 7628TIP3   OH244298   0.358   5.408   6.536 -0.6250  0.5146 -0.0405
 7628TIP3    H144299   0.316   5.494   6.533  1.1253  1.5210  1.7472
 7628TIP3    H244300   0.451   5.428   6.550  0.3579 -1.6301 -2.6964
 7629TIP3   OH244301   1.580   4.969  12.685  0.9413  0.2432 -0.0318
 7629TIP3    H144302   1.561   4.948  12.776 -0.3673  0.9020 -0.1339
 7629TIP3    H244303   1.618   4.889  12.649  0.5142 -0.3526  0.8210
 7630TIP3   OH244304   0.473   5.742   4.272 -0.2825  0.2135 -0.0583
 7630TIP3    H144305   0.548   5.785   4.230  0.6101  1.8394  2.9014
 7630TIP3    H244306   0.499   5.650   4.278 -0.8990 -0.3496 -3.7372
 7631TIP3   OH244307   4.610   0.867  14.026  0.3783  0.1411 -0.6993
 7631TIP3    H144308   4.608   0.935  13.958 -1.4847  2.1164  1.1928
 7631TIP3    H244309   4.654   0.907  14.100 -0.5459 -0.7708  0.3901
 7632TIP3   OH244310   3.984   5.994  15.967  0.3782  0.5758  0.0996
 7632TIP3    H144311   3.915   6.051  16.002  2.1062  2.9767 -0.1533
 7632TIP3    H244312   3.992   6.019  15.876  0.7686 -0.5766 -0.2018
 7633TIP3   OH244313   0.326   0.805  12.853  0.4693  0.1554 -0.3189
 7633TIP3    H144314   0.259   0.847  12.907  1.1313  0.9091 -0.0605
 7633TIP3    H244315   0.351   0.871  12.789  1.1603 -0.0116 -0.2368
 7634TIP3   OH244316   5.662   2.900   1.971 -0.4756  0.3822 -0.7453
 7634TIP3    H144317   5.604   2.902   1.895 -0.3901  0.6665 -0.8019
 7634TIP3    H244318   5.749   2.880   1.936 -0.4378  0.5031 -0.7211
 7635TIP3   OH244319   2.557   5.545   2.977 -0.0439  0.0276 -0.2347
 7635TIP3    H144320   2.622   5.474   2.977 -1.8309 -1.7632  2.6174
 7635TIP3    H244321   2.576   5.595   3.056  0.0792  1.7746 -1.3102
 7636TIP3   OH244322   0.131   2.745  14.430 -0.3921  0.9028  0.9469
 7636TIP3    H144323   0.183   2.717  14.506 -1.3198  0.4765  1.4446
 7636TIP3    H244324   0.054   2.689  14.433 -0.7261  1.3028  0.0267
 7637TIP3   OH244325   6.214   6.215   6.858  0.3619 -0.0018 -0.3187
 7637TIP3    H144326   6.265   6.255   6.929 -0.7299 -1.1158  1.1659
 7637TIP3    H244327   6.263   6.136   6.835 -0.6395 -1.0802  1.1183
 7638TIP3   OH244328   0.318   5.179  13.262 -0.0364 -0.0357 -0.3467
 7638TIP3    H144329   0.285   5.139  13.343  1.6779  0.4376  0.6527
 7638TIP3    H244330   0.402   5.136  13.247 -0.0029  0.4001 -1.4896
 7639TIP3   OH244331   1.415   1.572  15.064  0.0111  0.2497  0.3619
 7639TIP3    H144332   1.446   1.556  14.975  1.4346  0.9106  0.7080
 7639TIP3    H244333   1.457   1.654  15.090 -0.7412  0.3095  1.4840
 7640TIP3   OH244334   5.493   5.546  15.724 -0.0453  0.1700  0.1990
 7640TIP3    H144335   5.465   5.628  15.683 -1.0466 -0.1759  0.1646
 7640TIP3    H244336   5.447   5.543  15.807  0.5965  0.0063  0.5580
 7641TIP3   OH244337   1.638   2.832  10.796  0.1379  0.7278 -0.7536
 7641TIP3    H144338   1.665   2.775  10.868 -0.3435  1.1492 -0.2385
 7641TIP3    H244339   1.607   2.771  10.729 -3.2844  0.3804  0.9200
 7642TIP3   OH244340   4.476   2.841  12.796  0.0304 -0.4218  0.2269
 7642TIP3    H144341   4.447   2.800  12.714 -0.5478  0.1422  0.1492
 7642TIP3    H244342   4.395   2.856  12.845  0.4473 -1.7265  1.3719
 7643TIP3   OH244343   5.385   6.473   0.988 -0.5094  0.5964 -0.1508
 7643TIP3    H144344   5.373   6.567   1.001 -1.9218  0.4883 -0.5513
 7643TIP3    H244345   5.454   6.449   1.050  0.7125  2.0907 -0.8529
 7644TIP3   OH244346   3.979   4.195  10.912 -0.1568  0.0025  0.4006
 7644TIP3    H144347   3.991   4.107  10.876  0.5217 -0.2969  1.3195
 7644TIP3    H244348   3.911   4.185  10.978 -1.2214  0.5001 -0.5986
 7645TIP3   OH244349   4.286   4.981   4.423 -0.0888 -0.4602  0.2508
 7645TIP3    H144350   4.307   5.075   4.425  1.1362 -0.7067  0.0767
 7645TIP3    H244351   4.197   4.976   4.457 -0.1967  0.7726  0.2157
 7646TIP3   OH244352   1.639   5.537   3.305  0.2216 -0.7621 -0.6676
 7646TIP3    H144353   1.550   5.566   3.328  0.3703 -0.3660 -0.5793
 7646TIP3    H244354   1.690   5.552   3.384  0.5983  0.0207 -1.0451
 7647TIP3   OH244355   2.981   1.212  12.383  0.6508 -0.0120  0.0677
 7647TIP3    H144356   2.906   1.199  12.440 -0.4269 -0.7091 -1.4391
 7647TIP3    H244357   3.044   1.260  12.436 -0.9623  0.8393  1.2772
 7648TIP3   OH244358   1.404   1.158  14.269  0.3024  0.2957 -0.2695
 7648TIP3    H144359   1.388   1.079  14.217  2.1161 -0.3846  0.1212
 7648TIP3    H244360   1.342   1.222  14.235 -0.8310 -1.1215 -0.9901
 7649TIP3   OH244361   6.538   4.544   2.510 -0.6485 -0.4743 -0.3783
 7649TIP3    H144362   6.627   4.577   2.516 -1.2537  1.3420 -0.7417
 7649TIP3    H244363   6.517   4.549   2.417 -1.7198  0.8751 -0.1025
 7650TIP3   OH244364   2.813   6.696   6.169 -0.5762 -0.1700  0.3943
 7650TIP3    H144365   2.849   6.714   6.082  0.3563  1.1507  0.9986
 7650TIP3    H244366   2.750   6.626   6.156  1.3848 -1.7866 -0.9447
 7651TIP3   OH244367   5.631   5.438   4.594 -0.3686 -0.1122 -0.3744
 7651TIP3    H144368   5.636   5.533   4.585 -2.4460  0.0384 -0.3151
 7651TIP3    H244369   5.633   5.422   4.688 -1.8250  0.0255 -0.3067
 7652TIP3   OH244370   6.582   6.493   2.703  0.0672 -0.3737  0.7111
 7652TIP3    H144371   6.639   6.470   2.629  0.6128  0.1038  0.9780
 7652TIP3    H244372   6.503   6.530   2.662  0.3837 -0.0747  0.3651
 7653TIP3   OH244373   1.494   6.550  16.769  0.2409  0.7383  0.0144
 7653TIP3    H144374   1.433   6.512  16.833  1.0188  1.7065  1.3921
 7653TIP3    H244375   1.497   6.486  16.698 -1.1071 -0.1064  0.6713
 7654TIP3   OH244376   2.350   0.042   3.823  0.0723 -0.3503 -0.4743
 7654TIP3    H144377   2.348  -0.027   3.889 -1.5867 -2.0111 -2.1388
 7654TIP3    H244378   2.327   0.122   3.871 -0.9095 -1.4683  0.9996
 7655TIP3   OH244379   5.134   5.983   2.811  0.5228  0.1592  0.2776
 7655TIP3    H144380   5.111   6.075   2.809  0.1259  0.0648  0.2863
 7655TIP3    H244381   5.228   5.980   2.796  0.4706  0.5401 -0.1451
 7656TIP3   OH244382   3.679   6.553  17.222  0.2966 -0.0625 -0.4293
 7656TIP3    H144383   3.741   6.604  17.170 -2.2167  1.1264 -2.4829
 7656TIP3    H244384   3.651   6.612  17.291  0.4854 -0.1282 -0.2971
 7657TIP3   OH244385   0.681   1.016  13.373  0.0522 -0.5330 -0.2726
 7657TIP3    H144386   0.595   1.039  13.406 -0.1753 -1.5534 -0.1278
 7657TIP3    H244387   0.717   0.956  13.438  0.2666 -1.2649 -1.0477
 7658TIP3   OH244388   5.126   5.125   1.584 -0.2541  0.1542  0.0222
 7658TIP3    H144389   5.061   5.073   1.538  3.2081 -3.3902 -1.5474
 7658TIP3    H244390   5.143   5.075   1.664  0.2177  1.2648  0.6380
 7659TIP3   OH244391   6.641   4.946  12.469 -0.3344  0.1576  0.2568
 7659TIP3    H144392   6.595   4.863  12.482  0.0163 -0.1274 -0.2861
 7659TIP3    H244393   6.725   4.921  12.431  0.1074  0.7040  0.8664
 7660TIP3   OH244394   4.124   2.359   5.615 -0.6449  0.4180  0.4498
 7660TIP3    H144395   4.135   2.280   5.669 -0.2493  0.1132 -0.0700
 7660TIP3    H244396   4.120   2.430   5.679  1.6086  0.2622  0.8400
 7661TIP3   OH244397   0.607   5.278   2.094  0.2969 -0.1620 -0.0673
 7661TIP3    H144398   0.629   5.357   2.145 -0.1105  0.2448 -0.5110
 7661TIP3    H244399   0.513   5.283   2.081  0.5945  0.8308 -2.5613
 7662TIP3   OH244400   1.567   2.614   6.685  0.1867  0.3626 -0.0188
 7662TIP3    H144401   1.612   2.588   6.605  0.5993 -0.8400  0.5635
 7662TIP3    H244402   1.487   2.658   6.656  0.5445  0.3377 -1.0728
 7663TIP3   OH244403   1.270   3.190   5.614  0.3743 -0.4675  0.4634
 7663TIP3    H144404   1.247   3.158   5.701  1.0565 -1.6019  0.2489
 7663TIP3    H244405   1.321   3.119   5.575  1.2657  0.5703 -0.3419
 7664TIP3   OH244406   0.031   0.592  15.482  0.2395 -0.1831  0.8119
 7664TIP3    H144407  -0.006   0.677  15.457 -0.0664 -0.4581  0.3365
 7664TIP3    H244408  -0.013   0.529  15.426  0.0293 -0.7309  1.5859
 7665TIP3   OH244409   6.538   1.480   4.236  0.7680  0.1079  0.4813
 7665TIP3    H144410   6.606   1.507   4.175 -0.4772 -0.1398 -1.0643
 7665TIP3    H244411   6.564   1.519   4.320  2.8744 -0.1203 -0.0170
 7666TIP3   OH244412   3.602   4.468   3.876 -0.2738  0.0714  0.2629
 7666TIP3    H144413   3.514   4.503   3.892  0.1211  0.5834  1.4861
 7666TIP3    H244414   3.644   4.533   3.820 -0.6487 -0.1360 -0.2595
 7667TIP3   OH244415   1.609   1.494   0.944 -0.2291  0.2527 -0.0537
 7667TIP3    H144416   1.690   1.443   0.947  0.9666  2.0590 -0.0448
 7667TIP3    H244417   1.598   1.526   1.034 -1.6959 -1.0036  0.2594
 7668TIP3   OH244418   2.254   0.507   6.062  0.5385  0.2824 -0.0330
 7668TIP3    H144419   2.164   0.528   6.087  0.0733 -0.7461 -0.7810
 7668TIP3    H244420   2.292   0.465   6.140 -0.6269 -2.1232 -0.6859
 7669TIP3   OH244421   5.977   0.221   1.899 -0.2957  0.0043 -0.4035
 7669TIP3    H144422   6.057   0.206   1.950  0.7261  3.3718 -0.7605
 7669TIP3    H244423   5.918   0.266   1.960 -0.7937  0.1321 -0.9747
 7670TIP3   OH244424   3.631   5.990   3.818 -0.0694  0.2650 -0.4176
 7670TIP3    H144425   3.630   6.082   3.791 -1.6974  0.1124 -0.9670
 7670TIP3    H244426   3.658   5.942   3.739 -0.4461  0.1725 -0.4898
 7671TIP3   OH244427   3.685   2.964   1.104  0.2411 -0.0411  0.5119
 7671TIP3    H144428   3.712   2.918   1.183 -1.3695 -0.4705  0.8617
 7671TIP3    H244429   3.749   2.938   1.038  0.1574 -1.7494  1.0395
 7672TIP3   OH244430   0.446   2.559  15.991 -0.4356 -0.2394  0.9711
 7672TIP3    H144431   0.467   2.640  16.039  0.4236 -1.5557  2.9250
 7672TIP3    H244432   0.355   2.570  15.965 -0.4794  1.1756  1.6092
 7673TIP3   OH244433   4.069   0.257  11.683  0.2497  0.7925 -0.1862
 7673TIP3    H144434   4.138   0.268  11.749  0.4951  0.9508 -0.4623
 7673TIP3    H244435   4.022   0.340  11.683  0.8505  1.1426 -0.8760
 7674TIP3   OH244436   1.934   1.628  11.991  0.5205 -0.3499  0.2114
 7674TIP3    H144437   2.000   1.611  11.924  1.2830 -1.2756  1.1727
 7674TIP3    H244438   1.851   1.618  11.945  0.9881 -2.5286 -0.2739
 7675TIP3   OH244439   5.420   5.466  15.273 -0.4922  0.1935  0.4904
 7675TIP3    H144440   5.344   5.520  15.296 -0.4836  0.0997  0.7407
 7675TIP3    H244441   5.495   5.518  15.302 -0.4433  0.4452 -0.0808
 7676TIP3   OH244442   2.135   2.416  12.500  0.1428 -0.0994 -0.6875
 7676TIP3    H144443   2.155   2.323  12.499  2.3832  0.3168 -0.6408
 7676TIP3    H244444   2.171   2.447  12.583  0.3253  0.9734 -1.1495
 7677TIP3   OH244445   3.973   6.175   1.309  0.6556  0.4632 -0.1201
 7677TIP3    H144446   4.066   6.153   1.318  0.1582 -1.6644  0.4678
 7677TIP3    H244447   3.936   6.152   1.394 -0.6894 -0.3675 -0.9014
 7678TIP3   OH244448   4.862   4.754   3.060  0.2660 -0.2301 -0.2707
 7678TIP3    H144449   4.779   4.719   3.029 -0.1603 -0.1789  0.7691
 7678TIP3    H244450   4.851   4.849   3.055 -0.5605 -0.1620  1.8373
 7679TIP3   OH244451   3.193   0.432  15.301  0.1032  1.1436 -0.3058
 7679TIP3    H144452   3.262   0.485  15.262 -0.4992  2.4868  0.3813
 7679TIP3    H244453   3.112   0.475  15.274 -0.6209 -1.1379 -2.2262
 7680TIP3   OH244454   1.767   2.380  14.439 -0.0995 -0.6337  0.5367
 7680TIP3    H144455   1.802   2.375  14.350 -0.2429  0.9528  0.3542
 7680TIP3    H244456   1.839   2.351  14.495  1.8201  2.8611  0.1987
 7681TIP3   OH244457   4.588   2.716   5.155 -0.1834 -0.2734 -0.5002
 7681TIP3    H144458   4.534   2.727   5.077 -0.3311 -0.9354 -0.4939
 7681TIP3    H244459   4.672   2.754   5.132  0.4265 -2.2199 -1.6991
 7682TIP3   OH244460   0.706   0.749   5.577 -0.0526 -0.6072  0.6422
 7682TIP3    H144461   0.717   0.676   5.637 -2.0106 -2.5801 -1.1956
 7682TIP3    H244462   0.613   0.772   5.583  0.5928  2.1885  1.5516
 7683TIP3   OH244463   3.474   3.122  15.936  0.1433 -0.3772  0.5221
 7683TIP3    H144464   3.483   3.118  15.841 -1.8003 -0.6054  0.2989
 7683TIP3    H244465   3.513   3.040  15.967  0.4346 -0.4908 -0.1240
 7684TIP3   OH244466   3.754   3.884  14.680 -0.0348  0.0362  0.6633
 7684TIP3    H144467   3.675   3.915  14.635  0.5624 -1.5406 -1.6689
 7684TIP3    H244468   3.783   3.959  14.732 -2.5210  0.9505  0.8703
 7685TIP3   OH244469   4.484   3.214   0.842  0.0568  0.2491 -0.4203
 7685TIP3    H144470   4.466   3.134   0.792  2.1098 -0.0469 -0.8058
 7685TIP3    H244471   4.496   3.282   0.775  1.6815  0.0967 -0.3317
 7686TIP3   OH244472   2.171   6.503  11.588 -0.1269  0.0670 -0.3369
 7686TIP3    H144473   2.097   6.552  11.553  0.1994  1.5364  0.9215
 7686TIP3    H244474   2.234   6.571  11.613 -0.0172 -0.8973  2.2912
 7687TIP3   OH244475   0.293   5.132   0.679  0.0616 -0.0150  0.8162
 7687TIP3    H144476   0.229   5.064   0.699 -1.3853  1.3104  0.8497
 7687TIP3    H244477   0.253   5.213   0.710  2.1749  0.7580  1.7384
 7688TIP3   OH244478   3.174   5.884  14.887  0.4807 -0.2187  0.2059
 7688TIP3    H144479   3.187   5.978  14.873  1.1654 -0.2756  0.4237
 7688TIP3    H244480   3.224   5.842  14.816 -0.1822 -0.4096 -0.1507
 7689TIP3   OH244481   5.645   2.889  16.558 -0.1375 -0.2643  0.0246
 7689TIP3    H144482   5.713   2.939  16.512 -0.6257  0.5160  0.1285
 7689TIP3    H244483   5.570   2.948  16.561 -0.3101 -0.5258  1.3029
 7690TIP3   OH244484   4.615   1.417   4.774  0.2182  0.1015  0.1798
 7690TIP3    H144485   4.541   1.408   4.833  0.1236  1.5727  0.3088
 7690TIP3    H244486   4.688   1.377   4.821 -0.2787 -0.4950  0.4538
 7691TIP3   OH244487   2.359   3.124  16.814 -0.6907  0.1472  0.1294
 7691TIP3    H144488   2.292   3.143  16.748 -0.1949 -0.0742 -0.4501
 7691TIP3    H244489   2.424   3.193  16.803 -0.1599 -0.4019 -0.2328
 7692TIP3   OH244490   5.095   0.810   3.029  0.3428 -0.1066  0.4647
 7692TIP3    H144491   5.091   0.906   3.028 -0.0281 -0.1209 -0.1318
 7692TIP3    H244492   5.133   0.788   3.114 -2.6233  0.4671  2.0785
 7693TIP3   OH244493   3.490   1.120   1.418 -0.6601 -0.3506  0.4900
 7693TIP3    H144494   3.395   1.110   1.429 -0.8277  1.1443  0.5284
 7693TIP3    H244495   3.508   1.083   1.331 -1.3537 -0.1796  0.2687
 7694TIP3   OH244496   0.780   6.151  14.794  0.2822  0.2504  0.2950
 7694TIP3    H144497   0.816   6.122  14.710 -0.5843 -0.2717  0.0933
 7694TIP3    H244498   0.713   6.086  14.814 -0.6749  1.3095  0.5680
 7695TIP3   OH244499   0.683   2.930  11.594  0.1518  0.3552  0.8669
 7695TIP3    H144500   0.681   2.930  11.498  0.8464 -1.1754  0.8198
 7695TIP3    H244501   0.662   2.840  11.618  1.1626  0.4294  2.1185
 7696TIP3   OH244502   0.178   1.739  13.418  0.0638 -0.0456  0.3103
 7696TIP3    H144503   0.171   1.746  13.323 -2.3298  0.3611  0.4571
 7696TIP3    H244504   0.168   1.646  13.437 -0.0780 -0.0513  0.2038
 7697TIP3   OH244505   5.597   2.118   1.843 -0.2890 -0.1783 -0.5924
 7697TIP3    H144506   5.625   2.173   1.770 -3.9232 -0.5248 -2.4325
 7697TIP3    H244507   5.543   2.175   1.897 -1.0019 -0.9801 -0.4405
 7698TIP3   OH244508   1.135   4.150  14.964  0.4382 -0.4215 -0.1072
 7698TIP3    H144509   1.159   4.241  14.981 -0.4038 -0.4449  1.3666
 7698TIP3    H244510   1.208   4.115  14.913  0.5985  1.1710 -1.0346
 7699TIP3   OH244511   5.514   4.261   0.762 -0.3797  0.2621 -0.1735
 7699TIP3    H144512   5.477   4.180   0.727 -2.5597  0.8444  0.6044
 7699TIP3    H244513   5.505   4.324   0.691  0.7996 -0.0100 -0.5854
 7700TIP3   OH244514   4.011   2.327   1.878  0.3261  0.2826 -0.3847
 7700TIP3    H144515   3.929   2.286   1.850  1.1304 -1.3923 -0.4565
 7700TIP3    H244516   4.073   2.305   1.809  1.3057 -0.2248  0.6211
 7701TIP3   OH244517   2.444   5.906   5.406  0.4468  0.3892 -0.3853
 7701TIP3    H144518   2.355   5.940   5.395  0.4229  0.1306 -1.0361
 7701TIP3    H244519   2.439   5.815   5.376  0.5817 -0.1087  1.0438
 7702TIP3   OH244520   4.060   4.214   1.391 -0.2789 -0.1054 -0.3546
 7702TIP3    H144521   4.146   4.240   1.357 -0.8404 -1.0767 -2.7936
 7702TIP3    H244522   3.997   4.250   1.328 -1.5337 -0.8611  0.4112
 7703TIP3   OH244523   0.732   4.288  14.807  0.0244  0.3641 -0.3881
 7703TIP3    H144524   0.806   4.238  14.773  0.5825  0.8647  0.0874
 7703TIP3    H244525   0.769   4.372  14.834 -0.9623  1.1793 -1.4797
 7704TIP3   OH244526   1.257   6.091   0.757  0.2088 -0.2196  0.4796
 7704TIP3    H144527   1.201   6.119   0.830  1.2828  0.0850  1.2034
 7704TIP3    H244528   1.212   6.014   0.722 -0.8670  0.2360  0.7886
 7705TIP3   OH244529   5.514   1.520   3.880  0.6864 -0.5253  0.7105
 7705TIP3    H144530   5.466   1.440   3.859  1.2023 -0.7649  0.4018
 7705TIP3    H244531   5.545   1.553   3.795 -0.5757  0.6975  0.6975
 7706TIP3   OH244532   5.431   6.632   3.244  0.5777 -0.6632  0.4542
 7706TIP3    H144533   5.399   6.618   3.155  2.7039 -2.1928 -0.1583
 7706TIP3    H244534   5.361   6.598   3.300 -1.1644  1.0994 -0.5261
 7707TIP3   OH244535   2.279   5.274   6.732  0.5473 -0.3329 -0.0208
 7707TIP3    H144536   2.370   5.245   6.739  1.6974  2.4207 -1.6399
 7707TIP3    H244537   2.281   5.364   6.765 -1.7013 -0.3129  0.2010
 7708TIP3   OH244538   0.028   4.658   2.487  0.8304 -0.1728  0.2930
 7708TIP3    H144539   0.085   4.671   2.411 -0.3357 -0.8990 -0.7441
 7708TIP3    H244540   0.060   4.721   2.551  1.5115  0.8522 -0.9932
 7709TIP3   OH244541   1.661   3.554   3.467 -0.2704  0.4235 -0.2779
 7709TIP3    H144542   1.669   3.475   3.412 -0.3749  1.0989 -1.2909
 7709TIP3    H244543   1.638   3.624   3.405  1.0349  1.5043  0.4024
 7710TIP3   OH244544   2.844   1.144  14.364 -0.1738  0.1848 -0.3982
 7710TIP3    H144545   2.785   1.214  14.336  0.5963  0.1884 -2.1657
 7710TIP3    H244546   2.920   1.189  14.402 -0.8009  0.2098  0.8587
 7711TIP3   OH244547   1.323   2.911   1.094  0.8249 -0.6151  0.1989
 7711TIP3    H144548   1.293   2.919   1.004 -1.6209  0.6314  1.0494
 7711TIP3    H244549   1.305   2.996   1.134  1.5705 -1.2193  1.9536
 7712TIP3   OH244550   5.357   0.370  16.768  0.3309  0.3151  0.4421
 7712TIP3    H144551   5.410   0.339  16.694 -0.4890  0.6903 -0.3269
 7712TIP3    H244552   5.381   0.463  16.777  0.7673  0.1580  0.9587
 7713TIP3   OH244553   1.462   4.234   0.860 -0.0830  0.0358 -0.1993
 7713TIP3    H144554   1.379   4.238   0.813 -0.7619 -1.1478  0.8406
 7713TIP3    H244555   1.478   4.323   0.890 -0.8249  0.3270 -0.6671
 7714TIP3   OH244556   0.924   4.037  15.111 -0.5207 -0.8325  0.7480
 7714TIP3    H144557   0.985   4.084  15.054 -1.6074 -0.0661  0.1865
 7714TIP3    H244558   0.962   3.949  15.120  0.7320 -0.3336  0.5425
 7715TIP3   OH244559   4.106   1.904   2.578 -0.6669  0.0337  0.4138
 7715TIP3    H144560   4.041   1.973   2.561  0.9652  1.0921 -2.2523
 7715TIP3    H244561   4.106   1.852   2.498 -0.5045 -1.9879  1.6627
 7716TIP3   OH244562   0.181   6.136   2.556  0.1500 -0.4019 -0.4565
 7716TIP3    H144563   0.244   6.108   2.623 -0.5391  0.2498  0.4961
 7716TIP3    H244564   0.198   6.078   2.481  2.5668  0.4175 -0.6238
 7717TIP3   OH244565   4.579   4.802  16.980 -0.4795 -0.0978  0.0199
 7717TIP3    H144566   4.540   4.889  16.984 -0.5346 -0.1651  1.1140
 7717TIP3    H244567   4.672   4.818  16.964 -0.4090  0.1874  0.6902
 7718TIP3   OH244568   6.654   1.471  13.304 -0.2231 -0.1482  0.3856
 7718TIP3    H144569   6.593   1.421  13.357 -0.3774  1.1959  1.5383
 7718TIP3    H244570   6.736   1.468  13.352 -0.3147  0.9244  0.6462
 7719TIP3   OH244571   4.545   5.531   5.790  0.0778 -0.8370  0.6053
 7719TIP3    H144572   4.451   5.521   5.776  0.2615 -1.2399 -0.4353
 7719TIP3    H244573   4.555   5.619   5.826 -0.6779 -0.7184  0.5397
 7720TIP3   OH244574   2.858   4.877  12.877  0.4475 -0.1632  0.1876
 7720TIP3    H144575   2.794   4.915  12.936  0.8792 -0.8692  1.1254
 7720TIP3    H244576   2.841   4.920  12.793 -0.1324  0.8929  0.8251
 7721TIP3   OH244577   1.662   4.274   1.818  0.2425 -0.2371  0.0332
 7721TIP3    H144578   1.626   4.285   1.730  1.4812 -1.7973 -0.7143
 7721TIP3    H244579   1.600   4.319   1.875  0.2503  2.2662 -1.7561
 7722TIP3   OH244580   3.743   4.202   4.930 -0.2865  0.1877 -0.1824
 7722TIP3    H144581   3.723   4.209   5.023 -0.1655 -0.3953 -0.1054
 7722TIP3    H244582   3.666   4.236   4.886  0.0246  1.3577  0.1279
 7723TIP3   OH244583   4.784   1.133  17.203 -0.2988  0.5714  0.0253
 7723TIP3    H144584   4.823   1.207  17.251  0.3517  0.2677 -0.0297
 7723TIP3    H244585   4.792   1.157  17.111 -1.4728  1.1155  0.0420
 7724TIP3   OH244586   1.101   3.803   4.732  0.4101  0.3400  0.1616
 7724TIP3    H144587   1.090   3.789   4.826 -1.2674  0.8576  0.0652
 7724TIP3    H244588   1.162   3.877   4.727 -0.4520  1.1330  0.8871
 7725TIP3   OH244589   1.676   6.355  15.662  0.0863 -0.1103  0.1749
 7725TIP3    H144590   1.684   6.299  15.739  0.8067  0.3320  0.4345
 7725TIP3    H244591   1.728   6.432  15.683 -1.2831  0.8862  0.0265
 7726TIP3   OH244592   6.239   4.326  12.325 -0.2911  0.1490 -0.0515
 7726TIP3    H144593   6.220   4.233  12.335  0.9321 -0.2417 -1.0667
 7726TIP3    H244594   6.221   4.345  12.233 -0.3852  0.8761  0.1120
 7727TIP3   OH244595   5.628   4.099  10.491 -0.3903  0.3381  0.1274
 7727TIP3    H144596   5.620   4.132  10.580 -0.8380 -0.9281  0.5708
 7727TIP3    H244597   5.685   4.162  10.447 -1.2100  1.6887  0.9370
 7728TIP3   OH244598   2.944   5.879   2.798  0.3557 -0.0880 -0.3069
 7728TIP3    H144599   2.904   5.861   2.883  0.5292 -0.9387 -0.3912
 7728TIP3    H244600   2.877   5.927   2.750  1.0946  2.4781  1.0844
 7729TIP3   OH244601   3.744   5.084  11.136  0.4259 -0.0562  0.2936
 7729TIP3    H144602   3.707   5.018  11.077  0.5239  0.1030  0.0498
 7729TIP3    H244603   3.838   5.082  11.117  0.3859  0.3943  0.0393
 7730TIP3   OH244604   3.531   0.793  14.202 -0.6162 -0.3584  0.2114
 7730TIP3    H144605   3.584   0.727  14.247 -0.8121 -0.6625  0.0019
 7730TIP3    H244606   3.490   0.843  14.272  0.8152  0.6124  0.4019
 7731TIP3   OH244607   6.487   2.713  14.002 -0.6339  0.1000 -0.2359
 7731TIP3    H144608   6.474   2.696  14.096  0.6827 -1.0414 -0.2192
 7731TIP3    H244609   6.447   2.798  13.987 -0.2728  0.6229  1.5153
 7732TIP3   OH244610   0.285   4.376  15.766  0.1862 -0.3287  0.1224
 7732TIP3    H144611   0.193   4.355  15.753  0.0262  0.6492 -0.3609
 7732TIP3    H244612   0.312   4.320  15.839 -0.2017 -2.2519 -1.1388
 7733TIP3   OH244613   0.327   1.825   0.362  0.2837  0.0241 -0.7483
 7733TIP3    H144614   0.260   1.892   0.355  0.9040  0.9567  1.3847
 7733TIP3    H244615   0.301   1.771   0.437  2.2124  0.8633  0.6162
 7734TIP3   OH244616   4.560   3.993   2.836  0.0477 -0.3791  0.6377
 7734TIP3    H144617   4.556   4.085   2.863  0.2594 -0.3949  0.7221
 7734TIP3    H244618   4.492   3.950   2.889 -1.2899  0.0415 -0.6671
 7735TIP3   OH244619   0.237   6.639   2.900  0.0559 -0.4721 -0.0835
 7735TIP3    H144620   0.145   6.631   2.873  0.2359 -1.1006 -0.5285
 7735TIP3    H244621   0.238   6.610   2.991  0.0964 -2.2523 -0.6047
 7736TIP3   OH244622   1.502   0.437   2.137  0.5362 -0.5427  0.2619
 7736TIP3    H144623   1.486   0.525   2.172  0.0092 -0.7027  0.4315
 7736TIP3    H244624   1.597   0.426   2.142  0.7746  0.6050 -1.1940
 7737TIP3   OH244625   3.622   5.658   2.907 -0.0677  0.3638 -0.3183
 7737TIP3    H144626   3.691   5.622   2.963  0.6704  1.7274 -0.3065
 7737TIP3    H244627   3.611   5.593   2.838  0.7176 -0.2131  0.0795
 7738TIP3   OH244628   2.094   5.256   0.518 -0.4328 -0.1200 -0.2084
 7738TIP3    H144629   2.108   5.349   0.502  1.5399 -0.4071 -0.3263
 7738TIP3    H244630   2.052   5.253   0.604 -0.3184  0.8626 -0.1038
 7739TIP3   OH244631   4.694   2.767  10.766  0.2594 -0.4013 -0.0977
 7739TIP3    H144632   4.711   2.857  10.795  1.9113 -0.7031 -0.0160
 7739TIP3    H244633   4.599   2.762  10.758  0.1095  1.2489  0.2245
 7740TIP3   OH244634   2.953   3.201  10.551 -0.1649  0.2306  0.1832
 7740TIP3    H144635   2.928   3.293  10.538  0.2602  0.4772  1.0194
 7740TIP3    H244636   3.048   3.202  10.548 -0.1768 -0.5031 -1.7050
 7741TIP3   OH244637   4.239   4.489   2.627 -0.0049 -0.6071 -0.0710
 7741TIP3    H144638   4.179   4.554   2.589 -0.2146  0.8450  2.5134
 7741TIP3    H244639   4.187   4.409   2.631 -0.8492 -0.0933 -0.3830
 7742TIP3   OH244640   4.307   0.514  13.182 -0.0171  0.6862  0.1673
 7742TIP3    H144641   4.355   0.445  13.227 -0.8609 -0.8568 -1.2244
 7742TIP3    H244642   4.350   0.521  13.097 -2.1606 -0.7155 -1.1095
 7743TIP3   OH244643   1.550   4.499  16.298 -0.1807 -0.4756 -0.4827
 7743TIP3    H144644   1.613   4.430  16.280 -0.5676 -0.7480 -0.7929
 7743TIP3    H244645   1.467   4.465  16.267 -0.2304  0.4791 -1.4680
 7744TIP3   OH244646   2.586   3.508  14.483  0.1001  0.7652  0.1739
 7744TIP3    H144647   2.502   3.527  14.525 -0.2203 -0.0540 -0.0704
 7744TIP3    H244648   2.629   3.593  14.476 -0.3852  1.0890  0.9893
 7745TIP3   OH244649   1.154   0.825   3.607 -0.2083  0.0362  0.2267
 7745TIP3    H144650   1.120   0.912   3.626  0.6642  0.5390 -0.4063
 7745TIP3    H244651   1.127   0.771   3.681 -2.0520  0.4712 -0.0841
 7746TIP3   OH244652   6.095   6.508  14.941  0.1686 -0.4149 -0.3239
 7746TIP3    H144653   6.046   6.569  14.885  0.1231 -0.7590 -0.6663
 7746TIP3    H244654   6.095   6.548  15.027 -2.4242 -1.3241  0.1691
 7747TIP3   OH244655   0.857   3.797  14.509 -0.0140  0.4466 -0.5413
 7747TIP3    H144656   0.891   3.849  14.436 -2.0156  1.6157 -0.7094
 7747TIP3    H244657   0.765   3.782  14.488 -0.3855 -0.0936  1.2397
 7748TIP3   OH244658   4.081   0.362   4.984  0.6982  1.3168 -0.5378
 7748TIP3    H144659   4.163   0.344   4.939  1.1752  0.7098  0.5573
 7748TIP3    H244660   4.085   0.456   5.005  1.0097  1.3357 -0.6830
 7749TIP3   OH244661   5.642   0.917  14.101 -0.5232  0.8080 -0.5282
 7749TIP3    H144662   5.611   0.933  14.012 -0.0688  1.0846 -0.6434
 7749TIP3    H244663   5.623   0.997  14.149  3.0787  2.4626 -1.4762
 7750TIP3   OH244664   5.441   3.046   1.444  0.1202 -0.2542  0.6562
 7750TIP3    H144665   5.477   3.130   1.474  0.2147  0.2375 -0.7405
 7750TIP3    H244666   5.354   3.068   1.412  0.3333 -0.5920 -0.1694
 7751TIP3   OH244667   3.323   3.008  12.009  0.2936  0.2921  0.3310
 7751TIP3    H144668   3.355   3.083  11.958  0.9495 -1.5937 -2.2395
 7751TIP3    H244669   3.401   2.955  12.025 -0.5086 -1.0099  0.0161
 7752TIP3   OH244670   4.075   4.576   5.616  0.1792  0.6199  0.5312
 7752TIP3    H144671   4.133   4.596   5.690  1.9589  1.1853 -0.9548
 7752TIP3    H244672   4.131   4.582   5.539 -1.6510  0.1663 -0.9042
 7753TIP3   OH244673   3.969   2.352   1.122  0.3047 -0.2086  0.4853
 7753TIP3    H144674   3.938   2.365   1.212  1.9865  1.3115  0.9127
 7753TIP3    H244675   4.061   2.330   1.132  1.1864  2.4087 -0.8724
 7754TIP3   OH244676   4.315   1.209   6.545 -0.3955 -0.0652  0.1056
 7754TIP3    H144677   4.289   1.291   6.504 -0.9027  0.7695  1.9645
 7754TIP3    H244678   4.400   1.227   6.584 -1.2230  0.1876  1.9466
 7755TIP3   OH244679   3.033   3.420   1.767  0.2159 -0.3602 -0.0518
 7755TIP3    H144680   3.034   3.486   1.697 -1.3381 -0.6386 -0.3861
 7755TIP3    H244681   2.988   3.463   1.840  1.3530 -0.2549  0.6004
 7756TIP3   OH244682   4.148   2.586   5.747  0.0428 -0.3863 -0.1931
 7756TIP3    H144683   4.174   2.591   5.840  0.2230  0.0300 -0.2657
 7756TIP3    H244684   4.215   2.636   5.701 -1.0447  0.9789 -0.3608
 7757TIP3   OH244685   2.421   3.795   4.025  0.1289 -0.2018 -0.0154
 7757TIP3    H144686   2.382   3.715   4.060  0.2779 -0.4974 -0.5128
 7757TIP3    H244687   2.411   3.859   4.095 -1.5546 -0.1631 -0.2575
 7758TIP3   OH244688   5.370   0.625  17.357 -0.0268  0.1583  0.1356
 7758TIP3    H144689   5.341   0.537  17.331 -0.2251  0.3235 -0.2036
 7758TIP3    H244690   5.302   0.683  17.323 -0.2973  0.3813  1.0332
 7759TIP3   OH244691   0.457   6.573  13.785 -0.3023  0.6178 -0.1127
 7759TIP3    H144692   0.384   6.602  13.841 -0.6376 -0.0669 -0.1811
 7759TIP3    H244693   0.422   6.576  13.696  0.2274  1.6914 -0.2953
 7760TIP3   OH244694   1.812   6.353  16.610  0.4841 -0.1071 -0.2760
 7760TIP3    H144695   1.768   6.279  16.567 -0.2855  0.1170  0.1065
 7760TIP3    H244696   1.763   6.366  16.691  1.5450 -0.1251  0.3802
 7761TIP3   OH244697   6.209   4.375  15.511  0.6173 -0.2051  0.0105
 7761TIP3    H144698   6.120   4.346  15.532  1.8846 -1.8832  4.0335
 7761TIP3    H244699   6.255   4.294  15.490  1.5733  0.4617 -0.5274
 7762TIP3   OH244700   2.766   6.732  15.345  0.9142  0.0938 -0.1017
 7762TIP3    H144701   2.763   6.732  15.441 -0.1291 -1.2083 -0.1048
 7762TIP3    H244702   2.808   6.815  15.322 -1.3365  1.7704  1.4106
 7763TIP3   OH244703   6.459   0.212   0.375  0.8182 -0.1457 -0.1955
 7763TIP3    H144704   6.510   0.187   0.298  1.4440  1.5060 -0.3607
 7763TIP3    H244705   6.399   0.279   0.343  1.2282  0.7149  0.7847
 7764TIP3   OH244706   0.254   5.274  14.605 -0.5387  0.1828  0.0992
 7764TIP3    H144707   0.206   5.334  14.662 -0.4357  1.0418 -0.7037
 7764TIP3    H244708   0.200   5.195  14.603 -0.6837  0.2456  1.1478
 7765TIP3   OH244709   5.600   4.583  12.624 -0.1129  0.4740  1.0252
 7765TIP3    H144710   5.583   4.579  12.530 -0.4780  0.2375  1.0985
 7765TIP3    H244711   5.521   4.622  12.661  0.2115  0.9859  1.1878
 7766TIP3   OH244712   5.066   5.313  14.872 -0.0015  0.1280 -0.4987
 7766TIP3    H144713   4.976   5.298  14.845  0.3971 -0.8556 -1.3222
 7766TIP3    H244714   5.062   5.320  14.967 -0.9384  0.0947 -0.5290
 7767TIP3   OH244715   1.270   1.710  11.574  0.5306 -0.2900 -0.2044
 7767TIP3    H144716   1.224   1.654  11.511  2.1981  0.7380 -2.4941
 7767TIP3    H244717   1.266   1.662  11.656 -2.4016 -1.3710 -0.8566
 7768TIP3   OH244718   5.969   2.447   1.608  0.0075 -0.2901 -0.5101
 7768TIP3    H144719   5.956   2.493   1.691 -1.7213 -0.7863 -0.4742
 7768TIP3    H244720   5.907   2.487   1.548  0.7563 -0.4092 -1.3783
 7769TIP3   OH244721   1.708   1.594  16.118 -0.0334  0.0771 -0.1623
 7769TIP3    H144722   1.796   1.562  16.140  0.3325  1.0660 -0.1434
 7769TIP3    H244723   1.723   1.660  16.050 -0.5261  1.9802  1.4891
 7770TIP3   OH244724   3.564   0.999   4.988  0.1070  0.4566  0.1309
 7770TIP3    H144725   3.470   0.999   5.006 -0.2893  1.3457 -1.6886
 7770TIP3    H244726   3.577   1.074   4.930  1.9316  0.2825  0.2581
 7771TIP3   OH244727   3.521   5.381   0.649 -0.0347 -0.1551 -0.1652
 7771TIP3    H144728   3.517   5.304   0.592  0.0497 -1.4184  1.4644
 7771TIP3    H244729   3.430   5.402   0.668 -0.0789  0.4976 -1.0030
 7772TIP3   OH244730   2.794   0.183  11.239 -0.2191  0.1169 -0.3186
 7772TIP3    H144731   2.810   0.206  11.330 -0.8151 -0.3482 -0.0873
 7772TIP3    H244732   2.706   0.143  11.239 -0.4715  0.6426 -1.1855
 7773TIP3   OH244733   0.720   2.982   4.085 -0.0809 -0.3211  0.1624
 7773TIP3    H144734   0.715   2.965   4.179 -0.7468 -1.6605 -0.0927
 7773TIP3    H244735   0.717   3.077   4.077 -0.2274 -0.2027  1.4786
 7774TIP3   OH244736   1.075   2.368   4.427 -0.2424 -0.2940  0.4074
 7774TIP3    H144737   1.118   2.360   4.341 -0.3683  0.9101  0.2038
 7774TIP3    H244738   0.985   2.339   4.411 -0.9069  2.0143 -0.4722
 7775TIP3   OH244739   1.105   0.007   0.474  0.2962  0.1817 -0.1501
 7775TIP3    H144740   1.106  -0.088   0.486 -1.1243  0.2305  0.5718
 7775TIP3    H244741   1.165   0.041   0.540 -0.2798 -0.1453  0.5587
 7776TIP3   OH244742   2.143   4.511  13.531 -0.1190  0.3750  0.4649
 7776TIP3    H144743   2.098   4.472  13.456 -1.8658  2.8516  0.0843
 7776TIP3    H244744   2.217   4.559  13.493  1.5086 -1.6874  0.8442
 7777TIP3   OH244745   2.395   3.620  13.610 -0.0556 -0.1486 -0.0094
 7777TIP3    H144746   2.463   3.582  13.554 -1.9507  0.7698 -3.1834
 7777TIP3    H244747   2.436   3.626  13.696  2.4936 -3.2960 -0.7816
 7778TIP3   OH244748   3.909   6.311   1.895 -1.0891 -0.0273 -0.7522
 7778TIP3    H144749   3.928   6.256   1.819 -0.9216 -1.4931  0.3147
 7778TIP3    H244750   3.883   6.395   1.858 -0.7219 -0.6204 -2.4180
 7779TIP3   OH244751   0.035   3.576   5.162  0.0535 -0.4106  0.2403
 7779TIP3    H144752  -0.060   3.571   5.149 -0.6642  0.5986  4.0160
 7779TIP3    H244753   0.052   3.523   5.240  2.5379 -0.1074 -0.0114
 7780TIP3   OH244754   4.546   6.317   2.558  0.0568  0.4499 -0.2174
 7780TIP3    H144755   4.505   6.373   2.492 -3.5312 -2.6340 -0.9441
 7780TIP3    H244756   4.557   6.374   2.634 -1.7637  2.5638 -1.4146
 7781TIP3   OH244757   4.659   2.602  14.549 -0.1260  0.0696  0.0200
 7781TIP3    H144758   4.750   2.578  14.532 -0.4543 -0.3852 -1.2005
 7781TIP3    H244759   4.625   2.629  14.464 -0.8357  1.2910  0.6787
 7782TIP3   OH244760   4.500   1.451  15.770 -0.2766  0.5614 -0.2963
 7782TIP3    H144761   4.417   1.409  15.795  0.2721  0.3745  1.3563
 7782TIP3    H244762   4.484   1.544  15.780 -0.1095  0.4969  0.7340
 7783TIP3   OH244763   2.404   3.643  13.287 -0.1028  0.0916  0.8517
 7783TIP3    H144764   2.491   3.608  13.304 -0.3257  0.1090  2.1282
 7783TIP3    H244765   2.350   3.565  13.270  0.3789  0.1421 -1.2294
 7784TIP3   OH244766   0.318   1.306   6.628 -0.2172 -0.6480 -0.0917
 7784TIP3    H144767   0.330   1.389   6.581 -1.6915 -0.0247  0.5792
 7784TIP3    H244768   0.298   1.242   6.560  1.4779 -0.6034 -0.6740
 7785TIP3   OH244769   6.570   1.779   0.711  0.2539 -0.6602 -0.3304
 7785TIP3    H144770   6.550   1.852   0.770 -1.7156 -2.0956  0.8732
 7785TIP3    H244771   6.572   1.819   0.624  0.1923  0.9768  0.3858
 7786TIP3   OH244772   0.297   3.402  12.267  0.4095  0.4966 -0.0106
 7786TIP3    H144773   0.314   3.350  12.345 -0.4945  1.3746  0.7899
 7786TIP3    H244774   0.207   3.381  12.243  0.5466  0.5470 -0.5804
 7787TIP3   OH244775   0.481   5.397   1.616 -0.0253 -0.4850  0.2959
 7787TIP3    H144776   0.514   5.454   1.684 -1.8515 -0.7034  1.4531
 7787TIP3    H244777   0.394   5.371   1.646 -1.2853  0.0586 -2.5021
 7788TIP3   OH244778   1.731   6.050  11.335 -0.5026  0.0572 -0.2749
 7788TIP3    H144779   1.668   6.010  11.276  1.2604  0.9768 -2.9230
 7788TIP3    H244780   1.805   5.990  11.337 -0.3737  0.2155  0.7657
 7789TIP3   OH244781   1.757   2.289   3.057  0.2332  0.0160  0.1454
 7789TIP3    H144782   1.787   2.275   2.967  0.1019 -0.6321  0.1979
 7789TIP3    H244783   1.773   2.382   3.074 -0.8633  0.4252 -0.9653
 7790TIP3   OH244784   3.638   0.756   5.140 -0.6415 -0.1662  0.6112
 7790TIP3    H144785   3.593   0.817   5.081 -0.9699  1.4602  2.4278
 7790TIP3    H244786   3.686   0.813   5.200  3.6753 -1.7725 -0.9559
 7791TIP3   OH244787   0.865   2.694  13.077 -0.7853  0.2361 -0.3573
 7791TIP3    H144788   0.851   2.786  13.053 -3.5363 -0.4119 -1.6947
 7791TIP3    H244789   0.947   2.694  13.126 -0.6351  3.3728 -0.4007
 7792TIP3   OH244790   6.066   6.667  10.758  0.2042  0.3531  0.1062
 7792TIP3    H144791   6.018   6.695  10.836 -0.9104 -0.6490 -0.1942
 7792TIP3    H244792   5.999   6.657  10.691  0.6556 -2.0971 -0.0487
 7793TIP3   OH244793   2.929   3.666  13.278  0.1280 -0.2090 -0.1803
 7793TIP3    H144794   2.931   3.671  13.374  0.1977 -0.2644 -0.1796
 7793TIP3    H244795   2.836   3.663  13.257  0.0655 -3.5634  0.0676
 7794TIP3   OH244796   4.860   4.359  13.155 -0.0525 -0.0264 -0.0835
 7794TIP3    H144797   4.932   4.353  13.093 -0.3382 -0.3695 -0.3854
 7794TIP3    H244798   4.783   4.334  13.105 -0.3285 -0.0210  0.3329
 7795TIP3   OH244799   4.777   6.139  14.328  0.2621  0.1268  0.1665
 7795TIP3    H144800   4.694   6.105  14.360 -0.2840  1.5767  0.3821
 7795TIP3    H244801   4.799   6.210  14.388  0.3583  1.4113 -1.3214
 7796TIP3   OH244802   3.642   4.107   0.061  0.0714  0.0353 -0.4798
 7796TIP3    H144803   3.728   4.066   0.068 -0.7998 -2.0082 -1.1043
 7796TIP3    H244804   3.660   4.190   0.015  1.6182 -0.6736 -1.2579
 7797TIP3   OH244805   2.694   5.437  14.891  0.0350 -0.4728  0.3287
 7797TIP3    H144806   2.651   5.410  14.973 -2.0479  1.5739  0.0223
 7797TIP3    H244807   2.724   5.526  14.908 -0.4267 -0.0185 -1.1324
 7798TIP3   OH244808   3.878   4.950   0.542  0.1045 -0.8323 -0.1678
 7798TIP3    H144809   3.868   5.044   0.558 -1.5971 -0.8662 -0.8479
 7798TIP3    H244810   3.793   4.912   0.566  1.3827 -2.5154  2.0285
 7799TIP3   OH244811   1.284   5.751  12.613  0.0863 -0.3701 -0.5964
 7799TIP3    H144812   1.328   5.666  12.618  0.1720 -0.2501  1.8187
 7799TIP3    H244813   1.314   5.798  12.690 -0.2755  1.7384 -1.6670
 7800TIP3   OH244814   6.622   1.494  15.103  0.4996 -0.4704 -0.4260
 7800TIP3    H144815   6.669   1.421  15.062  0.0145 -0.3723 -1.1855
 7800TIP3    H244816   6.631   1.479  15.197  2.0775 -0.4370 -0.5391
 7801TIP3   OH244817   0.327   1.766  12.463  0.2283 -0.4862 -0.1973
 7801TIP3    H144818   0.312   1.673  12.478  2.1038 -1.2517 -2.4697
 7801TIP3    H244819   0.303   1.780  12.372 -0.2948  1.3609  0.1743
 7802TIP3   OH244820   4.304   4.196   5.435 -0.4222  0.4712  0.4061
 7802TIP3    H144821   4.348   4.237   5.361  0.2849  0.0183  0.5703
 7802TIP3    H244822   4.261   4.118   5.397  2.2724 -1.3905  0.9010
 7803TIP3   OH244823   3.219   0.259   4.368 -0.1291  0.1912 -0.6767
 7803TIP3    H144824   3.274   0.220   4.300 -1.3193 -1.6342 -0.6694
 7803TIP3    H244825   3.281   0.286   4.436  0.8229 -1.7478 -0.6851
 7804TIP3   OH244826   3.115   3.900  11.204 -0.2465  0.1418  0.5689
 7804TIP3    H144827   3.023   3.918  11.225 -1.1428 -1.8457 -1.2646
 7804TIP3    H244828   3.123   3.805  11.213  1.3563  0.1603 -0.3158
 7805TIP3   OH244829   6.057   0.937  11.988 -0.0546  0.3632  0.3527
 7805TIP3    H144830   6.034   0.992  12.063 -0.5696  0.8648 -0.1740
 7805TIP3    H244831   5.974   0.901  11.958 -0.0044  1.1059 -0.7179
 7806TIP3   OH244832   6.547   1.095  14.363  0.5303 -0.1788 -0.2019
 7806TIP3    H144833   6.473   1.040  14.389  1.0520 -0.3052  1.0529
 7806TIP3    H244834   6.531   1.178  14.408  1.4685 -0.4156  0.5983
 7807TIP3   OH244835   5.311   5.209  14.759  0.1486 -0.1364 -0.1115
 7807TIP3    H144836   5.319   5.118  14.730 -1.2995 -1.6587  3.5598
 7807TIP3    H244837   5.218   5.220  14.777  0.7323  0.6701  3.0862
 7808TIP3   OH244838   1.117   0.822   3.968  0.2377  0.6749  0.1369
 7808TIP3    H144839   1.072   0.905   3.981 -2.0228 -0.1418 -1.6602
 7808TIP3    H244840   1.049   0.763   3.935  2.0854 -1.4670 -0.1062
 7809TIP3   OH244841   3.207   4.729  12.183  0.2424  0.4023 -0.2366
 7809TIP3    H144842   3.213   4.690  12.270 -0.9673 -1.3876 -0.8975
 7809TIP3    H244843   3.263   4.674  12.128  1.9159  2.1890 -0.4457
 7810TIP3   OH244844   5.950   6.429  17.227  0.2913 -0.4388 -0.5061
 7810TIP3    H144845   5.890   6.358  17.248  0.3942  0.0002  1.4385
 7810TIP3    H244846   5.893   6.503  17.203  0.0702 -0.3703  0.1991
 7811TIP3   OH244847   1.136   6.635  12.397  0.3560  0.0834  0.0566
 7811TIP3    H144848   1.192   6.683  12.336  0.4947 -0.4067 -0.2070
 7811TIP3    H244849   1.124   6.549  12.356  0.4198 -0.2384  0.7010
 7812TIP3   OH244850   4.791   4.400   3.854  0.1686 -0.0480 -0.1811
 7812TIP3    H144851   4.877   4.443   3.849  0.4146 -0.5545 -0.3645
 7812TIP3    H244852   4.802   4.318   3.806  0.3038 -1.3108  1.8801
 7813TIP3   OH244853   1.520   6.559   1.157 -0.0583 -0.2962 -0.5027
 7813TIP3    H144854   1.595   6.610   1.125 -1.1600  2.0170  0.3671
 7813TIP3    H244855   1.532   6.556   1.252 -0.2846 -1.2750 -0.4957
 7814TIP3   OH244856   0.123   1.366  16.264  0.3065 -0.3891 -0.2946
 7814TIP3    H144857   0.157   1.307  16.198 -0.9327 -0.9117 -0.4841
 7814TIP3    H244858   0.045   1.322  16.299 -0.6811  1.1262 -0.4859
 7815TIP3   OH244859   6.713   5.955  13.871  0.3232  0.5702 -0.0109
 7815TIP3    H144860   6.729   5.880  13.928  2.4454  1.8188  1.1853
 7815TIP3    H244861   6.722   5.920  13.782  0.8385 -0.6693  0.5096
 7816TIP3   OH244862   6.091   2.772  10.865 -0.0464  0.0835  0.4643
 7816TIP3    H144863   6.052   2.843  10.917 -1.1764 -0.2296  0.0635
 7816TIP3    H244864   6.080   2.800  10.774  1.1813  0.2392  0.3482
 7817TIP3   OH244865   5.017   2.246   4.764  0.0885 -0.0704 -0.5739
 7817TIP3    H144866   5.099   2.264   4.810  0.0198 -2.0184  0.4443
 7817TIP3    H244867   5.033   2.276   4.675  1.5319  0.5547 -0.1473
 7818TIP3   OH244868   5.843   0.872  15.233  0.8784 -0.2611 -0.3122
 7818TIP3    H144869   5.814   0.781  15.236  2.6523 -0.8519  0.0417
 7818TIP3    H244870   5.895   0.883  15.312  2.5379  0.3966 -1.4527
 7819TIP3   OH244871   6.069   6.193  11.822  0.2420 -0.3507 -0.3079
 7819TIP3    H144872   6.151   6.192  11.873  0.3068 -2.6267 -0.3383
 7819TIP3    H244873   6.072   6.111  11.773 -2.4651 -0.9398  0.3644
 7820TIP3   OH244874   1.585   2.182  14.164  0.4636  0.4766  0.0885
 7820TIP3    H144875   1.522   2.253  14.151  0.5054  0.2650 -1.3883
 7820TIP3    H244876   1.531   2.107  14.191  0.2418  0.6498  0.1261
 7821TIP3   OH244877   2.488   2.812  11.769  0.1213 -0.3463  0.0597
 7821TIP3    H144878   2.416   2.849  11.718  1.6152  2.0009 -0.5257
 7821TIP3    H244879   2.567   2.856  11.735  1.3408  0.4163  3.4769
 7822TIP3   OH244880   2.132   5.395  16.872 -0.0414 -0.5968  0.1823
 7822TIP3    H144881   2.184   5.450  16.930  0.2103  0.4515 -0.9942
 7822TIP3    H244882   2.057   5.449  16.848  1.1353  0.0467 -2.4641
 7823TIP3   OH244883   6.646   0.104   0.163  0.1140 -0.1849  0.2744
 7823TIP3    H144884   6.675   0.017   0.137 -0.1976 -0.0346 -0.6148
 7823TIP3    H244885   6.608   0.141   0.083 -1.4087  0.0822  1.0941
 7824TIP3   OH244886   0.644   5.702  13.698  0.1570 -1.1574  0.0641
 7824TIP3    H144887   0.658   5.797  13.692  0.6767 -1.1923  0.5713
 7824TIP3    H244888   0.628   5.675  13.608 -1.5195 -0.3761  0.0848
 7825TIP3   OH244889   6.334   2.661  15.011  0.1330  0.3737  0.2893
 7825TIP3    H144890   6.314   2.728  14.946  1.6924 -0.9204 -1.6737
 7825TIP3    H244891   6.317   2.702  15.095 -1.3409  2.3637 -0.8968
 7826TIP3   OH244892   1.178   0.975   4.247 -0.3487 -0.1989 -0.2020
 7826TIP3    H144893   1.107   0.972   4.182 -1.0161 -0.9530  0.5303
 7826TIP3    H244894   1.132   0.979   4.331  0.4524  3.3475  0.2236
 7827TIP3   OH244895   2.138   4.214   6.299 -0.2761 -0.0646  0.0650
 7827TIP3    H144896   2.139   4.258   6.383 -3.2110  1.1169 -0.4158
 7827TIP3    H244897   2.127   4.121   6.320 -1.2672  0.2524  0.9907
 7828TIP3   OH244898   3.360   0.792   0.993  0.3057 -0.2744 -0.6409
 7828TIP3    H144899   3.385   0.872   0.947 -1.5438  0.3657 -0.6509
 7828TIP3    H244900   3.300   0.747   0.932 -0.7690 -0.3031  0.3912
 7829TIP3   OH244901   0.132   3.225  11.577  0.5103  0.0320  0.4186
 7829TIP3    H144902   0.154   3.306  11.622  2.0751  0.7457 -1.4776
 7829TIP3    H244903   0.082   3.252  11.501  0.1916 -0.8764  0.2898
 7830TIP3   OH244904   5.840   3.985  11.037  0.1574  0.5603  0.2526
 7830TIP3    H144905   5.750   4.016  11.040  0.0863  0.4749 -0.8460
 7830TIP3    H244906   5.877   4.011  11.122 -1.2457 -0.4898  1.2395
 7831TIP3   OH244907   4.286   3.746  12.213  0.1645 -0.2937 -0.3450
 7831TIP3    H144908   4.254   3.811  12.151 -0.3233  0.0883  0.2861
 7831TIP3    H244909   4.224   3.674  12.206  1.1142 -1.0328 -1.5724
 7832TIP3   OH244910   6.678   1.474  12.224  0.1013  0.1995  0.9410
 7832TIP3    H144911   6.678   1.536  12.151  0.1325 -0.9776 -0.0968
 7832TIP3    H244912   6.667   1.529  12.302 -2.1134  1.3518 -0.0767
 7833TIP3   OH244913   1.623   2.269   4.973 -0.6044  0.1700 -0.0502
 7833TIP3    H144914   1.689   2.243   5.038  0.0332  1.9376  0.0622
 7833TIP3    H244915   1.655   2.231   4.890 -1.9348 -2.9589  0.6977
 7834TIP3   OH244916   0.540   6.138  14.032  0.0730 -0.3128  0.2602
 7834TIP3    H144917   0.528   6.214  14.089  1.3050 -0.5167  0.8234
 7834TIP3    H244918   0.593   6.077  14.084 -1.9139 -2.1185  0.3162
 7835TIP3   OH244919   4.542   5.440  12.343 -0.4987 -0.2344  0.0727
 7835TIP3    H144920   4.527   5.420  12.251  0.9090 -0.0992 -0.2064
 7835TIP3    H244921   4.471   5.395  12.389 -0.7813 -0.9360 -1.0127
 7836TIP3   OH244922   4.964   2.492  17.210 -0.2620 -0.1790  0.2531
 7836TIP3    H144923   4.976   2.409  17.256 -1.3785 -1.0158 -0.8874
 7836TIP3    H244924   5.053   2.518  17.185  0.0223 -1.7495 -0.5223
 7837TIP3   OH244925   0.146   4.544   2.953  0.2179  0.0597  0.3206
 7837TIP3    H144926   0.150   4.486   3.029  0.3978 -0.6148 -0.1921
 7837TIP3    H244927   0.075   4.510   2.899  0.6338  0.0143 -0.2164
 7838TIP3   OH244928   5.522   4.393  11.409  0.7784 -0.1427 -0.7589
 7838TIP3    H144929   5.506   4.315  11.461 -0.7825  0.2293 -0.6116
 7838TIP3    H244930   5.589   4.368  11.347  1.3213 -1.1637  0.2094
 7839TIP3   OH244931   0.659   4.141  16.115 -0.2582 -0.1796  0.9131
 7839TIP3    H144932   0.629   4.068  16.168  0.3289 -2.1893 -1.3477
 7839TIP3    H244933   0.752   4.125  16.100 -0.4608  0.0627 -0.9739
 7840TIP3   OH244934   1.262   0.093   4.052  0.4437 -0.6263 -0.4526
 7840TIP3    H144935   1.248   0.009   4.009 -0.7458 -0.5843 -0.1827
 7840TIP3    H244936   1.265   0.073   4.146  1.7442 -0.5534 -0.4560
 7841TIP3   OH244937   4.591   2.556   2.177 -0.2071 -0.4238 -0.3181
 7841TIP3    H144938   4.634   2.533   2.095 -1.6209  1.9801 -1.8530
 7841TIP3    H244939   4.640   2.632   2.208 -0.2915 -0.7301  0.5902
 7842TIP3   OH244940   4.564   3.035   5.622  0.3341 -0.5459 -0.3274
 7842TIP3    H144941   4.479   2.992   5.635  0.9424 -1.4401  0.8363
 7842TIP3    H244942   4.613   3.016   5.701  1.3752  0.5981 -0.6690
 7843TIP3   OH244943   1.730   0.935  15.758  0.4353  0.5031 -0.2039
 7843TIP3    H144944   1.667   0.913  15.827 -0.1493 -1.1343 -1.2095
 7843TIP3    H244945   1.797   0.867  15.764  1.3947  1.4474 -0.0406
 7844TIP3   OH244946   1.902   1.949   4.687 -0.1795 -0.1945 -0.2558
 7844TIP3    H144947   1.997   1.939   4.684 -0.0315  1.0750 -0.2174
 7844TIP3    H244948   1.875   1.893   4.761  0.5093 -0.6645 -0.3445
 7845TIP3   OH244949   0.345   3.758  11.570 -0.5198 -0.2074  0.2566
 7845TIP3    H144950   0.420   3.734  11.624 -1.0687 -0.6552  0.8479
 7845TIP3    H244951   0.275   3.775  11.634 -1.5571 -2.0149 -0.3129
 7846TIP3   OH244952   1.351   1.306  13.449 -0.5600 -0.2259 -0.5302
 7846TIP3    H144953   1.270   1.257  13.469 -0.6450  0.2517  0.3828
 7846TIP3    H244954   1.363   1.362  13.526  0.4535 -0.0366 -0.8233
 7847TIP3   OH244955   1.725   3.405  14.574 -0.2525  0.2776  0.0551
 7847TIP3    H144956   1.814   3.394  14.539 -0.3926 -1.8284  0.2482
 7847TIP3    H244957   1.732   3.379  14.665 -1.4079 -1.7787 -0.3952
 7848TIP3   OH244958   6.681   2.346  12.993  0.5303 -0.0403  0.5530
 7848TIP3    H144959   6.591   2.379  12.992  0.6850  0.4240 -1.3170
 7848TIP3    H244960   6.736   2.424  12.980  1.0021 -0.6927 -1.8017
 7849TIP3   OH244961   6.565   1.883  12.373 -0.0502 -0.4800  0.1073
 7849TIP3    H144962   6.536   1.849  12.457  0.7533 -0.7918  0.2692
 7849TIP3    H244963   6.643   1.936  12.393 -1.0019  1.0996 -0.1976
 7850TIP3   OH244964   6.648   5.379   3.758 -0.3841 -0.5611 -0.0999
 7850TIP3    H144965   6.708   5.436   3.710 -0.3447 -0.1896  0.3803
 7850TIP3    H244966   6.670   5.291   3.729 -0.1763 -0.3595 -0.5573
 7851TIP3   OH244967   4.385   4.898   0.507  0.0095 -0.5290 -0.8920
 7851TIP3    H144968   4.310   4.890   0.567  0.0855 -2.6104 -1.0045
 7851TIP3    H244969   4.347   4.881   0.420  0.7182 -2.5062 -0.8555
 7852TIP3   OH244970   2.696   5.837   4.087  0.0461 -0.4818  1.0771
 7852TIP3    H144971   2.768   5.869   4.141  1.5107 -0.4814 -0.7652
 7852TIP3    H244972   2.725   5.751   4.056 -0.0422  0.1255 -0.8568
 7853TIP3   OH244973   2.984   0.879   4.115  0.1108  0.2822  0.3664
 7853TIP3    H144974   3.044   0.952   4.100  1.3993 -0.4839  1.6493
 7853TIP3    H244975   3.039   0.808   4.146 -1.2535 -0.9693  0.0149
 7854TIP3   OH244976   4.960   4.925   2.154 -0.7036  0.3476  0.6071
 7854TIP3    H144977   5.041   4.960   2.117 -0.8825  1.5716  1.3081
 7854TIP3    H244978   4.975   4.831   2.158 -0.5065  0.1998 -2.0872
 7855TIP3   OH244979   1.994   1.080  11.664 -0.2832  0.2027  0.2126
 7855TIP3    H144980   1.948   0.997  11.675  1.1180 -0.6679 -0.0843
 7855TIP3    H244981   1.990   1.097  11.570  0.1028  0.0406  0.1628
 7856TIP3   OH244982   0.585   4.028   5.380 -0.5950 -0.3940 -0.2633
 7856TIP3    H144983   0.671   4.006   5.417 -0.1717  1.5268  0.0389
 7856TIP3    H244984   0.604   4.048   5.288 -0.2303  2.2207  0.2915
 7857TIP3   OH244985   0.648   3.751  14.884  0.0881  0.4291 -0.0863
 7857TIP3    H144986   0.635   3.812  14.956  1.8212  0.4933  0.2295
 7857TIP3    H244987   0.740   3.765  14.858 -0.3427  0.0381 -1.9506
 7858TIP3   OH244988   1.933   6.169  17.370  0.7760  0.0407 -0.0730
 7858TIP3    H144989   2.000   6.233  17.346  0.2929 -0.0232 -1.7058
 7858TIP3    H244990   1.851   6.205  17.336  0.5077 -1.4390 -1.1236
 7859TIP3   OH244991   6.183   3.480  17.086 -0.0790 -0.0529 -0.1703
 7859TIP3    H144992   6.156   3.436  17.167  0.3557 -0.5955 -0.3117
 7859TIP3    H244993   6.155   3.421  17.016  2.0340 -0.9745 -0.2991
 7860TIP3   OH244994   1.200   4.962   2.460 -0.0037 -0.0781  0.2126
 7860TIP3    H144995   1.132   4.925   2.516  0.5818 -0.9923  0.3303
 7860TIP3    H244996   1.282   4.928   2.495  0.4496  0.2040 -0.5466
 7861TIP3   OH244997   1.885   6.727  17.300 -0.7931  0.2601 -0.3486
 7861TIP3    H144998   1.870   6.787  17.227 -2.3531  0.7472  0.3329
 7861TIP3    H244999   1.842   6.646  17.274  3.6066 -1.7404 -2.5063
 7862TIP3   OH245000   6.336   1.269   1.238 -0.2266  0.8178  0.0939
 7862TIP3    H145001   6.331   1.294   1.330 -0.5632  1.2582 -0.0386
 7862TIP3    H245002   6.245   1.269   1.208 -0.4730 -2.2076  0.4915
 7863TIP3   OH245003   2.718   1.207   6.288 -0.2520  0.0726  0.0064
 7863TIP3    H145004   2.646   1.258   6.325  1.4115  2.4196  0.1841
 7863TIP3    H245005   2.747   1.257   6.212 -0.5991 -2.3152 -1.8039
 7864TIP3   OH245006   0.003   0.447   0.943  0.0373  0.9283  0.0866
 7864TIP3    H145007  -0.033   0.522   0.896  1.3849  1.4016 -0.2541
 7864TIP3    H245008   0.080   0.421   0.892  1.1010  0.9816  1.5756
 7865TIP3   OH245009   4.982   4.813   5.589 -0.2386  0.2880 -0.3682
 7865TIP3    H145010   4.929   4.748   5.542 -0.5942 -0.1710  0.6235
 7865TIP3    H245011   4.945   4.813   5.678 -0.8462  2.5091 -0.5605
 7866TIP3   OH245012   5.069   0.810  15.423 -0.3255  0.4575 -0.2369
 7866TIP3    H145013   5.156   0.775  15.406  0.3280  2.0528 -0.3791
 7866TIP3    H245014   5.060   0.883  15.361 -1.4443  0.8090  0.2997
 7867TIP3   OH245015   1.437   3.119  12.778  0.2139 -0.1639  0.0620
 7867TIP3    H145016   1.422   3.128  12.684 -0.4761  0.0652  0.1864
 7867TIP3    H245017   1.350   3.122  12.817  0.5493  0.6199  0.7845
 7868TIP3   OH245018   3.605   0.226  12.790 -0.2097 -0.1551  0.1989
 7868TIP3    H145019   3.627   0.186  12.874 -3.5915 -1.5528  0.5754
 7868TIP3    H245020   3.589   0.152  12.731  0.2298  0.7757 -1.1415
 7869TIP3   OH245021   5.551   3.345  15.205 -0.5064  0.5844 -0.1749
 7869TIP3    H145022   5.586   3.267  15.162 -0.7239  0.0890  0.5266
 7869TIP3    H245023   5.514   3.313  15.287 -1.0859  1.3507 -0.1222
 7870TIP3   OH245024   1.887   4.326   3.177  0.1388  0.5942 -0.4148
 7870TIP3    H145025   1.834   4.405   3.162 -0.0342  0.0465 -3.2798
 7870TIP3    H245026   1.882   4.279   3.094 -1.7650 -3.6890  1.8512
 7871TIP3   OH245027   3.569   5.420   2.755  0.1572  0.2891  0.0471
 7871TIP3    H145028   3.500   5.456   2.700 -0.4482  0.0298  0.6308
 7871TIP3    H245029   3.636   5.390   2.693 -0.6433 -0.2579 -0.5612
 7872TIP3   OH245030   5.526   5.411  14.425 -0.3272 -0.3078  0.0495
 7872TIP3    H145031   5.564   5.376  14.506  0.9436 -0.0494 -0.4094
 7872TIP3    H245032   5.442   5.367  14.417 -0.2644 -0.6880  1.2659
 7873TIP3   OH245033   0.496   2.176  16.353  0.1936 -0.5005  0.5362
 7873TIP3    H145034   0.497   2.201  16.261 -1.6277 -0.5305  0.4561
 7873TIP3    H245035   0.570   2.117  16.364  2.1756  1.7172 -0.2196
 7874TIP3   OH245036   1.349   0.358   4.867 -0.1727 -0.3792 -0.1146
 7874TIP3    H145037   1.267   0.360   4.916 -0.5533 -1.7513 -0.6658
 7874TIP3    H245038   1.409   0.308   4.922 -1.0023 -3.1469 -1.5433
 7875TIP3   OH245039   1.907   1.394   4.195 -0.2006 -0.2037 -0.2266
 7875TIP3    H145040   1.935   1.425   4.109  1.3790 -1.9691 -0.4174
 7875TIP3    H245041   1.987   1.365   4.238 -0.7648  1.6638  2.3633
 7876TIP3   OH245042   1.284   6.403   2.300  0.2831 -0.2333 -0.1813
 7876TIP3    H145043   1.304   6.404   2.394 -1.1212 -0.2659  0.1327
 7876TIP3    H245044   1.220   6.333   2.289  1.0794 -0.8254 -1.3252
 7877TIP3   OH245045   0.088   5.415  13.758 -0.0242 -0.1310  0.2424
 7877TIP3    H145046   0.080   5.426  13.852 -1.1403 -1.9970  0.4150
 7877TIP3    H245047   0.182   5.413  13.741  0.1810  0.5933  1.2499
 7878TIP3   OH245048   5.413   2.295   1.947 -0.5232  0.1709 -0.1576
 7878TIP3    H145049   5.384   2.386   1.955 -0.5840  0.0137  1.8989
 7878TIP3    H245050   5.379   2.252   2.025  0.4387 -1.3723 -0.5411
 7879TIP3   OH245051   6.358   6.450   4.672 -0.4972 -0.1940  0.5212
 7879TIP3    H145052   6.268   6.464   4.644 -0.3183  0.5854  0.3296
 7879TIP3    H245053   6.406   6.436   4.591 -0.0916  1.4263  0.4621
 7880TIP3   OH245054   4.163   4.383  10.818 -0.4232 -0.0535  0.4398
 7880TIP3    H145055   4.183   4.293  10.792 -0.6333  0.2302 -0.7552
 7880TIP3    H245056   4.075   4.377  10.856 -0.6330 -0.2765 -0.0735
 7881TIP3   OH245057   1.843   2.148  16.075 -0.1567 -0.4970 -0.2878
 7881TIP3    H145058   1.919   2.173  16.128 -0.8092 -1.1811  1.0420
 7881TIP3    H245059   1.788   2.227  16.074 -0.6879 -0.8223  1.1018
 7882TIP3   OH245060   4.625   0.967   1.387 -0.2135  0.0408 -0.0619
 7882TIP3    H145061   4.664   1.041   1.435  0.4991 -0.5369  0.2690
 7882TIP3    H245062   4.578   1.008   1.314 -1.6215  0.9760  1.2904
 7883TIP3   OH245063   5.331   3.492  14.434 -0.6285 -0.1288 -0.1896
 7883TIP3    H145064   5.301   3.439  14.507 -2.1322  1.3765  0.3523
 7883TIP3    H245065   5.357   3.575  14.474  0.9148 -0.1360 -1.0981
 7884TIP3   OH245066   2.091   4.408  14.989 -0.3283  0.0955 -0.0591
 7884TIP3    H145067   2.144   4.405  14.909 -0.2779 -0.7859 -0.0053
 7884TIP3    H245068   2.027   4.338  14.978 -0.6069  0.2587  0.4820
 7885TIP3   OH245069   0.150   0.326  16.341  0.2904  0.7258  0.0314
 7885TIP3    H145070   0.140   0.373  16.423 -0.3230  3.5330 -1.5126
 7885TIP3    H245071   0.061   0.321  16.305  0.5541 -0.3632 -0.5337
 7886TIP3   OH245072   2.377   5.088   0.499  0.1024  0.0513  0.0998
 7886TIP3    H145073   2.327   5.098   0.418 -0.9962  1.9967  0.9432
 7886TIP3    H245074   2.399   5.177   0.525  1.6069 -0.6084  1.2583
 7887TIP3   OH245075   3.411   4.543   5.373 -0.1943 -0.1326 -0.0628
 7887TIP3    H145076   3.361   4.545   5.454  1.1649 -0.3187  0.8067
 7887TIP3    H245077   3.415   4.634   5.345  0.9183  0.2133  1.1145
 7888TIP3   OH245078   5.146   5.824   3.603 -0.2223 -0.1431 -0.3664
 7888TIP3    H145079   5.096   5.801   3.525 -2.2802  3.6461 -0.3868
 7888TIP3    H245080   5.194   5.903   3.578 -1.7681  1.8271  2.4112
 7889TIP3   OH245081   6.300   1.084   0.429 -0.4907  0.4885 -0.5548
 7889TIP3    H145082   6.251   1.100   0.509 -0.0937  1.7091 -0.5348
 7889TIP3    H245083   6.234   1.083   0.360 -0.7750 -0.0443 -0.2775
 7890TIP3   OH245084   6.414   3.503   3.941 -0.3963 -0.2629  0.8201
 7890TIP3    H145085   6.510   3.501   3.942 -0.3900 -2.3212  0.8997
 7890TIP3    H245086   6.390   3.532   4.029  0.1087  1.9081  0.2957
 7891TIP3   OH245087   4.883   2.553  13.334 -0.3214  0.1390 -0.0906
 7891TIP3    H145088   4.831   2.603  13.398  0.9473  0.7509  0.5050
 7891TIP3    H245089   4.821   2.491  13.296 -1.0589 -0.5399  2.0417
 7892TIP3   OH245090   1.381   0.919   4.885 -0.8949 -0.2427  0.2991
 7892TIP3    H145091   1.305   0.957   4.840 -0.2499  0.9054  0.1259
 7892TIP3    H245092   1.368   0.940   4.977  0.8384  3.1270 -0.0578
 7893TIP3   OH245093   4.820   6.576  17.275 -0.0332  0.4654  0.7552
 7893TIP3    H145094   4.792   6.667  17.268 -0.1852  0.3345 -0.6117
 7893TIP3    H245095   4.775   6.531  17.203  1.7957 -0.2068 -0.0353
 7894TIP3   OH245096   6.708   4.970  11.609 -0.3129 -0.0275 -0.5428
 7894TIP3    H145097   6.734   4.913  11.681 -0.2359 -0.7913 -1.1553
 7894TIP3    H245098   6.668   5.046  11.651 -2.5528 -1.5541  0.2597
 7895TIP3   OH245099   0.199   2.492  15.868  0.2781  0.0825  0.0330
 7895TIP3    H145100   0.172   2.481  15.777 -0.4650  0.1020  0.2479
 7895TIP3    H245101   0.118   2.509  15.916  0.3690 -2.0731  1.0578
 7896TIP3   OH245102   6.499   6.539   2.063 -0.2653 -0.2438 -0.2788
 7896TIP3    H145103   6.467   6.625   2.091  0.1272 -0.0129 -0.5278
 7896TIP3    H245104   6.492   6.485   2.141 -0.1644  0.1133 -0.0174
 7897TIP3   OH245105   3.433   0.584  14.536 -0.3211 -0.3684 -0.0074
 7897TIP3    H145106   3.481   0.503  14.521 -0.0629 -0.1023 -0.6639
 7897TIP3    H245107   3.409   0.614  14.448 -0.5440  0.1923  0.2391
 7898TIP3   OH245108   0.244   5.141  14.952  0.2351  0.2389  0.1657
 7898TIP3    H145109   0.292   5.121  14.872  0.5709  0.3097  0.3442
 7898TIP3    H245110   0.153   5.122  14.931  0.3530  0.0109 -0.1501
 7899TIP3   OH245111   6.239   5.565  12.512 -0.6625  0.7318  0.5400
 7899TIP3    H145112   6.267   5.635  12.453 -1.0128  0.0499 -0.4582
 7899TIP3    H245113   6.240   5.486  12.458 -4.2116  0.5980  0.4940
 7900TIP3   OH245114   1.702   1.130   3.657 -0.0837  0.5517  0.1815
 7900TIP3    H145115   1.682   1.145   3.564 -0.5987 -1.0912  0.0002
 7900TIP3    H245116   1.776   1.188   3.674 -0.4092  1.3870 -1.0718
 7901TIP3   OH245117   2.788   0.035  11.857 -0.5336  0.1355  0.2060
 7901TIP3    H145118   2.704   0.029  11.812 -0.7389 -0.8862  0.6878
 7901TIP3    H245119   2.775   0.100  11.926  0.0691  2.4778 -1.7452
 7902TIP3   OH245120   4.598   0.858  15.317  0.1130  0.1138 -0.4033
 7902TIP3    H145121   4.541   0.831  15.244  0.9943  0.8249 -1.3822
 7902TIP3    H245122   4.569   0.804  15.391 -2.1760  0.8101 -0.7198
 7903TIP3   OH245123   6.705   4.265  16.452 -0.1772  0.4463 -0.1542
 7903TIP3    H145124   6.654   4.236  16.528  0.7504  0.1657  0.3715
 7903TIP3    H245125   6.774   4.200  16.443 -1.4005 -0.7017 -2.4949
 7904TIP3   OH245126   3.144   4.896  12.574  0.1963  0.1035  0.4976
 7904TIP3    H145127   3.051   4.884  12.556  0.1996  0.4672  0.2374
 7904TIP3    H245128   3.188   4.831  12.520  0.1942  1.0268 -0.6366
 7905TIP3   OH245129   6.013   1.478   2.896 -0.1096  0.2820  0.2851
 7905TIP3    H145130   5.959   1.445   2.968 -0.0962 -0.9589 -0.2532
 7905TIP3    H245131   5.951   1.498   2.826  0.1015 -1.2521 -0.3747
 7906TIP3   OH245132   1.038   4.722  14.075 -0.0325 -0.5808  0.1134
 7906TIP3    H145133   1.017   4.719  14.168  1.1130  1.1664  0.4694
 7906TIP3    H245134   1.067   4.812  14.060 -1.1006 -0.5559 -2.1505
 7907TIP3   OH245135   4.393   2.659   1.964  0.2113 -0.1426 -0.3787
 7907TIP3    H145136   4.343   2.740   1.975  0.9498  0.4039 -0.8554
 7907TIP3    H245137   4.444   2.651   2.044 -0.2311 -0.4043 -0.1231
 7908TIP3   OH245138   4.710   1.320  15.650  0.2143 -0.3567  0.4252
 7908TIP3    H145139   4.617   1.341  15.657  0.2039 -0.4400  0.5558
 7908TIP3    H245140   4.749   1.397  15.609 -0.0690 -0.7472 -0.5853
 7909TIP3   OH245141   0.938   3.675   0.821  0.1362  0.3576 -0.2074
 7909TIP3    H145142   0.896   3.604   0.870  0.8583  0.9579  1.3490
 7909TIP3    H245143   0.944   3.747   0.884  0.8525  1.2589 -1.2760
 7910TIP3   OH245144   2.973   1.178  16.623 -0.4449 -0.4616 -0.3380
 7910TIP3    H145145   3.066   1.198  16.638 -0.5048 -1.7146  2.2876
 7910TIP3    H245146   2.972   1.086  16.600 -1.0567 -0.5480  0.0320
 7911TIP3   OH245147   5.310   4.920   1.121 -0.3603 -0.2058  0.1161
 7911TIP3    H145148   5.326   4.959   1.207  1.4469  1.3204 -0.8222
 7911TIP3    H245149   5.389   4.869   1.103  0.3847  1.4087 -1.5613
 7912TIP3   OH245150   3.299   4.070   5.827  0.2684 -0.1129 -0.2046
 7912TIP3    H145151   3.319   3.978   5.847  1.2232  0.2998  0.8632
 7912TIP3    H245152   3.285   4.110   5.913  2.8052  1.3896 -0.4063
 7913TIP3   OH245153   0.328   4.706   0.882 -0.0402  0.4509  0.6391
 7913TIP3    H145154   0.261   4.638   0.886 -0.2773  0.7463  3.1707
 7913TIP3    H245155   0.278   4.788   0.876  0.1892  0.5610  0.1254
 7914TIP3   OH245156   3.651   6.424  16.036 -0.4125  0.4171 -0.0256
 7914TIP3    H145157   3.735   6.463  16.060 -0.6446  1.1124 -0.3146
 7914TIP3    H245158   3.599   6.428  16.116 -0.2240  0.1162  0.1144
 7915TIP3   OH245159   4.246   1.695   4.508  0.3277 -0.2890  0.1023
 7915TIP3    H145160   4.328   1.732   4.541  0.0866 -0.7354  1.2538
 7915TIP3    H245161   4.273   1.616   4.461  0.7000  0.5063 -1.0803
 7916TIP3   OH245162   2.184   6.301  17.374 -0.5157 -0.5703 -0.8801
 7916TIP3    H145163   2.216   6.347  17.451  1.8033 -0.8053 -1.6282
 7916TIP3    H245164   2.194   6.363  17.302 -0.9655 -0.9521 -1.2878
 7917TIP3   OH245165   2.501   3.791   4.327 -0.7194 -0.2541  0.1383
 7917TIP3    H145166   2.456   3.739   4.393  1.5148  0.8502  2.7648
 7917TIP3    H245167   2.476   3.881   4.346  0.2364  0.1200 -0.2904
 7918TIP3   OH245168   0.513   0.483  13.942 -0.0056  0.0630  0.0849
 7918TIP3    H145169   0.449   0.453  14.005  0.9684 -0.0171  1.0691
 7918TIP3    H245170   0.573   0.538  13.993  0.4521  0.5033 -0.8934
 7919TIP3   OH245171   0.120   5.748  12.385  0.3100 -0.1378  0.3321
 7919TIP3    H145172   0.033   5.723  12.355 -0.2513  2.4506 -0.4351
 7919TIP3    H245173   0.105   5.791  12.469  1.1733 -1.6551  1.3309
 7920TIP3   OH245174   1.848   1.549   1.706  0.3950 -0.0387 -0.4163
 7920TIP3    H145175   1.809   1.468   1.673 -1.4341  0.1367  1.1302
 7920TIP3    H245176   1.786   1.617   1.680  1.5627  0.8152 -1.0889
 7921TIP3   OH245177   3.890   1.229   5.627  0.0301  0.5619  0.0186
 7921TIP3    H145178   3.922   1.318   5.642 -1.5895  0.9503  1.4947
 7921TIP3    H245179   3.966   1.182   5.590  1.2543  2.2327  0.2817
 7922TIP3   OH245180   1.943   0.215   3.328  0.2929  0.1740 -0.1620
 7922TIP3    H145181   1.904   0.129   3.310 -0.1849  0.6217 -1.4048
 7922TIP3    H245182   1.983   0.206   3.415 -1.1542 -0.8115  0.4470
 7923TIP3   OH245183   1.613   4.975  11.668  0.0775 -0.2644 -0.7679
 7923TIP3    H145184   1.680   4.925  11.715  0.5750  1.6353  0.6488
 7923TIP3    H245185   1.628   5.066  11.693 -1.4031  0.5195 -2.4947
 7924TIP3   OH245186   3.668   1.007  11.944 -0.1278  0.5121 -0.2281
 7924TIP3    H145187   3.649   1.003  11.850  1.5783  3.8242 -0.8856
 7924TIP3    H245188   3.619   1.084  11.975  0.6852  0.4931  1.1865
 7925TIP3   OH245189   0.897   3.550   5.047 -0.3121 -0.0932  0.2624
 7925TIP3    H145190   0.911   3.524   5.138 -0.7235 -0.4737  0.2157
 7925TIP3    H245191   0.822   3.610   5.051 -0.3267 -0.1061  0.1716
 7926TIP3   OH245192   3.527   5.362  14.106  0.3039 -0.2532  0.0778
 7926TIP3    H145193   3.564   5.414  14.177  0.3829 -0.0089 -0.1411
 7926TIP3    H245194   3.530   5.272  14.139  0.1749 -0.1234  0.4537
 7927TIP3   OH245195   5.943   3.273  15.235  0.2121 -1.3250  0.2346
 7927TIP3    H145196   5.891   3.295  15.312  1.6067 -1.7252  1.3434
 7927TIP3    H245197   5.895   3.201  15.193 -1.4877  0.0703 -0.3246
 7928TIP3   OH245198   5.005   3.510  15.549 -0.5969 -0.3302  0.0884
 7928TIP3    H145199   5.060   3.540  15.622  0.2359  1.6766 -1.2857
 7928TIP3    H245200   5.043   3.426  15.523  1.3441  0.6116 -0.2731
 7929TIP3   OH245201   3.694   1.683   4.193 -0.2419 -0.6034 -0.2848
 7929TIP3    H145202   3.723   1.724   4.111 -0.6616 -1.2087 -0.7474
 7929TIP3    H245203   3.736   1.598   4.194 -0.5700 -0.7658 -0.0732
 7930TIP3   OH245204   5.437   4.096  16.234 -0.0018  0.1477 -0.4286
 7930TIP3    H145205   5.360   4.140  16.269  0.2278  0.6964 -0.5993
 7930TIP3    H245206   5.510   4.155  16.255  0.2552  0.0547 -1.0454
 7931TIP3   OH245207   3.307   1.012   4.877 -0.6582  0.2949  0.5270
 7931TIP3    H145208   3.299   0.999   4.783 -1.4024 -0.9774  0.7387
 7931TIP3    H245209   3.243   0.953   4.915 -1.1413  1.5826  1.8134
 7932TIP3   OH245210   2.354   3.771  16.216  0.0624  0.1608  0.2225
 7932TIP3    H145211   2.321   3.747  16.303  1.0159 -1.6999  0.1121
 7932TIP3    H245212   2.445   3.741  16.215 -0.0003 -0.0763 -1.4980
 7933TIP3   OH245213   6.204   0.340  15.082 -0.1560 -0.1054 -0.0760
 7933TIP3    H145214   6.268   0.289  15.132  1.8707  1.8314 -0.5273
 7933TIP3    H245215   6.147   0.378  15.149 -0.7457 -1.6588  0.3534
 7934TIP3   OH245216   1.912   2.294  14.220  0.5275  0.4983  0.2536
 7934TIP3    H145217   1.868   2.253  14.146 -0.3179  0.9445  0.4888
 7934TIP3    H245218   1.951   2.222  14.269  0.7491  0.1673 -0.4049
 7935TIP3   OH245219   6.282   5.754  12.315  0.2501  0.4182  0.0736
 7935TIP3    H145220   6.211   5.792  12.264  0.1569  2.3668  1.5391
 7935TIP3    H245221   6.313   5.826  12.370  1.6060 -1.0810  1.3724
 7936TIP3   OH245222   4.556   5.868  16.928 -0.1901  0.1328  0.6596
 7936TIP3    H145223   4.527   5.954  16.900 -1.0719  0.0074  1.1620
 7936TIP3    H245224   4.626   5.845  16.867 -1.2891  0.3504 -0.7329
 7937TIP3   OH245225   1.797   4.973  12.122  0.3603  1.0734 -0.3024
 7937TIP3    H145226   1.810   5.058  12.164  0.3506  0.3462  1.2306
 7937TIP3    H245227   1.824   4.909  12.188  0.2430 -0.1292 -1.3797
 7938TIP3   OH245228   6.093   4.999   5.350  0.3079 -0.1035 -0.4514
 7938TIP3    H145229   6.000   5.004   5.331  0.1464  0.1210  0.3738
 7938TIP3    H245230   6.113   4.906   5.352 -0.1493 -0.1919  0.5042
 7939TIP3   OH245231   2.831   2.884   5.306 -0.1261  0.1221 -0.1449
 7939TIP3    H145232   2.913   2.922   5.340 -1.2709  0.1329  2.9771
 7939TIP3    H245233   2.856   2.797   5.275  1.0389 -0.0860  1.2291
 7940TIP3   OH245234   5.829   6.023  12.066 -0.2043  0.5991  0.1526
 7940TIP3    H145235   5.753   6.011  12.009 -0.6038  0.8919  0.6155
 7940TIP3    H245236   5.792   6.037  12.153  0.3966  0.2586  0.4712
 7941TIP3   OH245237   2.122   6.725  12.078 -0.0636  0.8238  0.5303
 7941TIP3    H145238   2.153   6.730  11.988 -0.0413 -0.4848  0.4442
 7941TIP3    H245239   2.202   6.717  12.130 -0.1167  0.6106  0.5793
 7942TIP3   OH245240   0.155   1.728   6.115 -0.3904  0.1543 -0.0177
 7942TIP3    H145241   0.075   1.685   6.084  0.4770 -1.4281 -0.1142
 7942TIP3    H245242   0.128   1.774   6.195 -1.2466 -0.9524  0.3508
 7943TIP3   OH245243   6.555   2.067  11.298  0.2623  0.1762 -0.0452
 7943TIP3    H145244   6.598   2.040  11.217 -1.6856 -1.7034 -0.5512
 7943TIP3    H245245   6.467   2.095  11.271 -1.6084 -3.4226  1.5226
 7944TIP3   OH245246   0.482   2.090   0.560  0.4828  0.2942 -0.2291
 7944TIP3    H145247   0.453   2.153   0.494 -1.4929 -0.8711 -0.5451
 7944TIP3    H245248   0.526   2.021   0.510  0.9207  0.4624 -0.0826
 7945TIP3   OH245249   1.464   4.318  12.728  0.0382  0.1779  0.0853
 7945TIP3    H145250   1.416   4.309  12.810  1.0859  3.8870  1.3347
 7945TIP3    H245251   1.556   4.318  12.754  0.4637 -0.4140 -1.3524
 7946TIP3   OH245252   3.597   5.260   3.985 -0.0354 -0.1026 -0.0375
 7946TIP3    H145253   3.623   5.349   4.009 -2.5982  0.4409  1.1145
 7946TIP3    H245254   3.657   5.204   4.034  0.0307  1.0140  1.2232
 7947TIP3   OH245255   3.237   0.378  16.933 -0.0538  0.3847 -0.1028
 7947TIP3    H145256   3.145   0.404  16.932  0.0901  0.9044 -0.4419
 7947TIP3    H245257   3.237   0.292  16.973 -0.8504 -0.2175 -1.3343
 7948TIP3   OH245258   5.031   0.850   4.170 -0.0649 -0.5839 -0.2746
 7948TIP3    H145259   5.029   0.917   4.102  2.2791  0.2231  0.3631
 7948TIP3    H245260   4.943   0.810   4.167 -1.4386  2.2246 -0.9269
 7949TIP3   OH245261   3.118   0.118   4.996  0.1128 -0.3847  0.4105
 7949TIP3    H145262   3.052   0.049   5.005 -3.1407  2.0700 -2.1658
 7949TIP3    H245263   3.096   0.182   5.063  2.8912 -1.4781  2.5520
 7950TIP3   OH245264   1.339   4.042  16.038 -0.0548  0.2357 -0.0060
 7950TIP3    H145265   1.346   3.987  16.116  1.4927  0.9270  0.3675
 7950TIP3    H245266   1.245   4.050  16.024 -0.3629 -2.3606  0.0053
 7951TIP3   OH245267   3.242   2.045   2.339 -0.0317  0.2641  0.4844
 7951TIP3    H145268   3.212   2.070   2.426  2.2975 -0.7352  1.6763
 7951TIP3    H245269   3.165   2.006   2.297 -0.9619 -0.1982  2.5068
 7952TIP3   OH245270   4.573   1.249   5.769  0.0107  0.8404  0.2664
 7952TIP3    H145271   4.584   1.312   5.840 -3.7218  1.7551  0.2799
 7952TIP3    H245272   4.587   1.300   5.690  1.1852  0.5717  0.2860
 7953TIP3   OH245273   0.572   3.439  15.363  0.0957 -0.1960 -0.0443
 7953TIP3    H145274   0.553   3.438  15.457  2.2988  1.4534  0.4960
 7953TIP3    H245275   0.548   3.527  15.335  0.7199 -0.2325 -0.7230
 7954TIP3   OH245276   0.074   2.187  11.329 -0.3631  0.2383 -0.0872
 7954TIP3    H145277  -0.006   2.165  11.378 -1.3512  0.2201 -1.6251
 7954TIP3    H245278   0.048   2.264  11.277  1.1732  1.3160  0.6849
 7955TIP3   OH245279   5.220   6.260   2.812  0.4461  0.4705 -0.3792
 7955TIP3    H145280   5.228   6.348   2.774 -0.8123  0.0672 -1.6913
 7955TIP3    H245281   5.238   6.272   2.905 -0.2046  2.2111 -0.4412
 7956TIP3   OH245282   1.993   4.181  17.203  0.2331 -0.0956  0.6712
 7956TIP3    H145283   1.918   4.234  17.174  1.0270  0.5067 -0.3298
 7956TIP3    H245284   1.974   4.163  17.295  0.2378  2.5293  1.2770
 7957TIP3   OH245285   2.143   1.789   1.181 -0.3932 -0.5090 -0.5034
 7957TIP3    H145286   2.114   1.721   1.242  2.0033 -0.6039  0.6618
 7957TIP3    H245287   2.164   1.741   1.100  0.1672 -1.0050 -0.0767
 7958TIP3   OH245288   6.349   2.797  13.661 -0.3406  0.4394 -0.1322
 7958TIP3    H145289   6.419   2.746  13.622 -2.9059 -1.6722 -2.3195
 7958TIP3    H245290   6.294   2.824  13.587 -1.5368  2.5389  1.4050
 7959TIP3   OH245291   2.110   5.543  11.989  0.2472  0.5880 -0.0711
 7959TIP3    H145292   2.098   5.607  12.060  0.8402  0.6977 -0.0667
 7959TIP3    H245293   2.079   5.589  11.911 -1.3915  0.1131  0.2432
 7960TIP3   OH245294   3.226   3.145  16.085  0.1868  0.3182  0.4015
 7960TIP3    H145295   3.218   3.147  15.989  0.7209 -0.1025  0.3423
 7960TIP3    H245296   3.177   3.221  16.115  0.3804  0.7021 -0.2392
 7961TIP3   OH245297   2.577   0.095  11.501  0.5028 -0.3358  0.2576
 7961TIP3    H145298   2.669   0.121  11.505  0.8405 -1.3790 -0.3045
 7961TIP3    H245299   2.560   0.085  11.407 -0.2387  0.0093  0.3478
 7962TIP3   OH245300   1.297   4.292  16.565 -0.0881  0.0654 -0.1979
 7962TIP3    H145301   1.282   4.385  16.548 -1.6206  0.3620  2.1856
 7962TIP3    H245302   1.319   4.255  16.480  1.8110  2.7887 -1.0281
 7963TIP3   OH245303   6.309   2.298   0.807  0.3450 -0.4047  0.1858
 7963TIP3    H145304   6.303   2.381   0.759  3.4249  0.9293  1.7984
 7963TIP3    H245305   6.273   2.318   0.893 -0.0626 -1.1120  0.1784
 7964TIP3   OH245306   3.836   3.576  12.240  0.5383 -0.1335  0.3430
 7964TIP3    H145307   3.743   3.579  12.264 -0.0934 -3.2512 -1.1915
 7964TIP3    H245308   3.844   3.640  12.169 -1.3009 -1.9661 -1.6827
 7965TIP3   OH245309   0.294   1.811   0.748  0.7458  0.0215  0.2106
 7965TIP3    H145310   0.387   1.796   0.733  0.6063  0.1732 -0.9048
 7965TIP3    H245311   0.250   1.755   0.684  0.0896  0.3390  0.3736
 7966TIP3   OH245312   5.595   5.924   5.380 -0.1652 -0.5739 -0.6187
 7966TIP3    H145313   5.666   5.925   5.444 -0.1742 -0.0191 -0.6112
 7966TIP3    H245314   5.522   5.881   5.426 -0.8155  1.5430  0.4750
 7967TIP3   OH245315   5.404   2.897  16.913  0.6930 -0.6037 -0.3514
 7967TIP3    H145316   5.397   2.854  16.828  1.0281 -0.2741 -0.5511
 7967TIP3    H245317   5.394   2.826  16.977  0.2425 -0.8206 -0.6627
 7968TIP3   OH245318   1.482   4.909  14.310 -0.3640  0.1551 -0.1836
 7968TIP3    H145319   1.550   4.956  14.263 -0.1558  0.5693  0.5261
 7968TIP3    H245320   1.498   4.928  14.402  0.1235 -1.8384  0.1759
 7969TIP3   OH245321   1.911   4.917   4.907 -0.8437 -0.0040  0.0902
 7969TIP3    H145322   1.947   4.880   4.988 -1.0894  0.6516  0.5035
 7969TIP3    H245323   1.987   4.928   4.850 -0.2359  2.0659  1.2237
 7970TIP3   OH245324   5.731   5.970  10.919  0.2287 -0.3029 -1.2130
 7970TIP3    H145325   5.784   6.044  10.887  1.6992 -0.3395  0.9573
 7970TIP3    H245326   5.750   5.965  11.012 -5.0499  0.8150  0.2511
 7971TIP3   OH245327   2.530   2.394  16.853 -0.4841 -0.5065 -0.1469
 7971TIP3    H145328   2.507   2.485  16.838 -2.1614 -0.7985  0.3842
 7971TIP3    H245329   2.450   2.355  16.888 -0.0111 -2.3412 -0.9824
 7972TIP3   OH245330   5.353   4.415  14.061  0.0206  0.0595 -0.1795
 7972TIP3    H145331   5.297   4.417  13.983  0.5159  0.4121 -0.5296
 7972TIP3    H245332   5.432   4.369  14.033  0.3730  0.5540  0.0033
 7973TIP3   OH245333   5.882   1.281  16.657 -0.5004  0.0385 -0.2202
 7973TIP3    H145334   5.927   1.354  16.615 -0.3905 -0.2103 -0.5409
 7973TIP3    H245335   5.801   1.271  16.607  0.4410 -1.4120 -1.5506
 7974TIP3   OH245336   5.884   3.769   6.415  0.1827  0.2072 -0.0921
 7974TIP3    H145337   5.923   3.821   6.485 -0.6124  1.2780 -0.4183
 7974TIP3    H245338   5.958   3.742   6.361  0.8733 -1.1075  1.4393
 7975TIP3   OH245339   3.764   6.652  15.605  0.0027 -0.2059 -0.4589
 7975TIP3    H145340   3.706   6.613  15.670 -0.4190  0.9190 -0.1298
 7975TIP3    H245341   3.714   6.648  15.523 -0.9584  1.5498 -0.0124
 7976TIP3   OH245342   6.143   1.462   3.390  0.2470  0.4547  0.0781
 7976TIP3    H145343   6.134   1.431   3.300 -0.2743 -0.3531  0.3981
 7976TIP3    H245344   6.105   1.550   3.389  1.4689  0.9961 -0.7736
 7977TIP3   OH245345   5.977   5.339  16.626  0.5106 -0.2090  0.0259
 7977TIP3    H145346   5.887   5.371  16.622 -0.1301 -1.7740  0.6745
 7977TIP3    H245347   5.976   5.258  16.575  2.0725  0.7691 -1.6430
 7978TIP3   OH245348   3.121   0.823  10.762 -0.0224  0.8826 -0.5075
 7978TIP3    H145349   3.145   0.862  10.846  0.2878  1.7835 -1.0088
 7978TIP3    H245350   3.116   0.896  10.701 -1.0242  0.3392 -1.1106
 7979TIP3   OH245351   6.294   6.675   5.220  0.4111 -0.1386  0.6320
 7979TIP3    H145352   6.270   6.764   5.248 -1.0954  0.3478 -1.8405
 7979TIP3    H245353   6.217   6.622   5.241 -0.6424  0.1827 -2.0087
 7980TIP3   OH245354   5.493   6.660  11.685  0.5206  0.1859 -0.4068
 7980TIP3    H145355   5.555   6.616  11.742  0.6957  1.6156  0.5474
 7980TIP3    H245356   5.508   6.754  11.700 -0.8445  0.5744 -1.2555
 7981TIP3   OH245357   2.239   1.395  15.124  0.2893  0.3465  0.8305
 7981TIP3    H145358   2.298   1.470  15.114  0.3870  0.1333 -0.3375
 7981TIP3    H245359   2.155   1.434  15.150 -0.3413  1.1778 -2.0512
 7982TIP3   OH245360   3.455   5.828   0.745  0.3616  0.5483  0.9771
 7982TIP3    H145361   3.365   5.801   0.761  0.7418 -1.6010 -0.0755
 7982TIP3    H245362   3.458   5.849   0.652  1.2478 -0.9680  0.6255
 7983TIP3   OH245363   3.394   6.687   6.481 -0.1549 -0.6329 -0.0075
 7983TIP3    H145364   3.320   6.748   6.482  0.2183 -0.1290 -1.1165
 7983TIP3    H245365   3.443   6.707   6.561  0.7769  1.6265 -1.0365
 7984TIP3   OH245366   2.130   5.102  17.057  0.3044  0.1914  0.3041
 7984TIP3    H145367   2.202   5.047  17.089 -0.4212 -0.3926  0.9658
 7984TIP3    H245368   2.136   5.096  16.962  1.0619  0.0576  0.3515
 7985TIP3   OH245369   0.014   5.930  17.166  0.5026 -0.6081 -0.3442
 7985TIP3    H145370   0.002   5.844  17.127 -0.3300 -0.5477 -0.2281
 7985TIP3    H245371  -0.017   5.992  17.099  0.4347 -0.4307 -0.1494
 7986TIP3   OH245372   6.630   6.197   4.672  0.0778 -0.3330  0.1928
 7986TIP3    H145373   6.635   6.288   4.644 -0.0414 -0.1346  0.8167
 7986TIP3    H245374   6.715   6.160   4.648  2.0471  1.1323  4.0472
 7987TIP3   OH245375   1.640   2.321   5.472  0.2162  0.4290  0.3405
 7987TIP3    H145376   1.733   2.338   5.488  0.3888 -1.2382  1.2854
 7987TIP3    H245377   1.632   2.226   5.470 -1.5383  0.5277  0.7087
 7988TIP3   OH245378   5.843   2.808   3.785 -0.5581 -0.2652  0.1691
 7988TIP3    H145379   5.796   2.878   3.830 -0.6802 -0.9015  1.0609
 7988TIP3    H245380   5.789   2.787   3.709 -1.5909 -0.7790  1.0161
 7989TIP3   OH245381   3.092   6.688  13.256 -0.7491 -0.6567  0.1272
 7989TIP3    H145382   3.051   6.738  13.186  0.0679 -1.5640 -1.0538
 7989TIP3    H245383   3.131   6.612  13.211  0.8445 -0.6319  1.3852
 7990TIP3   OH245384   0.358   4.376   5.519 -0.0446 -0.4609 -0.6836
 7990TIP3    H145385   0.326   4.446   5.463  1.6240  0.1514 -0.9011
 7990TIP3    H245386   0.341   4.296   5.469 -1.1818 -0.1714 -0.7921
 7991TIP3   OH245387   3.527   1.545  14.616  0.2608 -0.0279  0.1964
 7991TIP3    H145388   3.545   1.632  14.650  2.0409 -0.6745  1.0048
 7991TIP3    H245389   3.523   1.557  14.521  1.8130  0.7472  0.2002
 7992TIP3   OH245390   4.949   3.588  13.960 -0.2337  0.1741  0.2094
 7992TIP3    H145391   5.000   3.507  13.954 -0.4771  0.0324  0.0213
 7992TIP3    H245392   4.864   3.566  13.921 -0.4131  0.4286  0.4523
 7993TIP3   OH245393   2.714   1.085   5.958  0.0803  0.3214  0.0312
 7993TIP3    H145394   2.706   1.174   5.924 -0.6477 -0.1314 -1.0668
 7993TIP3    H245395   2.789   1.088   6.017 -0.6190  1.9195  0.9040
 7994TIP3   OH245396   3.880   3.566   1.577 -0.0911  0.5421  0.0403
 7994TIP3    H145397   3.876   3.476   1.608  1.9608 -1.0413 -3.6097
 7994TIP3    H245398   3.965   3.598   1.609 -0.7562  1.1648  1.2162
 7995TIP3   OH245399   3.819   6.175  17.255  0.0877  0.8218  0.8071
 7995TIP3    H145400   3.789   6.197  17.343 -0.2064  0.5737  0.7726
 7995TIP3    H245401   3.908   6.209  17.251  0.6325 -0.4178  1.6952
 7996TIP3   OH245402   5.108   3.854  15.125  0.5168 -0.5917  0.2811
 7996TIP3    H145403   5.148   3.791  15.065  2.6985  0.5316  0.4760
 7996TIP3    H245404   5.117   3.814  15.211 -0.5491 -1.1629  0.1584
 7997TIP3   OH245405   6.264   4.790  16.249  0.2708  0.2020  0.0166
 7997TIP3    H145406   6.288   4.800  16.157  0.7818 -0.9452  0.0054
 7997TIP3    H245407   6.334   4.836  16.296  2.3194 -2.6098 -0.0450
 7998TIP3   OH245408   5.164   2.817  16.522 -0.3226 -0.0112  0.2778
 7998TIP3    H145409   5.102   2.878  16.483  1.1981  0.5051 -1.4569
 7998TIP3    H245410   5.185   2.755  16.452  2.7665  1.1412  0.0328
 7999TIP3   OH245411   0.906   6.215  15.412  0.0932  0.5185  0.1318
 7999TIP3    H145412   0.903   6.239  15.320 -0.4110 -0.2744 -0.0698
 7999TIP3    H245413   0.976   6.269  15.449  1.4535 -0.3627 -1.0554
 8000TIP3   OH245414   6.019   2.622  16.591 -0.3553 -0.2248 -0.0229
 8000TIP3    H145415   5.988   2.634  16.502  2.5646 -0.0882 -1.1330
 8000TIP3    H245416   6.000   2.530  16.611  1.8281 -1.2428 -2.1293
 8001TIP3   OH245417   1.088   4.661  14.730  0.1498  0.5149 -0.0408
 8001TIP3    H145418   0.993   4.676  14.729  0.2338  1.0503 -0.4032
 8001TIP3    H245419   1.117   4.700  14.813 -0.1187 -0.8056  0.6974
 8002TIP3   OH245420   0.418   3.840   4.879  0.1212 -0.0745  0.0297
 8002TIP3    H145421   0.507   3.868   4.899  0.1475 -0.3938  0.3630
 8002TIP3    H245422   0.369   3.856   4.960 -0.2760  0.7174 -0.3559
 8003TIP3   OH245423   5.603   3.829   1.276 -0.1889  0.4843 -0.1931
 8003TIP3    H145424   5.566   3.871   1.198  0.5212 -1.3126 -1.5829
 8003TIP3    H245425   5.675   3.776   1.242  0.9842  0.6415  1.8850
 8004TIP3   OH245426   5.696   4.126  10.831 -0.3555  0.6122  0.0736
 8004TIP3    H145427   5.621   4.181  10.810 -0.1194  0.6761 -0.6076
 8004TIP3    H245428   5.750   4.180  10.888 -0.2634  0.9786 -0.3639
 8005TIP3   OH245429   3.059   3.688   3.584  0.5884  0.1889 -0.7939
 8005TIP3    H145430   3.030   3.761   3.531 -1.0126 -1.1219 -1.8341
 8005TIP3    H245431   2.984   3.668   3.641  1.8859  0.8931  1.2790
 8006TIP3   OH245432   3.546   0.065   4.612 -0.1841  0.1506 -0.3766
 8006TIP3    H145433   3.464   0.090   4.654 -0.8852 -0.2295 -1.4890
 8006TIP3    H245434   3.613   0.087   4.677 -1.0553  1.4967  0.1209
 8007TIP3   OH245435   1.026   4.015   5.132 -0.4002  0.4330 -0.1676
 8007TIP3    H145436   1.087   4.010   5.206 -1.1994 -0.2872  0.4464
 8007TIP3    H245437   0.996   4.106   5.133 -0.4567  0.4146  0.4397
 8008TIP3   OH245438   6.253   4.618  11.564  0.4746 -0.2135  0.0083
 8008TIP3    H145439   6.208   4.694  11.527  1.9459  0.5106 -0.3723
 8008TIP3    H245440   6.218   4.611  11.653  0.3900  0.9733  0.0862
 8009TIP3   OH245441   2.753   0.300   0.764 -0.2476  0.2269  0.1587
 8009TIP3    H145442   2.702   0.336   0.837  0.8690  1.3499  0.4083
 8009TIP3    H245443   2.830   0.261   0.805  0.0763  0.3083 -0.3609
 8010TIP3   OH245444   0.015   0.799   1.505  0.2068 -0.6922  0.2914
 8010TIP3    H145445   0.056   0.841   1.429 -0.7980 -0.6842 -0.2637
 8010TIP3    H245446  -0.067   0.763   1.471  0.4823 -2.0783  1.0227
 8011TIP3   OH245447   1.944   0.762  10.744  0.0078 -0.2948 -0.2558
 8011TIP3    H145448   1.911   0.830  10.686 -0.1230  1.0429  1.3132
 8011TIP3    H245449   2.039   0.775  10.747  0.2164 -1.3622 -1.3471
 8012TIP3   OH245450   5.965   2.669   0.755  0.0221  0.1916 -0.4473
 8012TIP3    H145451   5.921   2.741   0.710 -2.5230  0.4225  2.1220
 8012TIP3    H245452   5.957   2.690   0.848 -0.0583 -2.9426  0.3807
 8013TIP3   OH245453   6.272   4.272   1.877 -0.2544  0.5643 -1.1518
 8013TIP3    H145454   6.273   4.364   1.901  0.1825  0.2507  0.1081
 8013TIP3    H245455   6.308   4.227   1.953 -0.5298 -0.6573 -1.7183
 8014TIP3   OH245456   3.740   0.143  13.020  0.1252  0.4855 -0.4952
 8014TIP3    H145457   3.742   0.067  13.077 -2.6612  1.2127  0.7772
 8014TIP3    H245458   3.806   0.202  13.056 -0.0607  0.0243  0.6415
 8015TIP3   OH245459   3.846   6.732   3.558  0.0739  0.3833 -0.5812
 8015TIP3    H145460   3.764   6.706   3.516  0.0898  0.8854 -0.9367
 8015TIP3    H245461   3.848   6.827   3.550 -0.0017  0.5149  0.7107
 8016TIP3   OH245462   0.986   1.982   3.670 -0.1096  0.0495  0.2424
 8016TIP3    H145463   1.002   2.006   3.762  2.8011 -0.8765  0.0952
 8016TIP3    H245464   1.045   1.908   3.654 -0.3944  0.2978 -2.4292
 8017TIP3   OH245465   3.385   6.344   3.709  0.0769  0.3898  0.1924
 8017TIP3    H145466   3.440   6.311   3.638 -0.5840  0.4045 -0.3395
 8017TIP3    H245467   3.436   6.328   3.788 -0.2485 -2.0404 -0.0106
 8018TIP3   OH245468   0.697   2.464  11.663  0.3152 -0.5154  0.3135
 8018TIP3    H145469   0.748   2.476  11.583 -1.8196 -1.5519 -1.3129
 8018TIP3    H245470   0.738   2.389  11.707 -0.1399 -1.7724 -1.2992
 8019TIP3   OH245471   1.270   0.802  10.870  1.1013 -0.1484  0.3834
 8019TIP3    H145472   1.177   0.780  10.878  0.6543  2.0535  2.2742
 8019TIP3    H245473   1.300   0.813  10.960  1.8991  3.8223 -0.1788
 8020TIP3   OH245474   6.477   3.284  13.235  0.3528 -0.0336 -0.0449
 8020TIP3    H145475   6.479   3.326  13.321  1.2909  2.0102 -0.9977
 8020TIP3    H245476   6.565   3.298  13.199 -0.4500  0.4665 -1.9234
 8021TIP3   OH245477   6.022   5.018   6.196  0.1758 -0.2616 -0.2188
 8021TIP3    H145478   6.058   5.024   6.107 -0.0904  0.1844 -0.3017
 8021TIP3    H245479   6.009   4.924   6.210 -1.0614 -0.2653 -1.1839
 8022TIP3   OH245480   2.516   4.954   2.444  0.1487  0.2854  0.0465
 8022TIP3    H145481   2.553   4.960   2.356  2.0769 -0.4455  0.7437
 8022TIP3    H245482   2.441   5.013   2.443 -0.5396 -0.5248 -2.3897
 8023TIP3   OH245483   3.638   5.853  15.042 -0.3021 -0.1877 -0.1914
 8023TIP3    H145484   3.671   5.837  15.131 -0.3182 -1.1679 -0.3495
 8023TIP3    H245485   3.700   5.806  14.986  0.8111  1.9466 -0.8669
 8024TIP3   OH245486   6.632   5.732   4.388 -0.0492  0.8057  0.1745
 8024TIP3    H145487   6.648   5.710   4.480  0.1457  2.6615  0.6385
 8024TIP3    H245488   6.544   5.697   4.371 -0.9234  2.0826  1.6976
 8025TIP3   OH245489   6.600   5.847   4.723 -0.3324 -0.3621  0.3230
 8025TIP3    H145490   6.637   5.864   4.809  2.5399 -0.3628 -0.7803
 8025TIP3    H245491   6.625   5.757   4.703 -1.1873 -0.4541 -0.4025
 8026TIP3   OH245492   5.958   0.024  17.277  0.1430  0.0574  0.3417
 8026TIP3    H145493   5.974   0.118  17.274  0.4244  0.0463  1.3394
 8026TIP3    H245494   5.873   0.013  17.234  0.1154  0.7617  0.2034
 8027TIP3   OH245495   0.958   5.932  15.840 -0.3254  0.0633 -0.7911
 8027TIP3    H145496   0.974   5.928  15.934  1.2962  0.3171 -1.0267
 8027TIP3    H245497   0.990   6.019  15.815 -1.0092  0.1099 -1.5431
 8028TIP3   OH245498   6.434   6.195   1.887 -0.1435  0.2230  0.1190
 8028TIP3    H145499   6.432   6.241   1.803 -1.4406  0.1830  0.1124
 8028TIP3    H245500   6.527   6.189   1.908  0.1550  1.1326 -0.8207
 8029TIP3   OH245501   0.583   4.799  15.502 -0.8296 -0.2304  0.0158
 8029TIP3    H145502   0.531   4.754  15.435 -0.2373 -0.9294  0.0060
 8029TIP3    H245503   0.654   4.737  15.522  0.4983  1.0297 -0.6107
 8030TIP3   OH245504   1.141   4.857   2.196  0.3619 -0.6033  0.1746
 8030TIP3    H145505   1.064   4.807   2.169  0.7831 -0.7686 -0.7318
 8030TIP3    H245506   1.133   4.863   2.291 -2.0713  1.4939 -0.0527
 8031TIP3   OH245507   6.038   1.014   2.057  0.1123  0.4356  0.1096
 8031TIP3    H145508   5.962   0.986   2.007  1.3811 -0.9805 -1.0945
 8031TIP3    H245509   6.059   1.101   2.023  0.4692 -0.1755 -1.3025
 8032TIP3   OH245510   2.274   1.246   5.803  0.1298  0.4494  0.1607
 8032TIP3    H145511   2.294   1.336   5.826  1.9452  0.5056 -1.4566
 8032TIP3    H245512   2.345   1.219   5.745  0.0143 -2.2421  1.1106
 8033TIP3   OH245513   3.411   1.266  15.925  0.3402  0.0110 -0.1607
 8033TIP3    H145514   3.449   1.262  16.012  1.1418 -1.4113 -0.5445
 8033TIP3    H245515   3.316   1.267  15.941  0.4609  2.0105  0.7493
 8034TIP3   OH245516   3.526   4.119  10.859  0.2673  0.0967 -0.5275
 8034TIP3    H145517   3.527   4.103  10.953 -1.8804  2.6085  0.0531
 8034TIP3    H245518   3.607   4.167  10.842  1.7982 -2.3296 -0.4772
 8035TIP3   OH245519   5.992   5.993   3.689 -0.3462 -0.4059  0.5222
 8035TIP3    H145520   5.920   5.959   3.742  0.9598 -0.6870  2.2139
 8035TIP3    H245521   6.034   6.059   3.745  1.6907 -1.4126  0.2721
 8036TIP3   OH245522   2.050   1.657  15.336  0.5317 -0.4626 -0.9184
 8036TIP3    H145523   2.033   1.588  15.400  1.7282  1.0696  1.1606
 8036TIP3    H245524   2.017   1.621  15.253 -0.3932 -2.8257  0.3742
 8037TIP3   OH245525   6.076   5.497   5.564  0.2219  0.2751  0.3713
 8037TIP3    H145526   6.020   5.486   5.641 -1.5432  2.1792 -0.5624
 8037TIP3    H245527   6.051   5.425   5.506 -1.0163  0.9000  0.1163
 8038TIP3   OH245528   5.422   5.921  13.485 -0.2575  0.0649 -0.0504
 8038TIP3    H145529   5.335   5.958  13.479 -1.1551 -1.5841  1.6926
 8038TIP3    H245530   5.479   5.985  13.443 -1.8731  2.6533  1.4837
 8039TIP3   OH245531   0.978   2.822   0.545  0.0972 -0.2412  0.2904
 8039TIP3    H145532   1.002   2.899   0.597 -1.2914  1.2309 -1.1136
 8039TIP3    H245533   0.984   2.852   0.454 -0.1894 -1.9037 -0.3009
 8040TIP3   OH245534   3.416   5.068   6.186 -0.3468  0.4308 -0.3769
 8040TIP3    H145535   3.387   5.150   6.225  0.1537  1.7237 -2.5477
 8040TIP3    H245536   3.454   5.093   6.102  2.9844 -1.6077  0.2868
 8041TIP3   OH245537   4.460   6.430   0.719  0.4093  0.2582  0.1093
 8041TIP3    H145538   4.507   6.383   0.651 -0.0191  0.1483 -0.1173
 8041TIP3    H245539   4.527   6.478   0.767  0.7141  0.3225 -0.3843
 8042TIP3   OH245540   2.203   4.443   3.148 -0.1508  0.2786  0.1693
 8042TIP3    H145541   2.217   4.431   3.054 -1.5175  2.4166 -0.3743
 8042TIP3    H245542   2.145   4.371   3.173  0.3409 -0.3980 -0.5661
 8043TIP3   OH245543   1.230   4.387  15.113  0.0803 -0.1893 -0.4272
 8043TIP3    H145544   1.255   4.473  15.078  1.3534 -0.2922  0.1558
 8043TIP3    H245545   1.302   4.330  15.086 -0.7402 -1.0697 -0.7736
 8044TIP3   OH245546   4.080   4.694   6.737  0.4120  0.1202 -0.1060
 8044TIP3    H145547   4.035   4.626   6.687  0.3465  0.3074 -0.3069
 8044TIP3    H245548   4.171   4.664   6.742  1.2879  1.7075 -3.4093
 8045TIP3   OH245549   6.399   1.478  12.143  0.0619 -0.2197 -0.5957
 8045TIP3    H145550   6.312   1.517  12.140 -0.4967 -1.3247  0.6606
 8045TIP3    H245551   6.458   1.549  12.115 -1.2309  0.4929 -1.5955
 8046TIP3   OH245552   6.190   3.761  15.694 -0.2585 -0.1152  0.4396
 8046TIP3    H145553   6.193   3.673  15.732 -0.4940 -0.5415 -0.4831
 8046TIP3    H245554   6.233   3.817  15.758  3.1670 -1.4639 -0.4627
 8047TIP3   OH245555   0.421   6.447  12.499 -0.4699  0.5500  0.7284
 8047TIP3    H145556   0.502   6.490  12.469 -1.2107  0.8313 -0.9558
 8047TIP3    H245557   0.452   6.374  12.553  0.9597  0.0551 -0.6604
 8048TIP3   OH245558   3.575   0.963   3.863  0.0217 -0.6992  0.0605
 8048TIP3    H145559   3.501   1.019   3.886 -0.6058 -1.6088  0.2792
 8048TIP3    H245560   3.563   0.944   3.770  0.3579 -0.2905 -0.0674
 8049TIP3   OH245561   0.441   2.803   3.946 -0.5161 -0.0082 -0.2899
 8049TIP3    H145562   0.372   2.811   3.880 -0.3334  1.6586 -0.3412
 8049TIP3    H245563   0.425   2.876   4.006  1.5247  0.7928 -0.6443
 8050TIP3   OH245564   2.479   1.440  12.267 -0.0773  0.1735  0.0977
 8050TIP3    H145565   2.432   1.440  12.184 -1.8067  0.3821  1.0027
 8050TIP3    H245566   2.565   1.476  12.247 -0.8013  1.1604 -1.4139
 8051TIP3   OH245567   6.101   0.591  14.716  0.1678  0.0799 -0.5468
 8051TIP3    H145568   6.035   0.546  14.664  1.3155 -1.6388 -0.5931
 8051TIP3    H245569   6.153   0.640  14.652 -0.1187  0.2112 -0.6805
 8052TIP3   OH245570   2.904   5.133   4.723 -0.1171 -0.4988 -0.0385
 8052TIP3    H145571   2.919   5.058   4.780  0.6255 -0.3923 -0.0890
 8052TIP3    H245572   2.991   5.172   4.710  0.2153 -2.0109 -3.3495
 8053TIP3   OH245573   6.740   5.717  13.282  0.9040  0.0702 -0.2043
 8053TIP3    H145574   6.690   5.640  13.253  0.7846  0.1770 -0.2847
 8053TIP3    H245575   6.738   5.712  13.378 -1.4617  1.4423 -0.1047
 8054TIP3   OH245576   2.894   6.266  12.689 -0.1074 -0.1749 -0.5097
 8054TIP3    H145577   2.802   6.246  12.706  0.0094  0.4731  1.0820
 8054TIP3    H245578   2.930   6.185  12.654 -0.8267 -1.0966  0.8040
 8055TIP3   OH245579   4.838   3.513   2.743  0.1382  0.0197 -0.1030
 8055TIP3    H145580   4.914   3.483   2.794  0.6449  1.9274  0.3234
 8055TIP3    H245581   4.800   3.583   2.796 -2.5959 -1.5587  0.1878
 8056TIP3   OH245582   2.461   3.000  15.238  0.2658  0.2811 -0.4179
 8056TIP3    H145583   2.398   3.072  15.232  0.0159  0.0571 -0.4989
 8056TIP3    H245584   2.468   2.966  15.149 -0.0382 -0.1485 -0.2832
 8057TIP3   OH245585   6.305   4.316  12.632 -0.5435  0.0136  0.1333
 8057TIP3    H145586   6.335   4.318  12.723 -0.2660  1.0183  0.0342
 8057TIP3    H245587   6.383   4.298  12.581 -0.0692  2.4084 -0.1071
 8058TIP3   OH245588   0.017   5.139   3.644  0.3579  0.2501  0.0482
 8058TIP3    H145589   0.105   5.175   3.659  0.0060  1.2658 -0.2111
 8058TIP3    H245590   0.010   5.132   3.549 -0.0499  0.7352  0.0374
 8059TIP3   OH245591   2.459   4.193  11.843 -0.5022  0.1820  0.1303
 8059TIP3    H145592   2.524   4.125  11.862  0.7776  1.2380 -0.2815
 8059TIP3    H245593   2.377   4.146  11.831  0.1264 -1.1777  0.9360
 8060TIP3   OH245594   1.816   1.699  15.825 -0.6115 -0.2725  0.1248
 8060TIP3    H145595   1.830   1.712  15.731  0.0658 -0.4567  0.1933
 8060TIP3    H245596   1.869   1.767  15.866 -0.3415 -0.6406  0.3892
 8061TIP3   OH245597   4.543   4.597   3.851  0.2349  0.4902 -0.2956
 8061TIP3    H145598   4.590   4.669   3.893  0.2178  0.2769  0.0932
 8061TIP3    H245599   4.612   4.538   3.822  0.1975 -0.0320  0.6552
 8062TIP3   OH245600   1.720   4.498  11.187  0.1063 -0.7052  0.0662
 8062TIP3    H145601   1.706   4.440  11.113 -2.1510  0.0961 -0.2134
 8062TIP3    H245602   1.687   4.449  11.262  1.5593 -1.1613  0.4369
 8063TIP3   OH245603   2.736   5.272   0.774 -0.3839  0.4547 -0.1527
 8063TIP3    H145604   2.641   5.276   0.768 -0.4435  1.7035  1.1754
 8063TIP3    H245605   2.767   5.310   0.692 -1.0448  1.8234  0.2146
 8064TIP3   OH245606   1.822   0.330  13.541  0.4609 -0.0649 -0.0766
 8064TIP3    H145607   1.810   0.394  13.471 -0.9330 -0.0157  0.1870
 8064TIP3    H245608   1.738   0.284  13.547  0.6023 -0.1778  1.4420
 8065TIP3   OH245609   0.078   1.928   0.964  0.1555  0.8809  0.1475
 8065TIP3    H145610   0.127   1.977   0.898 -1.0694  2.8067  0.5987
 8065TIP3    H245611  -0.006   1.907   0.921 -0.3170  1.4048  0.8034
 8066TIP3   OH245612   6.605   4.092   4.019  0.3250 -0.3542  0.3119
 8066TIP3    H145613   6.541   4.159   3.998  0.8407  0.1493  0.3132
 8066TIP3    H245614   6.594   4.076   4.112  0.8925  0.4879  0.5363
 8067TIP3   OH245615   4.593   2.431   5.171 -0.4325  0.6663 -0.0963
 8067TIP3    H145616   4.613   2.524   5.159  1.0464  0.1603 -1.9578
 8067TIP3    H245617   4.677   2.390   5.192 -1.2174 -0.1637  1.6632
 8068TIP3   OH245618   6.604   0.378  16.774 -0.3237 -0.5166 -0.5945
 8068TIP3    H145619   6.531   0.422  16.730  0.1617  1.5929  0.5497
 8068TIP3    H245620   6.565   0.300  16.813 -2.4347  1.3646  1.3500
 8069TIP3   OH245621   6.717   0.324   3.464 -0.7420  0.4086  0.3383
 8069TIP3    H145622   6.780   0.303   3.395 -0.4344  0.3256  0.6446
 8069TIP3    H245623   6.721   0.419   3.472 -0.0926  0.3388  0.8884
 8070TIP3   OH245624   6.118   4.365   4.972  0.2611  0.3949  0.0248
 8070TIP3    H145625   6.123   4.336   4.881 -1.1004 -2.9307  0.8735
 8070TIP3    H245626   6.032   4.407   4.979  0.3956  0.7189 -0.1881
 8071TIP3   OH245627   2.165   3.205  12.504 -0.2445  0.1291  0.2155
 8071TIP3    H145628   2.236   3.194  12.568 -0.7274  2.2357  1.1685
 8071TIP3    H245629   2.121   3.286  12.529 -1.2940  0.3292 -2.0127
 8072TIP3   OH245630   6.209   4.641   5.060 -0.0160 -0.2474  0.6874
 8072TIP3    H145631   6.118   4.623   5.084  0.1635 -0.2054  1.4286
 8072TIP3    H245632   6.228   4.579   4.990  0.1648 -2.0613  2.2675
 8073TIP3   OH245633   2.292   0.117   1.269  0.3197  0.1008 -0.1120
 8073TIP3    H145634   2.215   0.166   1.299 -0.2830 -0.7492 -0.2307
 8073TIP3    H245635   2.283   0.113   1.174 -0.3575 -1.3693 -0.0090
 8074TIP3   OH245636   3.808   2.538  13.783  0.0865 -0.4401  0.6319
 8074TIP3    H145637   3.823   2.568  13.693 -0.7583  1.1711  0.9840
 8074TIP3    H245638   3.895   2.542  13.824  0.4579 -1.0672 -0.0628
 8075TIP3   OH245639   2.003   1.468  16.093 -0.3152 -1.0115 -0.3681
 8075TIP3    H145640   2.055   1.518  16.155 -2.8654  1.3594  0.0440
 8075TIP3    H245641   2.039   1.379  16.097  2.9681  0.2309  0.5350
 8076TIP3   OH245642   6.323   6.296  15.577 -0.7431  0.0179  0.2822
 8076TIP3    H145643   6.335   6.362  15.645 -3.9341  1.2765 -0.2290
 8076TIP3    H245644   6.379   6.324  15.505  0.6025  0.1683  1.3545
 8077TIP3   OH245645   2.387   1.812   3.490 -0.2929  0.0925  0.3098
 8077TIP3    H145646   2.355   1.882   3.547 -1.8339 -0.7872  0.5751
 8077TIP3    H245647   2.314   1.793   3.432  1.0727  0.6230 -1.6846
 8078TIP3   OH245648   2.798   6.352   1.404 -0.2572  0.9292  0.4094
 8078TIP3    H145649   2.708   6.346   1.373  0.0654  0.5495 -0.4787
 8078TIP3    H245650   2.843   6.277   1.364  0.2470  0.5815  1.5763
 8079TIP3   OH245651   4.678   0.317  12.961 -0.0697 -0.0597 -0.0371
 8079TIP3    H145652   4.624   0.251  13.004 -1.0528  0.1745 -0.8756
 8079TIP3    H245653   4.765   0.277  12.954 -0.8011 -1.5241 -1.1168
 8080TIP3   OH245654   0.833   0.507  15.714 -0.8794  0.2093 -0.4235
 8080TIP3    H145655   0.896   0.538  15.649 -0.9739 -0.1705 -0.7063
 8080TIP3    H245656   0.881   0.507  15.796 -0.4976 -0.1031 -0.6413
 8081TIP3   OH245657   0.388   1.507   4.250 -0.3168  0.9536 -0.0435
 8081TIP3    H145658   0.453   1.521   4.319  0.5332  0.2779 -0.6954
 8081TIP3    H245659   0.399   1.582   4.192 -0.6072  1.1991  0.2129
 8082TIP3   OH245660   5.211   4.412  16.127  0.2048 -0.2797  0.5809
 8082TIP3    H145661   5.174   4.334  16.086  0.7592 -0.0951 -0.3111
 8082TIP3    H245662   5.281   4.378  16.184 -0.8143 -0.5666  1.7042
 8083TIP3   OH245663   2.846   1.683   6.835  0.3446 -0.1457 -0.8968
 8083TIP3    H145664   2.896   1.648   6.909 -0.6960 -1.8613 -0.9530
 8083TIP3    H245665   2.910   1.732   6.784  1.4608 -0.4167  0.1995
 8084TIP3   OH245666   1.240   2.355   1.894 -0.6875  0.5602 -1.0261
 8084TIP3    H145667   1.205   2.290   1.833  1.6196 -0.4653 -1.3642
 8084TIP3    H245668   1.288   2.416   1.838 -0.5235  0.9638 -0.4496
 8085TIP3   OH245669   4.174   1.418  15.490 -0.0473 -0.0409  0.0071
 8085TIP3    H145670   4.235   1.346  15.472  0.7979  0.0373  2.3068
 8085TIP3    H245671   4.230   1.492  15.511 -0.8513 -0.1028  2.7245
 8086TIP3   OH245672   1.950   6.083   5.440 -0.7512  0.9434 -0.0080
 8086TIP3    H145673   2.016   6.049   5.380 -1.5366 -0.2759 -0.2280
 8086TIP3    H245674   1.873   6.099   5.385 -0.6298  2.4492  0.2232
 8087TIP3   OH245675   0.542   5.472  16.299 -0.2569 -0.2698 -0.2672
 8087TIP3    H145676   0.636   5.478  16.315 -0.4877 -0.4254  1.2170
 8087TIP3    H245677   0.505   5.548  16.345 -1.0053 -1.0723  0.4783
 8088TIP3   OH245678   6.594   3.335   2.749  0.1335  0.0784  0.7838
 8088TIP3    H145679   6.652   3.344   2.825  0.6110  1.1083  0.3137
 8088TIP3    H245680   6.523   3.396   2.765  0.8322  1.1833 -0.1053
 8089TIP3   OH245681   2.073   6.459  16.724 -0.3482 -0.1104  0.7994
 8089TIP3    H145682   2.161   6.429  16.746 -0.3489  0.0628  1.0427
 8089TIP3    H245683   2.033   6.385  16.678  0.5580  0.4769 -1.0025
 8090TIP3   OH245684   4.430   2.564   3.525 -0.2017 -0.2167 -0.1607
 8090TIP3    H145685   4.499   2.529   3.468  0.0349 -0.8909  0.5314
 8090TIP3    H245686   4.411   2.494   3.586 -0.5014  0.4754  0.5553
 8091TIP3   OH245687   1.198   3.959   5.335 -0.0255 -0.8664 -0.0521
 8091TIP3    H145688   1.275   3.902   5.329  0.8093  0.3632 -1.3209
 8091TIP3    H245689   1.194   3.983   5.428  1.4569 -0.5025 -0.0633
 8092TIP3   OH245690   5.762   4.976  15.327  0.0482 -0.6609  0.0745
 8092TIP3    H145691   5.796   5.048  15.273  0.5366 -0.2841  0.8648
 8092TIP3    H245692   5.734   5.019  15.408 -0.3945 -1.2597  0.2374
 8093TIP3   OH245693   1.896   2.279  11.825  0.1818 -0.0713 -0.6048
 8093TIP3    H145694   1.849   2.196  11.815 -0.0503 -0.0240  0.0418
 8093TIP3    H245695   1.826   2.344  11.840  0.3860  0.1740 -0.7021
 8094TIP3   OH245696   0.253   6.753  11.477 -0.3303 -0.6886  0.3675
 8094TIP3    H145697   0.255   6.765  11.572 -1.9975  0.5198  0.2958
 8094TIP3    H245698   0.174   6.701  11.461 -0.8434  0.2743 -0.4143
 8095TIP3   OH245699   3.799   2.353   5.102 -0.1816 -0.1948 -0.1210
 8095TIP3    H145700   3.796   2.443   5.137  1.6617  0.0106 -0.4108
 8095TIP3    H245701   3.806   2.297   5.180  0.1309  0.0052 -0.0050
 8096TIP3   OH245702   6.011   0.325   3.716 -0.0488  0.6992  0.4026
 8096TIP3    H145703   6.046   0.396   3.768 -0.0266  1.8811 -1.1653
 8096TIP3    H245704   5.957   0.275   3.777 -0.0982  2.0798  1.5340
 8097TIP3   OH245705   1.933   1.009   2.477 -0.2970  0.0897  0.0626
 8097TIP3    H145706   1.870   0.938   2.471 -3.3667  2.6983 -1.0217
 8097TIP3    H245707   1.965   1.021   2.388  0.8331 -0.3704  0.3829
 8098TIP3   OH245708   2.209   5.592   3.318  0.0338  0.0050  0.4928
 8098TIP3    H145709   2.180   5.515   3.366  1.7251 -0.7420  0.3780
 8098TIP3    H245710   2.128   5.635   3.290 -0.9665 -0.6919  2.1522
 8099TIP3   OH245711   3.920   4.296  10.532 -0.0831 -0.0078  0.3739
 8099TIP3    H145712   4.005   4.315  10.493 -0.7766  0.0492 -1.1884
 8099TIP3    H245713   3.890   4.380  10.566 -1.4636  1.0871 -3.1264
 8100TIP3   OH245714   1.712   6.739  15.579  0.6109  0.0333  0.5686
 8100TIP3    H145715   1.740   6.818  15.624 -0.3839 -0.0360  1.3612
 8100TIP3    H245716   1.766   6.669  15.616  1.2918  0.2885  0.0736
 8101TIP3   OH245717   0.535   6.500   0.522 -0.0084 -0.1720 -0.1528
 8101TIP3    H145718   0.514   6.550   0.443 -0.3081 -0.7172 -0.4286
 8101TIP3    H245719   0.604   6.440   0.494  1.2902  0.9710  0.5115
 8102TIP3   OH245720   4.746   4.908  16.508 -0.7576  0.7056 -0.1319
 8102TIP3    H145721   4.744   4.817  16.536  0.1969  1.0427  1.1709
 8102TIP3    H245722   4.671   4.918  16.449 -2.2594 -0.3678  1.4984
 8103TIP3   OH245723   2.164   3.615   2.654  0.5916  0.2228 -0.2010
 8103TIP3    H145724   2.178   3.600   2.561  1.9143 -0.0055  0.0176
 8103TIP3    H245725   2.228   3.560   2.698 -1.1293 -0.9952  0.9215
 8104TIP3   OH245726   4.604   4.922   0.260 -0.2909  0.2386 -0.0950
 8104TIP3    H145727   4.615   4.991   0.195 -0.7591 -1.0279 -1.5860
 8104TIP3    H245728   4.511   4.925   0.283 -0.3016  0.1540 -0.1249
 8105TIP3   OH245729   1.928   6.545  13.412  0.5326  0.5164  0.3733
 8105TIP3    H145730   1.911   6.629  13.456 -0.2580 -0.0031  1.1135
 8105TIP3    H245731   1.846   6.526  13.366  0.2328 -0.4408  1.2541
 8106TIP3   OH245732   2.425   4.349   4.497  0.1616  0.0510 -0.3160
 8106TIP3    H145733   2.347   4.350   4.440  0.4642 -2.2819 -0.8851
 8106TIP3    H245734   2.495   4.317   4.441  2.1666  3.9143 -0.3830
 8107TIP3   OH245735   0.306   5.629  17.380  0.4815 -0.1359  0.8201
 8107TIP3    H145736   0.273   5.554  17.330  1.1454  0.2125 -0.1649
 8107TIP3    H245737   0.289   5.704  17.324  0.5636  0.3632  1.4507
 8108TIP3   OH245738   1.532   0.889  17.154  0.4293  0.2740 -0.3353
 8108TIP3    H145739   1.496   0.969  17.192  2.1899  1.3716 -0.8874
 8108TIP3    H245740   1.618   0.878  17.195 -0.8404 -3.0238  1.9527
 8109TIP3   OH245741   5.191   0.350  16.297 -0.3164 -0.1406 -0.9283
 8109TIP3    H145742   5.261   0.285  16.291 -0.0386  0.0959 -0.3770
 8109TIP3    H245743   5.134   0.331  16.223 -1.1722 -2.1110  0.1435
 8110TIP3   OH245744   6.519   1.111   2.176  0.2208  0.0720 -0.4634
 8110TIP3    H145745   6.471   1.170   2.118 -0.2010 -0.6683 -0.8856
 8110TIP3    H245746   6.565   1.051   2.117  0.1963 -0.3659 -0.0461
 8111TIP3   OH245747   5.608   5.702  16.124  0.3339 -0.4704  0.2830
 8111TIP3    H145748   5.622   5.609  16.108  1.0294 -0.8001  2.4527
 8111TIP3    H245749   5.525   5.706  16.172  0.1222  0.0939 -0.1102
 8112TIP3   OH245750   2.179   1.720  14.021 -0.0910 -0.3019  0.4350
 8112TIP3    H145751   2.132   1.728  14.103  0.6170 -1.2289  0.9477
 8112TIP3    H245752   2.165   1.629  13.994 -1.9206  0.4602 -1.4885
 8113TIP3   OH245753   0.923   1.536   1.477  0.3088  0.1045 -0.0590
 8113TIP3    H145754   1.015   1.518   1.456  0.4027 -0.4674  0.7767
 8113TIP3    H245755   0.910   1.627   1.452  0.6103 -0.2931 -1.8331
 8114TIP3   OH245756   3.542   6.196   5.472 -0.2630 -0.4456 -0.2050
 8114TIP3    H145757   3.606   6.194   5.401 -1.2350 -0.9032 -1.1016
 8114TIP3    H245758   3.593   6.178   5.551  0.8919  0.3917 -0.7369
 8115TIP3   OH245759   1.187   3.606  14.495 -0.6120  0.0128  0.6065
 8115TIP3    H145760   1.099   3.576  14.474 -0.8979  0.3999  1.2284
 8115TIP3    H245761   1.239   3.526  14.500 -0.6743 -0.1422 -0.8661
 8116TIP3   OH245762   2.240   0.221   2.894  0.0498  0.1067 -0.2625
 8116TIP3    H145763   2.233   0.238   2.800 -0.5334  1.4994 -0.0024
 8116TIP3    H245764   2.171   0.276   2.933 -0.1095 -0.8979  0.9341
 8117TIP3   OH245765   5.846   1.605   3.219  0.2594  0.0146 -0.1955
 8117TIP3    H145766   5.862   1.511   3.217 -0.2049 -0.0540 -0.8066
 8117TIP3    H245767   5.924   1.641   3.262  0.5102 -0.6289 -0.0997
 8118TIP3   OH245768   3.238   1.125   1.190  0.2960 -0.0269 -0.1443
 8118TIP3    H145769   3.199   1.069   1.122  1.3545 -0.4147 -0.4550
 8118TIP3    H245770   3.182   1.112   1.266 -0.5934 -0.0139 -0.7747
 8119TIP3   OH245771   1.532   5.391   1.886 -0.0211 -0.2434 -0.6651
 8119TIP3    H145772   1.544   5.368   1.978  0.9154  0.8243 -0.5094
 8119TIP3    H245773   1.592   5.333   1.839  0.7098  0.3388 -0.4601
 8120TIP3   OH245774   2.403   2.701  11.415  0.0973  0.3394 -0.1605
 8120TIP3    H145775   2.458   2.627  11.441 -1.3613 -0.6533  0.1664
 8120TIP3    H245776   2.433   2.722  11.326  0.3790 -0.7908 -0.3475
 8121TIP3   OH245777   1.583   1.635  17.106 -0.0218  0.1198 -0.8697
 8121TIP3    H145778   1.570   1.709  17.165  0.4576 -1.9857  2.1000
 8121TIP3    H245779   1.652   1.664  17.046  2.7358  1.0204  2.4075
 8122TIP3   OH245780   4.383   5.026  13.056 -0.3937 -0.0259 -0.3154
 8122TIP3    H145781   4.326   5.056  12.985  1.6379  0.3743 -1.8707
 8122TIP3    H245782   4.465   5.002  13.013  0.1136 -2.1867  1.6054
 8123TIP3   OH245783   1.155   5.549  13.112 -0.1627 -0.5496  0.6013
 8123TIP3    H145784   1.101   5.544  13.190  1.5053 -0.8086  1.8037
 8123TIP3    H245785   1.231   5.601  13.139  0.9398 -1.5027 -0.5171
 8124TIP3   OH245786   2.627   5.391  13.420  0.8627  0.2607  0.2636
 8124TIP3    H145787   2.570   5.464  13.447  1.9340  1.2101  0.0547
 8124TIP3    H245788   2.655   5.352  13.502 -1.8427 -1.7034  0.3816
 8125TIP3   OH245789   2.558   4.633  15.033  0.1068 -0.6385 -0.1517
 8125TIP3    H145790   2.620   4.705  15.044 -0.3048 -0.4196  0.8676
 8125TIP3    H245791   2.523   4.619  15.121 -1.1923 -0.8499 -0.6938
 8126TIP3   OH245792   5.344   6.240   0.057 -0.1742  0.4803 -0.2961
 8126TIP3    H145793   5.402   6.164   0.046 -2.2198 -1.1923 -0.2180
 8126TIP3    H245794   5.377   6.305  -0.005  0.3354 -1.3410 -2.0436
 8127TIP3   OH245795   0.606   6.724   2.436  0.0466 -0.4735  0.4512
 8127TIP3    H145796   0.572   6.671   2.508 -1.9786 -0.4180 -0.4085
 8127TIP3    H245797   0.602   6.666   2.360 -0.5346  0.3379 -0.1561
 8128TIP3   OH245798   1.789   2.670   0.237  0.0716  0.6035 -0.8720
 8128TIP3    H145799   1.723   2.656   0.305  0.5801 -0.5189 -0.5787
 8128TIP3    H245800   1.831   2.752   0.260  0.2815  0.2064  0.2214
 8129TIP3   OH245801   4.246   3.618  12.934 -0.8092  0.0353  0.1013
 8129TIP3    H145802   4.185   3.562  12.885 -1.6141  0.1024  0.9905
 8129TIP3    H245803   4.272   3.685  12.871 -1.2740 -0.2811 -0.4398
 8130TIP3   OH245804   1.106   3.577   3.234 -0.2323  0.2169 -0.0505
 8130TIP3    H145805   1.158   3.570   3.154 -1.4652 -0.2656 -0.8584
 8130TIP3    H245806   1.065   3.491   3.244  0.2370  0.1342  1.3590
 8131TIP3   OH245807   1.777   5.686  14.000 -0.4179  0.1332 -0.2472
 8131TIP3    H145808   1.781   5.763  13.944 -2.1472  1.0132  0.7357
 8131TIP3    H245809   1.708   5.632  13.962  1.6962 -1.7002 -1.7349
 8132TIP3   OH245810   0.431   2.448  13.580  0.0802 -0.0852 -0.1216
 8132TIP3    H145811   0.467   2.410  13.500  0.4432 -1.7698  0.7776
 8132TIP3    H245812   0.382   2.375  13.620  0.1784  0.6161  1.3357
 8133TIP3   OH245813   5.404   4.810  16.399 -0.2615  0.5649  0.4281
 8133TIP3    H145814   5.420   4.764  16.482  0.5934 -0.5879 -0.3434
 8133TIP3    H245815   5.329   4.765  16.361  1.6171 -1.4924 -1.1449
 8134TIP3   OH245816   2.060   0.511  14.877  0.7039  0.2092 -0.2039
 8134TIP3    H145817   2.093   0.425  14.904 -0.3151 -0.4658 -1.0344
 8134TIP3    H245818   2.136   0.553  14.835  1.4455  0.0812  0.9468
 8135TIP3   OH245819   6.001   3.362   5.271 -0.1528  0.2936 -0.6421
 8135TIP3    H145820   5.909   3.340   5.259 -0.4807  0.9587  0.4460
 8135TIP3    H245821   6.049   3.288   5.235 -1.1598 -1.3279  1.1881
 8136TIP3   OH245822   1.976   5.351   3.622 -0.3875  0.2737 -0.6047
 8136TIP3    H145823   1.986   5.278   3.682 -0.8421 -0.8687 -1.8541
 8136TIP3    H245824   2.016   5.321   3.540 -0.2425  1.5737 -1.0356
 8137TIP3   OH245825   1.265   2.628  15.169 -0.2423 -0.5070 -0.2750
 8137TIP3    H145826   1.274   2.630  15.264  0.2787  1.4416 -0.3160
 8137TIP3    H245827   1.171   2.613  15.154 -0.4776  0.0609  0.5635
 8138TIP3   OH245828   0.696   0.066   3.963 -0.0217  0.1606 -0.6704
 8138TIP3    H145829   0.726   0.129   4.028 -0.7691 -0.3567  0.1833
 8138TIP3    H245830   0.657   0.119   3.894  0.1206  0.6735 -0.3589
 8139TIP3   OH245831   2.320   0.860   3.366 -0.1237  0.3963  0.3348
 8139TIP3    H145832   2.228   0.878   3.387  0.0296  0.6254  0.8396
 8139TIP3    H245833   2.322   0.851   3.271 -0.7253  0.0531  0.3473
 8140TIP3   OH245834   4.484   5.173   0.640 -0.3281 -0.0862  0.1478
 8140TIP3    H145835   4.456   5.210   0.556  0.5145  1.0333  0.3345
 8140TIP3    H245836   4.544   5.103   0.616 -0.2943  0.0537 -0.1910
 8141TIP3   OH245837   3.988   0.377   2.618  0.1469  0.1994  0.3514
 8141TIP3    H145838   3.928   0.413   2.683  1.2217  3.4625 -0.2630
 8141TIP3    H245839   4.075   0.395   2.653  0.7453  1.6436 -1.6831
 8142TIP3   OH245840   6.055   3.746   2.667  0.2050  0.4193 -0.2857
 8142TIP3    H145841   6.095   3.717   2.749  1.5698  3.0271  0.0991
 8142TIP3    H245842   5.961   3.731   2.679  0.6191 -1.7332  0.6177
 8143TIP3   OH245843   0.951   5.165   5.628 -0.0611 -0.0811  0.3317
 8143TIP3    H145844   1.041   5.133   5.623 -0.0159  0.1924 -1.2415
 8143TIP3    H245845   0.897   5.090   5.604 -0.0784  0.4119 -1.2607
 8144TIP3   OH245846   6.270   1.265  10.780  0.1183  0.3991 -0.1610
 8144TIP3    H145847   6.267   1.169  10.783  1.1332  0.3795  1.5582
 8144TIP3    H245848   6.363   1.286  10.777 -0.0551  1.3197  0.5822
 8145TIP3   OH245849   2.036   5.437   1.670  0.7143 -0.4113 -0.0625
 8145TIP3    H145850   2.095   5.432   1.594 -1.7080 -2.2262 -1.9790
 8145TIP3    H245851   2.070   5.370   1.730  0.3380 -1.9143 -1.4375
 8146TIP3   OH245852   1.031   3.282   3.839 -0.3983 -0.9777  0.5018
 8146TIP3    H145853   1.063   3.202   3.882  0.7892 -1.1575 -0.6546
 8146TIP3    H245854   1.100   3.305   3.778 -1.7546 -0.3744 -0.8626
 8147TIP3   OH245855   4.636   0.810   1.143  0.5446 -0.1358 -0.0634
 8147TIP3    H145856   4.616   0.892   1.099  2.8868  0.5417  0.0095
 8147TIP3    H245857   4.648   0.834   1.235 -0.1013 -0.8057  0.2036
 8148TIP3   OH245858   6.228   1.150   4.855  0.1775 -0.1749 -0.1969
 8148TIP3    H145859   6.188   1.113   4.934  0.5897 -0.3132 -0.0472
 8148TIP3    H245860   6.277   1.226   4.887 -0.5603  0.4357 -0.4854
 8149TIP3   OH245861   1.874   2.070  11.335  0.7877  0.1644 -0.3847
 8149TIP3    H145862   1.899   2.014  11.408  2.2907 -0.7082 -1.5037
 8149TIP3    H245863   1.956   2.088  11.289  0.0763  1.8266 -1.0794
 8150TIP3   OH245864   0.722   6.057  12.861  0.6429 -0.3465 -0.3755
 8150TIP3    H145865   0.767   6.140  12.846 -0.5824  0.3302 -0.4216
 8150TIP3    H245866   0.685   6.034  12.775 -0.6102  0.0495  0.0311
 8151TIP3   OH245867   6.221   6.111   3.000  0.6587 -0.2788  0.0784
 8151TIP3    H145868   6.272   6.170   2.946 -0.3603 -0.3747 -1.0183
 8151TIP3    H245869   6.208   6.158   3.082  0.7068  0.6062 -0.4147
 8152TIP3   OH245870   2.335   6.298   2.733  0.1271  0.2760 -0.1739
 8152TIP3    H145871   2.277   6.372   2.753 -1.7514 -0.9519 -0.8334
 8152TIP3    H245872   2.411   6.338   2.692 -0.8507  1.8662 -0.5504
 8153TIP3   OH245873   0.944   3.443   5.303  0.1160  0.2352  0.2549
 8153TIP3    H145874   0.978   3.380   5.367 -0.3179 -0.6551 -0.3685
 8153TIP3    H245875   0.925   3.521   5.354  2.0105  0.3819  0.8168
 8154TIP3   OH245876   1.172   3.984   5.607  0.2379 -0.3420  0.5673
 8154TIP3    H145877   1.204   4.038   5.679 -0.7591  0.7394  0.2342
 8154TIP3    H245878   1.092   3.944   5.641 -1.0688  1.3299 -0.3428
 8155TIP3   OH245879   5.591   0.811  16.918 -0.1491 -0.0452  0.2942
 8155TIP3    H145880   5.581   0.720  16.943  0.6823  0.0451  1.0058
 8155TIP3    H245881   5.503   0.839  16.893 -0.4153 -1.0245  0.1064
 8156TIP3   OH245882   4.943   0.509   3.546  0.1139  0.3327 -0.7506
 8156TIP3    H145883   5.015   0.543   3.599  0.7539 -0.7642 -0.8872
 8156TIP3    H245884   4.914   0.431   3.593 -1.1102  0.8589 -0.6111
 8157TIP3   OH245885   1.398   2.859   5.685  0.0869  0.4235  0.0947
 8157TIP3    H145886   1.424   2.815   5.604  0.3291  1.0004 -0.1500
 8157TIP3    H245887   1.478   2.903   5.714  0.1172 -0.1629  0.8957
 8158TIP3   OH245888   2.111   0.863   4.346  0.0919  0.1249 -0.0606
 8158TIP3    H145889   2.144   0.820   4.425  1.7359 -0.7942 -1.1749
 8158TIP3    H245890   2.162   0.943   4.339  0.4353 -0.1368 -0.5537
 8159TIP3   OH245891   1.815   5.032   5.178  0.1563  0.0208 -0.6001
 8159TIP3    H145892   1.750   5.100   5.161  1.2450  1.2879  0.1408
 8159TIP3    H245893   1.791   4.961   5.118 -2.4921 -0.0041  0.3377
 8160TIP3   OH245894   2.534   0.156  16.509 -0.8285  0.1848  0.1982
 8160TIP3    H145895   2.570   0.217  16.574  2.5954 -2.0526  0.6615
 8160TIP3    H245896   2.479   0.097  16.559  0.4979 -0.5413  0.8569
 8161TIP3   OH245897   4.839   3.189  14.522  0.2205  0.2204  0.2498
 8161TIP3    H145898   4.927   3.156  14.503  0.0983  0.2362 -0.3486
 8161TIP3    H245899   4.802   3.212  14.437  0.1052  1.4375  0.6115
 8162TIP3   OH245900   6.113   4.577   0.739 -0.0721 -0.8554 -0.7304
 8162TIP3    H145901   6.156   4.626   0.809  1.1285 -0.1837 -1.8776
 8162TIP3    H245902   6.056   4.641   0.697  0.2655 -0.8681 -1.2181
 8163TIP3   OH245903   2.147   5.391   2.541 -0.8422  0.1882 -0.4048
 8163TIP3    H145904   2.057   5.416   2.522 -0.7843  1.0832  0.4034
 8163TIP3    H245905   2.148   5.374   2.636 -0.0719  0.6558 -0.3146
 8164TIP3   OH245906   4.545   3.004  16.157 -0.1957 -0.5191  0.1228
 8164TIP3    H145907   4.515   3.013  16.248 -0.4243 -1.4467  0.1527
 8164TIP3    H245908   4.573   2.913  16.151  0.6064 -0.2363 -0.5169
 8165TIP3   OH245909   0.864   3.556   2.683 -0.2978  0.0331  0.3342
 8165TIP3    H145910   0.893   3.469   2.710  1.4239 -0.2704 -2.1888
 8165TIP3    H245911   0.924   3.616   2.728  0.5516 -0.2844 -0.3507
 8166TIP3   OH245912   6.712   3.545  15.192  0.0081  0.0540 -0.4299
 8166TIP3    H145913   6.758   3.541  15.276 -2.9653  2.6669  1.5474
 8166TIP3    H245914   6.709   3.638  15.171 -2.8342 -0.1407 -1.2635
 8167TIP3   OH245915   2.222   6.102   4.968  0.5077 -0.1150 -0.7025
 8167TIP3    H145916   2.226   6.095   4.872  2.2539  0.7224 -0.7328
 8167TIP3    H245917   2.309   6.134   4.993  0.3917 -1.2057  1.2575
 8168TIP3   OH245918   4.828   3.928  11.109  0.7656  0.2752 -0.2673
 8168TIP3    H145919   4.858   3.969  11.028  1.5709  0.7879  0.2781
 8168TIP3    H245920   4.908   3.909  11.158  0.2699  2.2976  1.5259
 8169TIP3   OH245921   1.537   3.821  16.241 -0.3739 -0.0391  0.0377
 8169TIP3    H145922   1.480   3.876  16.294  0.2743  0.9666 -0.2663
 8169TIP3    H245923   1.478   3.763  16.192 -1.0498  0.1129  0.6651
 8170TIP3   OH245924   3.929   6.469   3.498 -0.2885 -0.5603 -0.0969
 8170TIP3    H145925   4.007   6.463   3.444  0.4489 -0.3485  0.9169
 8170TIP3    H245926   3.920   6.562   3.518  1.2533 -0.8976  2.6418
 8171TIP3   OH245927   6.125   3.150  12.126  0.7377  0.3659 -0.2988
 8171TIP3    H145928   6.189   3.079  12.132  1.5908  1.1982  1.2436
 8171TIP3    H245929   6.041   3.109  12.146  1.2926 -0.1263  1.1223
 8172TIP3   OH245930   2.658   0.074   5.543 -0.3794  0.5094  0.3481
 8172TIP3    H145931   2.581   0.121   5.513 -0.3343 -0.0124 -0.6044
 8172TIP3    H245932   2.729   0.137   5.536 -1.0092  1.6944  3.2213
 8173TIP3   OH245933   2.242   1.815   2.185  0.2880  0.2656 -0.2244
 8173TIP3    H145934   2.271   1.730   2.218  0.7447  0.4601 -0.1186
 8173TIP3    H245935   2.315   1.875   2.203  0.4506  0.4342 -1.3497
 8174TIP3   OH245936   6.518   4.258   0.914  0.0288  0.4720 -0.1821
 8174TIP3    H145937   6.445   4.312   0.944  0.1938 -0.0491  1.2318
 8174TIP3    H245938   6.486   4.168   0.921  1.3734  0.1060  2.2632
 8175TIP3   OH245939   1.270   0.689  14.352  0.3605  0.7068 -0.0369
 8175TIP3    H145940   1.345   0.648  14.396  0.5120  2.0731  1.0579
 8175TIP3    H245941   1.301   0.709  14.264  1.1910  0.9660  0.3083
 8176TIP3   OH245942   2.132   0.993   3.587 -0.3910 -0.1661 -0.1883
 8176TIP3    H145943   2.072   0.920   3.603 -0.6212 -0.0402 -0.4683
 8176TIP3    H245944   2.123   1.010   3.493  0.1275 -0.1878 -0.2444
 8177TIP3   OH245945   3.541   0.203  14.833 -0.2556 -0.3608  0.6255
 8177TIP3    H145946   3.615   0.142  14.835 -0.6789 -0.9332 -0.6272
 8177TIP3    H245947   3.526   0.220  14.740 -1.0020  0.6240  0.9104
 8178TIP3   OH245948   1.460   3.645   0.402  0.0138  0.1668 -0.3438
 8178TIP3    H145949   1.365   3.640   0.390  0.2489  0.3117 -2.7578
 8178TIP3    H245950   1.477   3.593   0.481 -1.7360 -2.6569 -1.6769
 8179TIP3   OH245951   0.335   4.931   5.028 -0.1113  0.1236 -0.2672
 8179TIP3    H145952   0.397   4.911   4.958  0.3827  1.4317 -0.2249
 8179TIP3    H245953   0.251   4.940   4.984  0.4409  2.4719 -0.9746
 8180TIP3   OH245954   2.707   4.127   2.831  0.1377  0.1523  0.0531
 8180TIP3    H145955   2.723   4.093   2.743 -1.2023  1.0064 -0.5656
 8180TIP3    H245956   2.664   4.211   2.816  0.4457  0.6001  1.5373
 8181TIP3   OH245957   5.496   6.735   6.518  0.2255 -0.0905  0.1689
 8181TIP3    H145958   5.543   6.818   6.511 -0.1723  0.1609  0.4641
 8181TIP3    H245959   5.431   6.749   6.587 -2.1467  0.4810 -2.0067
 8182TIP3   OH245960   2.649   0.102  17.371 -0.2240 -0.0508 -0.8102
 8182TIP3    H145961   2.668   0.164  17.300 -0.6491 -0.5248 -1.3448
 8182TIP3    H245962   2.583   0.146  17.424  0.9554  0.8199  0.0032
 8183TIP3   OH245963   2.753   3.206   2.960  0.2725  0.1494  0.5114
 8183TIP3    H145964   2.846   3.226   2.966 -0.0939  1.6859  1.5215
 8183TIP3    H245965   2.726   3.243   2.876  0.5293 -0.1690  0.2842
 8184TIP3   OH245966   1.935   3.131   5.854 -0.1283  0.2655 -0.5041
 8184TIP3    H145967   1.876   3.170   5.788 -0.5621  0.4038 -0.0380
 8184TIP3    H245968   2.021   3.166   5.832 -0.2929  0.4205 -0.9170
 8185TIP3   OH245969   5.891   0.715   1.288  0.1757  0.2118 -0.4930
 8185TIP3    H145970   5.903   0.809   1.273  0.9271  0.4022  1.0810
 8185TIP3    H245971   5.929   0.673   1.210 -1.4354  1.2105 -1.8787
 8186TIP3   OH245972   4.297   3.722   6.230 -0.4074 -0.4246  0.2289
 8186TIP3    H145973   4.385   3.687   6.215 -0.4465 -0.7188  0.6443
 8186TIP3    H245974   4.259   3.662   6.294 -0.9775 -0.4055 -0.0899
 8187TIP3   OH245975   6.135   2.709   4.205 -0.0758  0.5536 -0.1875
 8187TIP3    H145976   6.210   2.678   4.256 -0.2503 -1.1570 -0.9089
 8187TIP3    H245977   6.134   2.653   4.127 -2.4424  0.1332  0.0736
 8188TIP3   OH245978   1.053   5.463   3.737  0.0086 -0.0439 -0.3289
 8188TIP3    H145979   1.044   5.414   3.656 -0.1079 -0.0853 -0.2896
 8188TIP3    H245980   1.068   5.397   3.804  4.8535  0.0591 -0.9192
 8189TIP3   OH245981   0.594   3.965  13.667  0.1296 -0.4353  0.6014
 8189TIP3    H145982   0.540   3.953  13.589  0.0456 -0.0618  0.6000
 8189TIP3    H245983   0.628   3.878  13.686  1.1367 -0.3147 -0.5500
 8190TIP3   OH245984   5.369   6.690  13.063  0.0913  0.6692  0.2746
 8190TIP3    H145985   5.326   6.719  13.144  0.7711 -0.0415  0.9138
 8190TIP3    H245986   5.361   6.764  13.003 -0.2979  1.2673  1.0501
 8191TIP3   OH245987   2.141   1.932  12.125  0.2864 -0.1472  0.0996
 8191TIP3    H145988   2.115   1.855  12.074  0.0102 -1.7544  2.4624
 8191TIP3    H245989   2.072   1.996  12.108  0.3006 -0.5394 -1.6203
 8192TIP3   OH245990   3.880   3.219   2.151 -0.2442  0.2429 -0.6468
 8192TIP3    H145991   3.866   3.202   2.058 -0.0540  2.7013 -1.1950
 8192TIP3    H245992   3.925   3.304   2.154  1.4780 -0.6476  1.6388
 8193TIP3   OH245993   1.129   0.279   2.852  0.2153  0.0582  0.4853
 8193TIP3    H145994   1.061   0.327   2.804  0.3333  0.0314  0.2897
 8193TIP3    H245995   1.166   0.344   2.912  1.8945  0.8480 -1.3273
 8194TIP3   OH245996   6.335   2.913  12.951  0.7022 -0.2812  0.0225
 8194TIP3    H145997   6.400   2.983  12.940  0.4924 -0.0949 -0.0165
 8194TIP3    H245998   6.322   2.908  13.046  0.2551  0.1503 -0.0162
 8195TIP3   OH245999   4.494   6.103   0.387 -0.9124  0.2901 -0.0057
 8195TIP3    H146000   4.466   6.141   0.304  0.8813  2.2574  0.1915
 8195TIP3    H246001   4.541   6.174   0.431  0.7174 -1.5345  1.3944
 8196TIP3   OH246002   4.653   2.760   1.794 -0.2849 -0.3825 -0.0714
 8196TIP3    H146003   4.665   2.719   1.879  2.1208 -1.7370 -0.9854
 8196TIP3    H246004   4.625   2.689   1.736 -0.0217  0.0977 -0.8095
 8197TIP3   OH246005   2.722   0.150   4.830 -0.7055  0.2228  0.2520
 8197TIP3    H146006   2.777   0.176   4.904 -0.4467 -0.7364  0.4028
 8197TIP3    H246007   2.763   0.191   4.754 -0.1403  0.0222  0.4468
 8198TIP3   OH246008   3.413   4.966  16.891 -0.3576  0.1260 -0.0555
 8198TIP3    H146009   3.466   4.888  16.877  0.1680  0.2246  1.2616
 8198TIP3    H246010   3.379   4.957  16.980  0.1670  1.6344  0.3314
 8199TIP3   OH246011   3.230   4.573   2.665  0.3293  0.0298 -0.2354
 8199TIP3    H146012   3.142   4.586   2.630 -0.0783 -0.4932  0.5821
 8199TIP3    H246013   3.243   4.479   2.665  0.8341  0.0941 -0.2036
 8200TIP3   OH246014   6.419   4.303  15.945  0.1046  0.1855 -0.2067
 8200TIP3    H146015   6.415   4.380  15.888  0.7090  1.0740  0.9038
 8200TIP3    H246016   6.493   4.320  16.003  0.2854 -1.2747  0.0383
 8201TIP3   OH246017   1.870   4.961  15.602  0.7280  0.0725  0.4699
 8201TIP3    H146018   1.903   4.930  15.687 -0.9062 -0.6470  0.8802
 8201TIP3    H246019   1.803   4.897  15.577 -0.3130  1.4073 -0.3354
 8202TIP3   OH246020   4.153   3.103  14.512  0.0029 -0.3797  0.3673
 8202TIP3    H146021   4.246   3.084  14.501  0.1698  0.9860 -0.9951
 8202TIP3    H246022   4.142   3.119  14.606  0.7358 -2.3303  0.8301
 8203TIP3   OH246023   2.102   3.624   1.873 -0.2415 -0.1052 -0.0481
 8203TIP3    H146024   2.144   3.595   1.955 -1.1562 -0.0974  0.4364
 8203TIP3    H246025   2.015   3.583   1.875 -0.6769  0.7745 -0.4958
 8204TIP3   OH246026   0.056   4.782   6.293  0.2345 -0.0155 -0.1937
 8204TIP3    H146027   0.004   4.712   6.332 -0.0977  0.1117 -0.4094
 8204TIP3    H246028   0.108   4.817   6.366  0.0971 -0.2123 -0.0022
 8205TIP3   OH246029   5.161   6.507  13.195 -0.0917  0.1073  0.0748
 8205TIP3    H146030   5.215   6.565  13.249 -1.9041  1.6376  0.3441
 8205TIP3    H246031   5.097   6.565  13.154 -1.3002 -1.5685 -0.5141
 8206TIP3   OH246032   5.297   6.397   5.846  0.1857 -0.1039  0.1790
 8206TIP3    H146033   5.225   6.337   5.863 -1.8910  2.6640  2.2652
 8206TIP3    H246034   5.277   6.435   5.760 -2.0777  1.9478  1.4731
 8207TIP3   OH246035   1.715   5.331   5.993  0.0719  0.3537 -0.2137
 8207TIP3    H146036   1.624   5.359   5.997  0.2468  1.1527 -1.1894
 8207TIP3    H246037   1.719   5.252   6.047 -0.1381  2.9051  3.9640
 8208TIP3   OH246038   6.162   3.602  16.485  0.3072  0.0785 -0.2054
 8208TIP3    H146039   6.220   3.644  16.422 -2.8311 -2.4591 -5.5064
 8208TIP3    H246040   6.111   3.673  16.523  1.4425  1.6829 -1.5700
 8209TIP3   OH246041   3.475   2.029  15.799 -0.7517  0.3385  0.1270
 8209TIP3    H146042   3.499   1.997  15.713 -1.6545 -1.8156  0.6135
 8209TIP3    H246043   3.558   2.050  15.841 -0.2011 -0.1010 -0.7149
 8210TIP3   OH246044   0.330   0.547  16.001 -0.0887  0.1959  0.2479
 8210TIP3    H146045   0.344   0.557  15.907 -0.7098 -1.1554 -0.0162
 8210TIP3    H246046   0.240   0.577  16.015  0.3170  1.2804  0.5763
 8211TIP3   OH246047   4.860   6.484   2.185  0.1293 -0.7420  0.2785
 8211TIP3    H146048   4.889   6.451   2.100  0.1994  0.4440 -0.1792
 8211TIP3    H246049   4.765   6.495   2.175  0.4129  1.5722 -0.4724
 8212TIP3   OH246050   3.537   3.144  10.786 -0.1025  0.0576 -0.0388
 8212TIP3    H146051   3.539   3.201  10.709  1.7930  0.8878  0.5618
 8212TIP3    H246052   3.629   3.122  10.802 -0.4034  0.1753  2.1612
 8213TIP3   OH246053   1.584   6.656  15.991 -0.4605  0.0425 -0.0430
 8213TIP3    H146054   1.566   6.693  16.077  1.2538 -0.6831  0.6660
 8213TIP3    H246055   1.658   6.707  15.958 -0.3052 -0.5061 -0.5521
 8214TIP3   OH246056   4.558   4.903   4.769  0.4198 -0.0406 -0.7162
 8214TIP3    H146057   4.548   4.811   4.791 -0.7086  0.5420  1.4632
 8214TIP3    H246058   4.576   4.946   4.853 -1.3112  2.0062 -1.3151
 8215TIP3   OH246059   4.301   0.492  11.767  0.0229  1.0732  0.2027
 8215TIP3    H146060   4.310   0.397  11.778  1.2233  1.2439  0.8889
 8215TIP3    H246061   4.261   0.522  11.849 -0.1013  1.1825  0.1013
 8216TIP3   OH246062   6.716   4.204   4.675 -0.3926  0.1359  0.5572
 8216TIP3    H146063   6.634   4.227   4.720 -1.0028 -0.6371 -0.1363
 8216TIP3    H246064   6.751   4.131   4.726 -0.0493  0.5494  0.9297
 8217TIP3   OH246065   4.970   3.156  11.955 -0.2972  0.6536  0.0343
 8217TIP3    H146066   5.006   3.089  12.014  1.2689  1.4586  0.0540
 8217TIP3    H246067   4.961   3.111  11.871 -2.3883 -0.4556  0.8004
 8218TIP3   OH246068   5.594   4.173  14.157  0.1570  0.4359 -0.3428
 8218TIP3    H146069   5.590   4.086  14.118  3.6213 -0.6683  1.3075
 8218TIP3    H246070   5.607   4.232  14.083  0.3458 -0.7952 -1.3306
 8219TIP3   OH246071   0.116   4.430   4.977  0.4457  0.3412  0.2934
 8219TIP3    H146072   0.075   4.507   5.018 -0.5525 -0.4889  0.8924
 8219TIP3    H246073   0.146   4.461   4.892  2.1123  2.0005  1.3850
 8220TIP3   OH246074   6.387   3.455   3.676 -0.0180 -0.0435 -0.2141
 8220TIP3    H146075   6.371   3.538   3.632 -0.0875 -0.0283 -0.1607
 8220TIP3    H246076   6.405   3.480   3.767  0.2075 -0.0675 -0.2503
 8221TIP3   OH246077   5.965   2.222   1.853  0.3528  0.2612  0.0381
 8221TIP3    H146078   5.921   2.289   1.905 -1.2514 -1.1462  0.5648
 8221TIP3    H246079   5.930   2.139   1.886  3.5298 -0.9860  0.6066
 8222TIP3   OH246080   4.695   0.713  17.297  0.0489  0.0210 -0.2529
 8222TIP3    H146081   4.777   0.722  17.346 -0.7009 -0.1011  1.0775
 8222TIP3    H246082   4.697   0.624  17.262  0.3159 -0.1141  0.1011
 8223TIP3   OH246083   4.725   1.884   2.359  0.3360 -0.0741 -0.2338
 8223TIP3    H146084   4.661   1.814   2.369  0.7511 -0.3344  0.5976
 8223TIP3    H246085   4.672   1.963   2.343 -0.1894 -0.2879  0.4441
 8224TIP3   OH246086   0.953   1.540  16.151  0.2785  0.1690  0.4078
 8224TIP3    H146087   0.932   1.525  16.059 -0.6810 -1.7224  0.8846
 8224TIP3    H246088   1.034   1.491  16.165  0.0540 -0.1138  0.7293
 8225TIP3   OH246089   1.425   0.381  16.135 -0.3517  0.1033  0.4147
 8225TIP3    H146090   1.502   0.342  16.176 -0.6955 -0.5255  0.4676
 8225TIP3    H246091   1.425   0.472  16.166  0.9395  0.4127 -0.4067
 8226TIP3   OH246092   0.497   2.401   4.184  0.1542  0.3411 -0.3373
 8226TIP3    H146093   0.499   2.493   4.210 -2.4000  0.3305  0.1873
 8226TIP3    H246094   0.419   2.365   4.226  1.4014 -2.2708 -0.0013
 8227TIP3   OH246095   0.102   2.823   5.664 -0.0983 -0.7358  0.1800
 8227TIP3    H146096   0.091   2.749   5.605  0.1724 -0.7098  0.0935
 8227TIP3    H246097   0.121   2.897   5.607 -0.7144 -0.5247  0.2422
 8228TIP3   OH246098   6.715   6.559   6.302 -0.3660  0.0249 -0.2779
 8228TIP3    H146099   6.755   6.632   6.348 -1.5547  0.6420 -0.1757
 8228TIP3    H246100   6.722   6.485   6.362  1.0464 -0.0322 -0.4719
 8229TIP3   OH246101   2.748   0.077  17.052 -0.0554 -0.2555  0.7752
 8229TIP3    H146102   2.657   0.056  17.074  0.5356 -1.6677  1.9893
 8229TIP3    H246103   2.767   0.156  17.103 -0.8851  0.6819 -0.3001
 8230TIP3   OH246104   0.766   4.311  13.944  0.0360 -0.0903  0.4116
 8230TIP3    H146105   0.816   4.308  13.863 -0.6415  2.4230 -0.1820
 8230TIP3    H246106   0.709   4.234  13.939  0.0025  0.0030 -1.5137
 8231TIP3   OH246107   4.787   1.940  16.301  0.7196 -0.1975  0.1594
 8231TIP3    H146108   4.830   1.865  16.345  0.2840 -1.6196 -1.7296
 8231TIP3    H246109   4.858   1.985  16.256  1.0359  0.7770  1.5645
 8232TIP3   OH246110   2.042   3.715  14.946  0.7507  0.3236  0.0668
 8232TIP3    H146111   2.137   3.709  14.951  0.7916 -0.6879 -1.3104
 8232TIP3    H246112   2.012   3.624  14.952 -0.0760  0.5693 -0.2076
 8233TIP3   OH246113   2.755   3.194  14.238 -0.2805 -0.0704 -0.0051
 8233TIP3    H146114   2.838   3.176  14.281  0.6571  0.3597 -1.5666
 8233TIP3    H246115   2.779   3.234  14.155 -2.0580  0.1411 -0.4585
 8234TIP3   OH246116   5.155   2.056  13.872  0.1866  0.2100  0.3925
 8234TIP3    H146117   5.153   1.967  13.907  0.8955 -0.3215 -0.8471
 8234TIP3    H246118   5.194   2.109  13.941  3.2974 -1.1406 -0.1719
 8235TIP3   OH246119   2.270   0.594   1.624 -0.4720  0.9049  0.2974
 8235TIP3    H146120   2.345   0.646   1.652  0.0044  0.4208 -0.0791
 8235TIP3    H246121   2.194   0.648   1.646 -0.0016  1.5401  0.3682
 8236TIP3   OH246122   0.098   1.302  12.971 -0.2719  0.5096 -0.3715
 8236TIP3    H146123   0.132   1.281  13.058 -0.2755  1.0297 -0.2468
 8236TIP3    H246124   0.046   1.225  12.948  0.2128  0.1107 -0.1682
 8237TIP3   OH246125   3.018   1.418  14.179 -0.0734 -0.3789  0.2114
 8237TIP3    H146126   3.099   1.399  14.132 -0.5324  1.4597 -1.4506
 8237TIP3    H246127   2.950   1.369  14.133 -0.6667  2.0898 -1.7957
 8238TIP3   OH246128   5.577   4.926   3.796 -0.1869  0.2858  0.2426
 8238TIP3    H146129   5.539   4.901   3.880  1.1607 -0.8725  0.5435
 8238TIP3    H246130   5.595   4.843   3.752  3.2769  0.6135  0.7464
 8239TIP3   OH246131   2.238   2.421  14.451  0.0795 -0.1148  0.7804
 8239TIP3    H146132   2.237   2.345  14.392  0.1471 -0.6982  1.5169
 8239TIP3    H246133   2.272   2.492  14.397  2.2418 -1.1325  0.6607
 8240TIP3   OH246134   2.089   2.277  13.375 -0.7942 -0.0517 -0.0800
 8240TIP3    H146135   2.030   2.210  13.410  0.6255 -0.3580  1.8763
 8240TIP3    H246136   2.152   2.292  13.445  0.5949  1.3264 -1.5568
 8241TIP3   OH246137   4.913   0.973  13.843 -0.1659  0.3443 -1.0828
 8241TIP3    H146138   4.907   0.934  13.930 -1.3411  1.8101 -0.4463
 8241TIP3    H246139   4.829   0.953  13.802  0.8208 -1.3656 -2.3931
 8242TIP3   OH246140   0.021   1.417   1.254  0.0357 -0.1316 -0.0028
 8242TIP3    H146141  -0.065   1.378   1.236 -0.4461 -0.0851  2.0021
 8242TIP3    H246142   0.083   1.345   1.246 -0.2413 -0.2882 -0.8868
 8243TIP3   OH246143   5.678   1.652   1.995 -0.0742  0.2361 -0.5679
 8243TIP3    H146144   5.700   1.677   1.906 -1.2523  1.4284 -0.5447
 8243TIP3    H246145   5.687   1.732   2.046 -1.4125  0.0556 -0.0066
 8244TIP3   OH246146   2.306   1.698  14.743 -0.2179  0.4301  0.0543
 8244TIP3    H146147   2.222   1.666  14.774  0.2008 -0.9730 -0.1847
 8244TIP3    H246148   2.347   1.738  14.820 -0.5876  0.0003  0.4778
 8245TIP3   OH246149   3.052   5.120  12.759  0.1000  0.1215  1.3251
 8245TIP3    H146150   3.120   5.114  12.825  0.9781  0.0444  0.4309
 8245TIP3    H246151   3.059   5.039  12.708 -2.4767 -1.2291  2.8836
 8246TIP3   OH246152   0.555   4.524   5.882 -0.0343 -0.8094 -0.3574
 8246TIP3    H146153   0.552   4.492   5.972 -0.1795 -0.7439 -0.3391
 8246TIP3    H246154   0.545   4.619   5.890 -0.8510 -0.8753 -0.4959
 8247TIP3   OH246155   3.753   5.106   5.804  0.3047  0.2160  0.1047
 8247TIP3    H146156   3.689   5.104   5.733  0.5711 -0.1672 -0.1300
 8247TIP3    H246157   3.806   5.027   5.791  0.1503 -0.0245  0.9288
 8248TIP3   OH246158   2.499   6.082   1.908  0.1759 -0.3108  0.0996
 8248TIP3    H146159   2.461   6.032   1.836 -0.0362 -0.9729  0.6623
 8248TIP3    H246160   2.556   6.146   1.865  0.4020 -0.9898 -0.6487
 8249TIP3   OH246161   2.468   2.345  16.109  0.2146  0.2030 -0.0319
 8249TIP3    H146162   2.508   2.384  16.187  1.3012  0.2359 -0.5906
 8249TIP3    H246163   2.458   2.252  16.132 -0.7347  0.4525  0.6375
 8250TIP3   OH246164   0.145   6.031   4.281 -0.8054  0.1944  0.2990
 8250TIP3    H146165   0.166   5.950   4.234 -0.0641  0.2211  0.5681
 8250TIP3    H246166   0.229   6.063   4.313 -1.1797  0.6846  0.8261
 8251TIP3   OH246167   2.222   4.024  11.850  0.0080 -0.1501 -0.2110
 8251TIP3    H146168   2.262   3.992  11.769  0.8973  0.6890 -0.1191
 8251TIP3    H246169   2.128   4.021  11.834  0.1715 -0.2542 -1.1745
 8252TIP3   OH246170   6.075   0.328   5.971 -0.1380 -0.2434  0.8319
 8252TIP3    H146171   6.143   0.342   5.906 -1.9377  0.3737 -0.9949
 8252TIP3    H246172   6.060   0.233   5.970  0.9360 -0.4404  1.5553
 8253TIP3   OH246173   2.108   5.443  15.562 -0.4049 -0.1014 -0.4799
 8253TIP3    H146174   2.066   5.356  15.562  1.9814 -1.3432  0.1961
 8253TIP3    H246175   2.035   5.504  15.554 -2.3787 -2.0777  1.0078
 8254TIP3   OH246176   0.356   1.278  14.317  0.0555 -0.0069 -0.2043
 8254TIP3    H146177   0.437   1.252  14.273  1.3408 -3.2018  3.5372
 8254TIP3    H246178   0.300   1.201  14.310 -1.5830  1.1425 -0.2635
 8255TIP3   OH246179   6.458   0.568   4.587  0.0151 -0.6682 -0.0707
 8255TIP3    H146180   6.544   0.565   4.546  0.3469  1.5193  0.3330
 8255TIP3    H246181   6.416   0.486   4.561  0.8390 -0.2136 -3.3760
 8256TIP3   OH246182   4.215   3.105  15.097 -0.2286  0.2014 -0.0249
 8256TIP3    H146183   4.152   3.041  15.065 -0.3467  0.5465 -0.5040
 8256TIP3    H246184   4.170   3.189  15.088 -0.2797  0.3079  1.1114
 8257TIP3   OH246185   1.025   1.195  15.798 -0.4221 -0.2014  0.6166
 8257TIP3    H146186   0.959   1.162  15.859 -0.2128  0.9256  1.4936
 8257TIP3    H246187   1.008   1.290  15.793  1.0995  0.1022  0.8411
 8258TIP3   OH246188   1.569   0.186   6.241 -0.0840 -0.6114 -0.1220
 8258TIP3    H146189   1.484   0.192   6.285  0.4935 -1.2592  1.1433
 8258TIP3    H246190   1.625   0.248   6.288 -0.2277  0.9853 -1.9449
 8259TIP3   OH246191   5.569   6.075   1.425 -0.8928 -0.1766 -0.4423
 8259TIP3    H146192   5.553   5.998   1.480 -1.3664 -1.4302 -2.2521
 8259TIP3    H246193   5.658   6.100   1.445 -0.8631 -0.9549  0.4874
 8260TIP3   OH246194   4.784   2.648   1.142 -0.2524 -0.0704  0.3656
 8260TIP3    H146195   4.861   2.629   1.195 -1.0207  1.6417  2.1989
 8260TIP3    H246196   4.818   2.698   1.068  0.6482 -1.2867 -0.0838
 8261TIP3   OH246197   2.757   4.573  16.067 -0.1211 -0.3896 -0.1567
 8261TIP3    H146198   2.706   4.543  16.143  0.5590 -0.1443  0.4048
 8261TIP3    H246199   2.846   4.547  16.086 -0.1463 -1.5829 -1.5419
 8262TIP3   OH246200   4.546   2.697   5.953  0.3502  0.1663 -0.6643
 8262TIP3    H146201   4.596   2.771   5.988  1.4334 -0.8035 -0.0866
 8262TIP3    H246202   4.574   2.622   6.006 -0.4025 -0.7418 -1.5094
 8263TIP3   OH246203   4.781   0.524   2.997  0.7342 -0.0702 -0.4340
 8263TIP3    H146204   4.742   0.481   3.074  3.5810 -1.8671  0.1543
 8263TIP3    H246205   4.752   0.471   2.923 -1.0550  0.9658 -0.5239
 8264TIP3   OH246206   1.244   3.533   4.211 -0.2480  1.1248 -0.1004
 8264TIP3    H146207   1.323   3.577   4.242  0.4885 -0.4198  0.3121
 8264TIP3    H246208   1.233   3.564   4.121  1.3090  0.7540 -0.4420
 8265TIP3   OH246209   2.568   6.287   5.236 -0.6677 -0.1108  0.4149
 8265TIP3    H146210   2.633   6.217   5.229 -0.0986  0.4827 -0.6866
 8265TIP3    H246211   2.597   6.352   5.171 -2.5590  0.0171 -0.3641
 8266TIP3   OH246212   1.597   2.358   0.029  0.2603 -0.0334 -0.0224
 8266TIP3    H146213   1.508   2.323   0.034  0.6412 -2.3919 -4.4757
 8266TIP3    H246214   1.585   2.452   0.019 -1.6914 -0.2317  0.0527
 8267TIP3   OH246215   0.742   0.103   5.371  0.3425  0.1661  0.3350
 8267TIP3    H146216   0.766   0.173   5.309  0.8928  1.2209  1.6994
 8267TIP3    H246217   0.822   0.051   5.379  0.1786 -0.1541 -0.0511
 8268TIP3   OH246218   0.846   0.565   1.200  0.3239  0.5393  0.0731
 8268TIP3    H146219   0.853   0.660   1.190  1.9952  0.2671 -2.4329
 8268TIP3    H246220   0.920   0.542   1.256 -1.8576  0.8732  3.3934
 8269TIP3   OH246221   5.795   5.860   0.981 -0.3920  0.6084  0.8117
 8269TIP3    H146222   5.717   5.821   1.021 -0.7192 -0.4644 -0.8298
 8269TIP3    H246223   5.860   5.790   0.979 -0.0352  0.9422  0.3967
 8270TIP3   OH246224   4.570   5.013   3.170  0.0865  0.0548 -0.8059
 8270TIP3    H146225   4.553   5.001   3.263  1.2026  0.7769 -0.4873
 8270TIP3    H246226   4.483   5.020   3.130 -0.4318 -1.3352  0.0149
 8271TIP3   OH246227   4.904   0.843  14.120  0.3008 -0.0741  0.8904
 8271TIP3    H146228   4.860   0.927  14.109  1.3795  0.5414  1.1210
 8271TIP3    H246229   4.964   0.856  14.193 -0.1757 -1.3353  1.5450
 8272TIP3   OH246230   0.540   2.607  15.423 -0.0809  0.4951 -0.3029
 8272TIP3    H146231   0.468   2.609  15.360 -0.4386  0.2909  0.0916
 8272TIP3    H246232   0.545   2.516  15.451 -0.2494  0.6729  0.3255
 8273TIP3   OH246233   0.956   4.949   2.636  0.0650  0.1816  0.0998
 8273TIP3    H146234   0.905   4.939   2.717 -0.0067  0.8109  0.1384
 8273TIP3    H246235   0.891   4.941   2.566  0.2196 -0.9764  0.0745
 8274TIP3   OH246236   1.317   3.026  15.191 -0.5380  0.1957  0.2971
 8274TIP3    H146237   1.304   2.964  15.262  0.0051  1.5287  1.6056
 8274TIP3    H246238   1.307   2.973  15.111 -0.4166 -1.4879  1.3439
 8275TIP3   OH246239   5.354   2.770  14.863  0.3174  0.1928  0.0689
 8275TIP3    H146240   5.392   2.850  14.899 -1.1526  0.3775  1.3063
 8275TIP3    H246241   5.280   2.800  14.811  0.7569 -0.2761 -0.8559
 8276TIP3   OH246242   3.235   3.324  13.948  0.2807 -0.6309 -0.3320
 8276TIP3    H146243   3.275   3.396  13.899  0.1116 -1.6617 -2.0591
 8276TIP3    H246244   3.225   3.359  14.036  1.3460  1.0245 -0.8075
 8277TIP3   OH246245   1.740   2.255   2.770  0.1767 -0.4145 -0.4857
 8277TIP3    H146246   1.661   2.211   2.802  1.0582 -2.3008 -0.7323
 8277TIP3    H246247   1.707   2.320   2.708 -1.2277 -0.4109  0.2081
 8278TIP3   OH246248   2.951   3.283  15.094  0.1898  0.8210 -0.2682
 8278TIP3    H146249   2.998   3.365  15.104  2.7532 -0.3810 -1.6269
 8278TIP3    H246250   2.937   3.252  15.183  1.8211  1.3304  0.1958
 8279TIP3   OH246251   5.231   1.399   5.416  0.0940  0.0401 -0.7291
 8279TIP3    H146252   5.257   1.456   5.343 -0.1323  0.5537 -0.4128
 8279TIP3    H246253   5.136   1.392   5.409  0.2525 -1.8439 -1.8881
 8280TIP3   OH246254   0.247   3.447   2.590 -0.2041 -0.2475  0.1746
 8280TIP3    H146255   0.325   3.399   2.620 -0.6540 -1.9281 -1.1738
 8280TIP3    H246256   0.258   3.535   2.626  1.3948 -0.9470  1.5517
 8281TIP3   OH246257   2.403   6.507  14.195 -0.3481 -0.2845  0.4166
 8281TIP3    H146258   2.496   6.525  14.179 -0.6371  0.7154 -0.2018
 8281TIP3    H246259   2.392   6.522  14.289  0.0643 -0.2077  0.4553
 8282TIP3   OH246260   3.967   2.315   5.357  0.6098  0.0352 -0.1917
 8282TIP3    H146261   4.053   2.272   5.353 -0.2964 -1.7973 -1.1091
 8282TIP3    H246262   3.926   2.280   5.436 -0.6134 -1.8743 -1.5811
 8283TIP3   OH246263   2.815   3.649   0.841 -0.0411  0.0952  0.3482
 8283TIP3    H146264   2.796   3.638   0.748  0.7788 -1.2358  0.3075
 8283TIP3    H246265   2.903   3.687   0.842 -0.2445  0.5619  0.5802
 8284TIP3   OH246266   0.807   2.784  12.076  0.3549 -0.4034  0.0348
 8284TIP3    H146267   0.883   2.822  12.032  1.0445 -0.1326  1.3890
 8284TIP3    H246268   0.760   2.737  12.008  0.8081  0.8606 -1.1890
 8285TIP3   OH246269   4.107   4.733   4.915 -0.2120  0.4830 -0.0513
 8285TIP3    H146270   4.149   4.689   4.841 -1.0558  0.6839 -0.6638
 8285TIP3    H246271   4.147   4.820   4.918 -0.3506  0.5614 -0.4320
 8286TIP3   OH246272   2.304   6.255   3.306  0.2787 -0.7700 -0.5150
 8286TIP3    H146273   2.321   6.284   3.396 -0.5264  0.0941 -0.6272
 8286TIP3    H246274   2.390   6.229   3.273  0.6682 -0.6029  0.3382
 8287TIP3   OH246275   2.353   5.915   1.358 -0.2535 -0.3556  0.1198
 8287TIP3    H146276   2.399   5.854   1.415 -1.2728 -1.2974 -0.0088
 8287TIP3    H246277   2.280   5.948   1.411  1.1258  1.9921  0.7066
 8288TIP3   OH246278   3.685   4.020   2.535 -0.1258  0.4468 -0.0413
 8288TIP3    H146279   3.666   3.927   2.538 -1.9235  0.7447 -0.7013
 8288TIP3    H246280   3.676   4.049   2.626  0.7697 -0.0601  0.2190
 8289TIP3   OH246281   2.213   3.818   3.384 -0.0946  0.4450 -0.1895
 8289TIP3    H146282   2.158   3.745   3.355 -1.2570  1.0920  0.3519
 8289TIP3    H246283   2.281   3.824   3.317  1.0874 -2.2528  0.6232
 8290TIP3   OH246284   0.740   4.919   5.999 -0.1159  0.7879 -0.3767
 8290TIP3    H146285   0.816   4.863   5.986  1.1163  2.3517 -0.1909
 8290TIP3    H246286   0.682   4.867   6.055  1.3244 -0.0073  0.4440
 8291TIP3   OH246287   3.931   3.977   3.479  0.1743  0.2271  0.4134
 8291TIP3    H146288   3.909   4.022   3.398 -2.5269 -0.9364  0.4182
 8291TIP3    H246289   3.893   3.890   3.470  1.5165 -0.6228  2.1569
 8292TIP3   OH246290   1.342   5.841   3.002 -0.3051  0.4185  0.0694
 8292TIP3    H146291   1.290   5.868   2.926 -2.5329  0.9503  1.6754
 8292TIP3    H246292   1.422   5.893   2.995  1.1280 -1.8551 -3.5605
 8293TIP3   OH246293   6.119   5.731   1.404  0.0560  0.5943 -0.0987
 8293TIP3    H146294   6.159   5.786   1.471  0.2163  0.6400 -0.2302
 8293TIP3    H246295   6.087   5.792   1.338 -0.4616  0.5697  0.1316
 8294TIP3   OH246296   5.283   1.676   4.566  0.3903  0.4658  0.2915
 8294TIP3    H146297   5.272   1.600   4.623 -0.7183 -0.4350 -1.0291
 8294TIP3    H246298   5.286   1.751   4.625  0.6902 -0.5340  1.5868
 8295TIP3   OH246299   1.630   5.178  17.178  0.1239  0.0440 -0.0585
 8295TIP3    H146300   1.698   5.245  17.181  1.9397 -1.5959 -1.8760
 8295TIP3    H246301   1.638   5.139  17.091 -2.8439 -0.5941 -0.1487
 8296TIP3   OH246302   1.447   3.262   1.823 -0.0730 -0.3246 -0.1662
 8296TIP3    H146303   1.397   3.189   1.861  1.0185 -2.2896 -2.2292
 8296TIP3    H246304   1.523   3.271   1.881  0.5577 -1.9241 -0.6841
 8297TIP3   OH246305   4.554   2.659   4.036 -0.1972 -0.4746  0.1032
 8297TIP3    H146306   4.499   2.647   3.958 -0.2107 -1.5650  0.2589
 8297TIP3    H246307   4.516   2.734   4.081 -2.9720 -2.4204  1.3317
 8298TIP3   OH246308   1.009   5.944  13.203 -0.8291  0.2489  0.3758
 8298TIP3    H146309   0.943   5.976  13.142 -0.7686 -0.2267  0.0547
 8298TIP3    H246310   0.982   5.854  13.222 -0.9737  0.4661  1.2271
 8299TIP3   OH246311   5.815   5.688  16.633  0.1822 -0.0343 -1.0011
 8299TIP3    H146312   5.783   5.598  16.635 -0.8191  0.2946 -1.4816
 8299TIP3    H246313   5.836   5.704  16.540 -1.2342  0.7445 -1.2183
 8300TIP3   OH246314   5.107   4.482  16.958  0.1317 -0.7994 -0.4745
 8300TIP3    H146315   5.166   4.555  16.980 -1.6448  0.4607  0.3808
 8300TIP3    H246316   5.056   4.469  17.038 -0.4970 -2.1110 -1.0710
 8301TIP3   OH246317   3.699   4.197  15.924  0.0456  0.5342 -0.5305
 8301TIP3    H146318   3.676   4.143  15.849 -0.4127  0.8742 -0.6330
 8301TIP3    H246319   3.738   4.276  15.886  2.6453 -0.5681 -0.3540
 8302TIP3   OH246320   5.724   0.794  12.985 -0.6592  0.3505  0.4203
 8302TIP3    H146321   5.801   0.743  13.009  0.1328  0.9416 -0.7482
 8302TIP3    H246322   5.729   0.801  12.890 -2.1183  0.4792  0.3349
 8303TIP3   OH246323   6.042   1.497   1.446  0.2796  0.3245 -0.1845
 8303TIP3    H146324   6.116   1.511   1.387  0.0999  1.6248 -0.1148
 8303TIP3    H246325   5.966   1.490   1.389  0.5308 -2.0693 -0.3414
 8304TIP3   OH246326   5.707   0.663  14.956  0.3866 -0.3312  0.4223
 8304TIP3    H146327   5.803   0.668  14.947  0.5034 -0.6298  1.3507
 8304TIP3    H246328   5.679   0.754  14.962  0.7306 -0.2641  1.1393
 8305TIP3   OH246329   0.166   0.911  15.753 -0.2795 -0.1718 -0.6573
 8305TIP3    H146330   0.219   0.985  15.782 -0.0295 -0.3506 -0.6585
 8305TIP3    H246331   0.226   0.855  15.704  0.2113 -1.6806  1.5076
 8306TIP3   OH246332   6.528   4.760   4.781 -0.1262 -0.0982  0.2828
 8306TIP3    H146333   6.492   4.849   4.780  0.6664  0.2299 -0.8599
 8306TIP3    H246334   6.532   4.734   4.689 -1.4885 -1.8225  0.6608
 8307TIP3   OH246335   2.974   6.110  11.378 -0.1197  0.2986  0.1291
 8307TIP3    H146336   2.964   6.205  11.390 -1.6957 -0.1016  2.6435
 8307TIP3    H246337   2.905   6.072  11.432  1.6788 -2.3599  0.7036
 8308TIP3   OH246338   4.453   5.045  17.032  0.6144  0.4683  0.4389
 8308TIP3    H146339   4.420   5.131  17.057 -0.4811  0.1399  0.1695
 8308TIP3    H246340   4.448   5.044  16.936 -0.1805 -0.1833  0.4720
 8309TIP3   OH246341   0.016   0.549   4.882 -0.9599  0.0917  0.2476
 8309TIP3    H146342  -0.037   0.472   4.906  0.5624 -0.4909  2.0089
 8309TIP3    H246343  -0.047   0.612   4.848 -2.1551 -2.3147 -2.4319
 8310TIP3   OH246344   1.894   2.974  14.453  0.3434  0.2713 -0.3583
 8310TIP3    H146345   1.952   3.033  14.501 -0.2713  1.2380 -0.7670
 8310TIP3    H246346   1.851   2.923  14.521 -0.1010  1.2310  0.1048
 8311TIP3   OH246347   2.308   6.118   4.368 -0.6820 -0.0540 -0.3170
 8311TIP3    H146348   2.317   6.022   4.369 -0.5488 -0.0492  1.1116
 8311TIP3    H246349   2.370   6.148   4.435 -0.7594  1.0348 -0.7229
 8312TIP3   OH246350   2.678   0.009  12.460  0.5452 -0.3185 -0.3386
 8312TIP3    H146351   2.635  -0.076  12.458  1.1843 -0.7383  1.4194
 8312TIP3    H246352   2.746  -0.000  12.527 -2.2764  2.8459  3.4672
 8313TIP3   OH246353   1.226   1.778   3.622 -0.4036  0.3347 -0.7823
 8313TIP3    H146354   1.231   1.773   3.527 -0.0287  1.3148 -0.8304
 8313TIP3    H246355   1.317   1.777   3.651 -0.3156  3.0471 -0.6551
 8314TIP3   OH246356   0.131   1.011   0.420  0.2225  0.3736 -0.1147
 8314TIP3    H146357   0.082   1.094   0.428 -1.0872 -0.5382  2.8329
 8314TIP3    H246358   0.220   1.034   0.446  0.3957  1.2420 -1.3956
 8315TIP3   OH246359   0.768   3.753   1.554 -0.2319  0.0228 -0.5328
 8315TIP3    H146360   0.749   3.792   1.640  0.2383 -1.8589  0.4870
 8315TIP3    H246361   0.700   3.686   1.543  0.3817 -0.5146 -1.1193
 8316TIP3   OH246362   1.342   5.777  13.471  0.2860  0.6600  0.0604
 8316TIP3    H146363   1.413   5.718  13.445 -0.6976 -0.0190 -1.1751
 8316TIP3    H246364   1.347   5.780  13.567  1.9884  0.6664  0.0077
 8317TIP3   OH246365   0.271   5.823   3.050  0.4640  0.0514  0.3142
 8317TIP3    H146366   0.336   5.886   3.080  0.4444  0.9031 -1.3246
 8317TIP3    H246367   0.322   5.746   3.027  1.0118  0.8895 -1.4435
 8318TIP3   OH246368   4.801   3.923   4.396  0.1433  0.3348  0.1005
 8318TIP3    H146369   4.766   3.868   4.466 -0.0101  0.5068  0.1594
 8318TIP3    H246370   4.847   3.994   4.441 -1.2744  1.3195  0.0616
 8319TIP3   OH246371   1.861   3.705   3.576 -0.3462 -0.0248  0.3237
 8319TIP3    H146372   1.868   3.685   3.669  0.1957  1.8684  0.7327
 8319TIP3    H246373   1.791   3.647   3.544  0.0127 -1.2808  1.7054
 8320TIP3   OH246374   3.884   6.270  13.421 -0.3980  0.0589  0.2040
 8320TIP3    H146375   3.899   6.220  13.502 -1.4621  1.2703  1.2044
 8320TIP3    H246376   3.854   6.356  13.452 -0.8050  0.5584 -1.4921
 8321TIP3   OH246377   3.417   6.190   4.087  0.2610  0.0750 -0.5229
 8321TIP3    H146378   3.478   6.137   4.139  0.0879  0.0772 -0.3182
 8321TIP3    H246379   3.470   6.220   4.012  0.4019 -0.2554 -0.5593
 8322TIP3   OH246380   3.254   3.510  16.261  0.6754 -0.3106 -0.0617
 8322TIP3    H146381   3.200   3.436  16.235 -2.8396  1.9236  0.1425
 8322TIP3    H246382   3.285   3.548  16.178 -0.5393 -0.0055 -0.3974
 8323TIP3   OH246383   0.102   1.590   1.752 -0.0797  0.4775  0.3834
 8323TIP3    H146384   0.112   1.634   1.836  1.7671 -0.4060  0.6895
 8323TIP3    H246385   0.024   1.535   1.763  0.5371 -0.1760  1.8171
 8324TIP3   OH246386   3.517   4.663  14.603 -0.0473  0.0303  0.0287
 8324TIP3    H146387   3.478   4.736  14.555 -0.6353 -0.7820 -0.7600
 8324TIP3    H246388   3.525   4.695  14.693 -1.6250  0.5691  0.0115
 8325TIP3   OH246389   1.444   3.632  11.875 -0.5944  0.4495  0.0301
 8325TIP3    H146390   1.366   3.671  11.914 -2.1815 -0.2007 -2.2498
 8325TIP3    H246391   1.433   3.538  11.890  1.0564  0.4859  1.8184
 8326TIP3   OH246392   2.561   3.399   0.050  0.2518  0.0431  0.2147
 8326TIP3    H146393   2.493   3.344   0.010  0.4109  1.5262 -2.3666
 8326TIP3    H246394   2.583   3.355   0.132  0.8616 -4.1533 -1.9043
 8327TIP3   OH246395   2.142   4.053  14.943  0.4266 -1.2572  0.6696
 8327TIP3    H146396   2.123   4.057  14.850 -0.5621  1.3357  0.9074
 8327TIP3    H246397   2.158   3.960  14.960  1.2846 -1.7253 -2.1616
 8328TIP3   OH246398   3.203   3.298  15.443  0.3677  0.1353 -0.0227
 8328TIP3    H146399   3.284   3.344  15.462  0.7252 -1.0949  1.6487
 8328TIP3    H246400   3.218   3.209  15.474 -1.4117 -0.2613 -0.2002
 8329TIP3   OH246401   6.325   5.393   6.205 -0.7392 -0.2112 -0.2023
 8329TIP3    H146402   6.263   5.366   6.272 -0.5443 -1.3246 -0.4578
 8329TIP3    H246403   6.306   5.338   6.129  0.4303 -0.4430 -0.3486
 8330TIP3   OH246404   5.035   2.195  12.650 -0.2993 -0.5483  0.4890
 8330TIP3    H146405   4.973   2.266  12.633  0.8258  0.6850  1.3806
 8330TIP3    H246406   5.053   2.158  12.564  0.9925  1.8860 -0.3795
 8331TIP3   OH246407   1.423   3.350   1.213 -0.2774 -0.0249  0.1766
 8331TIP3    H146408   1.367   3.428   1.206  2.5185  2.1321 -0.2163
 8331TIP3    H246409   1.462   3.342   1.126  0.6836 -0.8878  0.6742
 8332TIP3   OH246410   3.335   4.473  11.032 -0.5642  0.8485  0.1516
 8332TIP3    H146411   3.267   4.537  11.009 -1.1441  0.5767  1.0467
 8332TIP3    H246412   3.403   4.486  10.966 -1.6015  0.9341 -0.9550
 8333TIP3   OH246413   6.354   0.494   2.386  0.1973  0.0397 -0.0089
 8333TIP3    H146414   6.289   0.561   2.406  0.9854  0.9731 -0.4686
 8333TIP3    H246415   6.325   0.416   2.433 -1.9917  0.0262 -1.2697
 8334TIP3   OH246416   2.092   0.030   3.075  0.2413 -0.7653  0.0732
 8334TIP3    H146417   2.019   0.075   3.033  0.5763  0.8646  1.1814
 8334TIP3    H246418   2.170   0.062   3.030  0.4549 -0.5220  0.6073
 8335TIP3   OH246419   1.426   3.234   3.341  0.0858  0.1318  0.6383
 8335TIP3    H146420   1.345   3.186   3.327  0.5239 -0.4052 -0.1415
 8335TIP3    H246421   1.398   3.322   3.368 -0.8312  0.6634 -1.8013
 8336TIP3   OH246422   5.366   0.220   5.233  0.7118 -0.0130  0.0761
 8336TIP3    H146423   5.362   0.307   5.274  0.1249  0.4182 -0.8580
 8336TIP3    H246424   5.278   0.206   5.199  0.0416 -2.0921  2.3494
 8337TIP3   OH246425   4.348   5.683   3.194 -0.6918 -0.2260  0.1586
 8337TIP3    H146426   4.306   5.601   3.168  0.4765 -0.7914 -0.0369
 8337TIP3    H246427   4.442   5.667   3.181 -0.2808  0.4635  1.9611
 8338TIP3   OH246428   5.679   0.856   0.829 -0.4063 -0.0764 -0.0574
 8338TIP3    H146429   5.724   0.816   0.903  0.5819 -1.3963 -1.3121
 8338TIP3    H246430   5.640   0.936   0.864 -1.5400 -1.5699  2.2983
 8339TIP3   OH246431   0.776   6.589   0.670  0.3521 -0.5290 -0.3923
 8339TIP3    H146432   0.759   6.502   0.634  2.0402 -0.1982 -2.1496
 8339TIP3    H246433   0.699   6.641   0.645  0.3237 -0.9893 -1.3115
 8340TIP3   OH246434   4.769   0.450  17.228 -0.7301  0.0285  0.3145
 8340TIP3    H146435   4.694   0.416  17.276 -0.1866  1.2487  2.1334
 8340TIP3    H246436   4.742   0.449  17.136 -1.1583 -4.0577  0.3123
 8341TIP3   OH246437   3.539   3.835  16.980  0.2330  0.0848 -0.2631
 8341TIP3    H146438   3.572   3.915  17.020 -1.1368 -0.1072  1.3718
 8341TIP3    H246439   3.481   3.865  16.910 -1.1710  0.6164  1.0657
 8342TIP3   OH246440   1.363   4.977   5.405  0.0399 -0.0673 -0.1855
 8342TIP3    H146441   1.381   4.891   5.368  1.1818  0.0503  0.0311
 8342TIP3    H246442   1.449   5.019   5.409 -0.3933  0.7939  0.4140
 8343TIP3   OH246443   2.929   3.825  14.717 -0.2827  0.2974 -0.2767
 8343TIP3    H146444   2.931   3.799  14.624 -0.7105  0.2279 -0.2671
 8343TIP3    H246445   3.005   3.781  14.755  0.5048  1.1482 -0.8053
 8344TIP3   OH246446   3.187   1.821   4.357 -0.0004  0.1119  0.0219
 8344TIP3    H146447   3.161   1.751   4.298  1.2527  0.0440 -0.4742
 8344TIP3    H246448   3.283   1.825   4.350  0.0182  1.3409  0.6392
 8345TIP3   OH246449   4.308   1.914  15.894  0.7252  0.0028 -0.5784
 8345TIP3    H146450   4.286   1.970  15.968 -2.3985  0.5338 -1.7505
 8345TIP3    H246451   4.286   1.966  15.816  0.8830 -1.6247 -1.7764
 8346TIP3   OH246452   4.537   4.856   1.959  0.2824 -0.3420 -0.2223
 8346TIP3    H146453   4.618   4.902   1.980  1.0472 -0.9644 -1.6543
 8346TIP3    H246454   4.480   4.873   2.034  1.4023  0.8611  0.4096
 8347TIP3   OH246455   4.779   2.671  13.809  0.0409  0.3821  0.1415
 8347TIP3    H146456   4.711   2.628  13.860  0.1121  1.0268  0.8012
 8347TIP3    H246457   4.765   2.640  13.719  0.1973 -1.1060  0.6209
 8348TIP3   OH246458   5.592   4.751   1.585  0.3712 -0.2671 -0.3203
 8348TIP3    H146459   5.578   4.742   1.679 -0.5616 -0.8229 -0.4964
 8348TIP3    H246460   5.504   4.764   1.549  0.8658  1.5553 -0.9607
 8349TIP3   OH246461   1.467   1.560  14.716 -0.4213 -0.1344  0.1751
 8349TIP3    H146462   1.523   1.508  14.774 -0.5221 -0.7972 -0.3049
 8349TIP3    H246463   1.423   1.495  14.661  1.1062  0.5205 -1.9754
 8350TIP3   OH246464   6.044   3.368   2.830  0.0431  0.8418 -0.3412
 8350TIP3    H146465   6.100   3.409   2.764  0.4991 -0.2417 -0.6558
 8350TIP3    H246466   6.087   3.387   2.913  0.3375  0.8652 -0.4971
 8351TIP3   OH246467   5.427   4.032   3.601 -0.1708  0.5105 -0.4723
 8351TIP3    H146468   5.432   4.039   3.697  0.2009 -0.5069 -0.4037
 8351TIP3    H246469   5.427   4.122   3.571 -1.7212  0.8919  0.5442
 8352TIP3   OH246470   2.035   5.976  11.555  0.5062  0.0920  0.0628
 8352TIP3    H146471   2.089   6.052  11.536  0.4456  0.5473  1.6018
 8352TIP3    H246472   2.033   5.970  11.650 -2.6411  0.4675  0.1257
 8353TIP3   OH246473   6.538   3.490   0.505 -1.1748 -0.2181 -0.6870
 8353TIP3    H146474   6.619   3.501   0.455 -1.4946 -2.6826 -1.9124
 8353TIP3    H246475   6.550   3.545   0.582  1.8361 -0.7241 -0.6497
 8354TIP3   OH246476   6.086   5.540  16.810 -0.2278  0.4122 -0.2599
 8354TIP3    H146477   6.066   5.502  16.725 -1.9604 -0.2479  0.3969
 8354TIP3    H246478   6.018   5.606  16.823 -0.7465 -0.3632  1.1314
 8355TIP3   OH246479   1.410   0.214  15.781  0.6490 -0.2854  0.1234
 8355TIP3    H146480   1.445   0.186  15.866  0.7863 -0.1328  0.1179
 8355TIP3    H246481   1.487   0.242  15.732  1.0873 -3.4522 -1.2864
 8356TIP3   OH246482   0.633   1.759   6.212  0.1298 -0.4634  0.9256
 8356TIP3    H146483   0.709   1.713   6.176  0.7717 -0.0552  1.7347
 8356TIP3    H246484   0.559   1.700   6.196  0.5365 -0.6743 -0.2617
 8357TIP3   OH246485   1.701   5.291  15.424 -0.1459 -0.1992 -0.0927
 8357TIP3    H146486   1.730   5.352  15.356  1.7560 -0.0176  0.8266
 8357TIP3    H246487   1.606   5.295  15.420 -0.0717  0.8096 -1.8487
 8358TIP3   OH246488   5.541   1.760   4.005  0.9346  0.0441  0.1891
 8358TIP3    H146489   5.521   1.676   3.964  3.3181 -1.5242  1.9929
 8358TIP3    H246490   5.563   1.818   3.932 -2.1008 -0.3528 -1.2133
 8359TIP3   OH246491   4.373   2.782   5.464  0.0918  0.3656  0.1483
 8359TIP3    H146492   4.404   2.776   5.555  2.2150 -0.4737 -0.5683
 8359TIP3    H246493   4.352   2.692   5.440 -1.9138  0.7761  0.2346
 8360TIP3   OH246494   3.137   1.622  12.020  0.6074 -0.5278 -0.1193
 8360TIP3    H146495   3.179   1.705  12.039  0.8456 -0.1968 -1.9160
 8360TIP3    H246496   3.124   1.622  11.925 -3.0084 -0.8005  0.2070
 8361TIP3   OH246497   4.687   2.542  14.253  0.0416  0.7208  0.0782
 8361TIP3    H146498   4.762   2.593  14.223 -0.7224  1.7824 -0.1103
 8361TIP3    H246499   4.616   2.606  14.259 -0.4310  0.1016  1.8762
 8362TIP3   OH246500   3.006   5.943   0.842  0.2494  0.2400 -0.1763
 8362TIP3    H146501   3.023   6.037   0.853  0.2406  0.2553 -0.2838
 8362TIP3    H246502   3.026   5.904   0.927  0.6597  0.2779 -0.2538
 8363TIP3   OH246503   5.720   4.543  15.428 -0.5238  0.0321 -0.6924
 8363TIP3    H146504   5.632   4.516  15.453 -0.7841  0.9779 -0.5872
 8363TIP3    H246505   5.707   4.616  15.368  0.2078  0.6460 -0.1118
 8364TIP3   OH246506   0.534   1.294   5.918  0.0062 -0.2835  0.4690
 8364TIP3    H146507   0.559   1.387   5.919 -0.9190 -0.0049 -0.5545
 8364TIP3    H246508   0.560   1.262   6.004 -0.8085  1.2573  1.3391
 8365TIP3   OH246509   2.827   0.200  12.819  0.4004  0.2234  0.0193
 8365TIP3    H146510   2.826   0.154  12.903 -0.2718 -0.4590 -0.3447
 8365TIP3    H246511   2.841   0.292  12.842 -1.7109  0.3634  1.0686
 8366TIP3   OH246512   2.233   4.633  15.924  0.7038 -0.1379 -0.0257
 8366TIP3    H146513   2.261   4.629  16.016 -1.8350 -1.1417  0.7818
 8366TIP3    H246514   2.229   4.727  15.905  2.3577  0.0795  0.4665
 8367TIP3   OH246515   4.167   1.368  12.066 -0.2990  0.3634 -0.2547
 8367TIP3    H146516   4.076   1.358  12.039 -1.2753 -0.3887  2.8890
 8367TIP3    H246517   4.217   1.356  11.986 -2.9144 -0.0039 -1.9607
 8368TIP3   OH246518   2.713   6.080   3.338 -0.0860 -0.3181 -0.5481
 8368TIP3    H146519   2.770   6.007   3.361 -0.1276 -0.6818 -1.5859
 8368TIP3    H246520   2.743   6.152   3.395 -2.1960 -1.9632  2.9917
 8369TIP3   OH246521   5.324   5.261   4.755  0.4525  0.1396 -0.6329
 8369TIP3    H146522   5.404   5.287   4.801 -0.9752  1.2907  1.3596
 8369TIP3    H246523   5.337   5.289   4.665  1.5910  1.9140  0.0459
 8370TIP3   OH246524   2.560   6.519   6.826 -0.4395  0.1546  0.4142
 8370TIP3    H146525   2.557   6.424   6.837  0.0027 -0.2611 -2.3485
 8370TIP3    H246526   2.469   6.547   6.827 -0.7150 -0.6295 -0.8705
 8371TIP3   OH246527   1.962   6.169  12.404 -0.4702  0.3306 -0.4054
 8371TIP3    H146528   1.923   6.248  12.368 -0.9858  0.8728  1.2558
 8371TIP3    H246529   1.987   6.193  12.493  2.3321 -0.4264 -0.8718
 8372TIP3   OH246530   0.413   2.269   1.360 -0.4805 -0.6212 -0.3276
 8372TIP3    H146531   0.340   2.320   1.324  0.8731  1.9232  0.3464
 8372TIP3    H246532   0.379   2.233   1.442 -0.8379  1.0172  0.2743
 8373TIP3   OH246533   4.444   0.701   1.637 -0.1710 -0.2030  0.3945
 8373TIP3    H146534   4.424   0.758   1.562  0.9859 -0.0480  0.1874
 8373TIP3    H246535   4.540   0.701   1.642 -0.1390 -2.1158  0.4040
 8374TIP3   OH246536   2.132   4.847   6.136 -0.4487 -0.3426 -0.3515
 8374TIP3    H146537   2.047   4.817   6.106 -0.3033 -0.6981 -0.4162
 8374TIP3    H246538   2.132   4.830   6.230 -0.1714 -1.0340 -0.4716
 8375TIP3   OH246539   1.887   5.509  14.259  0.0884 -0.4874  0.0317
 8375TIP3    H146540   1.908   5.587  14.309 -1.5206  0.1032 -0.1762
 8375TIP3    H246541   1.865   5.541  14.172  0.9034 -1.3277 -0.5075
 8376TIP3   OH246542   3.345   4.865  11.923  0.0737  0.3276 -0.2173
 8376TIP3    H146543   3.332   4.783  11.877 -0.3966  0.3042 -0.0520
 8376TIP3    H246544   3.344   4.932  11.855 -2.1188  0.4481 -0.1389
 8377TIP3   OH246545   3.066   6.348  12.207 -0.6630 -0.3390 -0.0047
 8377TIP3    H146546   3.040   6.261  12.176 -0.7281 -0.0060 -0.8935
 8377TIP3    H246547   3.010   6.363  12.284 -0.7978 -0.9929  0.0338
 8378TIP3   OH246548   1.148   4.309   5.403 -0.1190  0.4423 -0.1652
 8378TIP3    H146549   1.147   4.371   5.477  1.2018 -0.4735  0.6543
 8378TIP3    H246550   1.240   4.288   5.390 -0.3874  0.1124 -1.7032
 8379TIP3   OH246551   5.606   5.438  16.916 -0.2185 -0.3894 -0.3730
 8379TIP3    H146552   5.670   5.464  16.850 -1.0932 -0.6302 -1.3499
 8379TIP3    H246553   5.590   5.517  16.967 -0.0645  0.0019 -0.9222
 8380TIP3   OH246554   5.867   3.969   5.771  0.1553  0.4662  0.3117
 8380TIP3    H146555   5.904   3.940   5.855  0.8221  1.0466  0.2257
 8380TIP3    H246556   5.863   4.064   5.778 -0.3295  0.4789 -0.0998
 8381TIP3   OH246557   5.030   6.315  16.687  0.1115  0.2614  0.0781
 8381TIP3    H146558   5.094   6.284  16.623  0.7451 -0.1905  0.9008
 8381TIP3    H246559   4.990   6.235  16.721 -0.2613  0.4973  0.1960
 8382TIP3   OH246560   4.053   1.547   2.739  0.2714 -0.0447  0.4971
 8382TIP3    H146561   4.073   1.454   2.751  1.7143  0.1873  0.0710
 8382TIP3    H246562   3.973   1.548   2.687 -0.4558 -1.0349  1.5426
 8383TIP3   OH246563   5.471   6.334  11.802  0.4281 -0.1408  0.1114
 8383TIP3    H146564   5.453   6.249  11.761  1.8994 -0.1958 -0.4910
 8383TIP3    H246565   5.426   6.330  11.886 -2.2056 -0.2374 -1.2170
 8384TIP3   OH246566   3.025   5.995   3.120 -0.7530  0.0059 -0.2561
 8384TIP3    H146567   3.083   5.926   3.152 -2.5764 -1.2497  0.5394
 8384TIP3    H246568   2.981   6.028   3.199 -0.6226  1.4320 -0.7417
 8385TIP3   OH246569   0.235   0.830   6.706  0.0004  0.1221  0.3734
 8385TIP3    H146570   0.326   0.827   6.737  1.0893  1.7554 -2.3029
 8385TIP3    H246571   0.208   0.920   6.720  0.1776  0.6497 -2.1548
 8386TIP3   OH246572   5.873   5.602   2.397  0.6791 -0.3150  0.1116
 8386TIP3    H146573   5.917   5.670   2.448 -1.2153  1.4847 -0.4930
 8386TIP3    H246574   5.862   5.530   2.458  0.9535  0.7062  1.4145
 8387TIP3   OH246575   3.066   2.070   0.319  0.0994  0.1643 -0.2137
 8387TIP3    H146576   2.994   2.084   0.258 -2.0701  0.0685  2.1616
 8387TIP3    H246577   3.110   2.155   0.324  0.3342  0.1727 -1.8529
 8388TIP3   OH246578   5.943   5.862  11.790 -0.2963 -0.0337 -0.0990
 8388TIP3    H146579   5.926   5.814  11.871 -1.2458 -0.8952 -0.7860
 8388TIP3    H246580   6.018   5.817  11.751 -1.3437 -1.1654 -0.8694
 8389TIP3   OH246581   2.009   2.388   1.424  0.0079 -0.1428  0.1445
 8389TIP3    H146582   1.991   2.296   1.443  1.0075  0.0375  2.2797
 8389TIP3    H246583   1.937   2.415   1.368  1.2956 -2.9655 -3.2021
 8390TIP3   OH246584   6.689   5.859   1.818  0.7620 -0.5038 -0.0549
 8390TIP3    H146585   6.703   5.768   1.846  0.3613 -1.1223 -1.7443
 8390TIP3    H246586   6.728   5.864   1.731  0.6515  0.9186 -0.0477
 8391TIP3   OH246587   6.631   4.913  17.138  0.0871 -0.3142 -0.5247
 8391TIP3    H146588   6.566   4.844  17.130 -0.5970  0.3847 -1.2311
 8391TIP3    H246589   6.673   4.916  17.052  0.8002 -0.5036 -0.1928
 8392TIP3   OH246590   5.382   1.579   6.599 -0.1090  0.1299  0.0872
 8392TIP3    H146591   5.410   1.627   6.676  1.7419  1.7136 -1.4655
 8392TIP3    H246592   5.373   1.489   6.629  1.2148  0.5681  1.9953
 8393TIP3   OH246593   3.346   6.422   2.426  0.4929  0.0117 -0.5676
 8393TIP3    H146594   3.373   6.380   2.345  0.6805 -1.0659  0.0265
 8393TIP3    H246595   3.256   6.391   2.440 -0.7000  2.5826 -1.8936
 8394TIP3   OH246596   1.348   0.763  17.004  0.1624  1.2372 -0.0649
 8394TIP3    H146597   1.339   0.687  17.061 -1.3292  2.6536  1.7193
 8394TIP3    H246598   1.409   0.821  17.050  1.0130  1.3147 -1.2312
 8395TIP3   OH246599   1.003   2.135  11.524 -0.3792  0.8013 -0.1260
 8395TIP3    H146600   0.952   2.055  11.508  0.2021  0.3358  0.3179
 8395TIP3    H246601   1.046   2.152  11.440 -1.2237  1.1905 -0.5044
 8396TIP3   OH246602   2.540   3.071  14.830 -0.0504  0.1883 -0.4534
 8396TIP3    H146603   2.451   3.062  14.863 -0.6771  1.8558 -1.5887
 8396TIP3    H246604   2.590   3.104  14.905 -0.6254  0.3114 -0.1216
 8397TIP3   OH246605   1.921   5.251  10.824 -0.7731  0.3036  0.1800
 8397TIP3    H146606   1.862   5.281  10.755 -1.0794 -1.6123 -0.4337
 8397TIP3    H246607   1.977   5.327  10.841  0.0344  0.5437 -2.9379
 8398TIP3   OH246608   2.482   0.731   3.674 -0.2777  0.2091 -0.4652
 8398TIP3    H146609   2.521   0.644   3.666  0.8527  0.6047  0.4769
 8398TIP3    H246610   2.388   0.714   3.681 -0.3187 -0.7820 -2.5717
 8399TIP3   OH246611   3.288   0.557  16.441  0.6331  0.0286 -0.3972
 8399TIP3    H146612   3.334   0.493  16.495 -2.1759 -1.2981  0.6031
 8399TIP3    H246613   3.203   0.518  16.423 -1.0571  3.2295 -0.2063
 8400TIP3   OH246614   0.182   0.146   5.806  0.0522 -1.0869  0.5617
 8400TIP3    H146615   0.086   0.148   5.807  0.0627  0.8164  0.6407
 8400TIP3    H246616   0.205   0.140   5.714 -0.1617  1.2650  0.3181
 8401TIP3   OH246617   4.634   3.347  14.574 -0.2300  0.4585 -0.5443
 8401TIP3    H146618   4.667   3.436  14.584 -0.5056  0.7023 -1.6497
 8401TIP3    H246619   4.712   3.293  14.565  0.0636  0.1894  2.5984
 8402TIP3   OH246620   1.646   6.248   2.498  0.4081 -0.6424 -0.3727
 8402TIP3    H146621   1.632   6.186   2.427  0.8664  0.1246 -1.1598
 8402TIP3    H246622   1.720   6.213   2.547  1.9663  0.2415 -1.9819
 8403TIP3   OH246623   1.963   2.448  12.984 -0.7272 -0.5756 -0.0457
 8403TIP3    H146624   2.028   2.450  13.055  0.0452  0.2770 -0.7588
 8403TIP3    H246625   2.003   2.393  12.917  0.1641  1.4978 -1.3031
 8404TIP3   OH246626   4.161   2.340   4.428  0.0054  0.6538 -0.2422
 8404TIP3    H146627   4.209   2.359   4.509  1.3494 -0.6334 -0.6906
 8404TIP3    H246628   4.199   2.400   4.364  0.8384 -0.1449 -0.5206
 8405TIP3   OH246629   2.977   0.603   2.675 -0.5910  0.3945  0.1489
 8405TIP3    H146630   3.039   0.646   2.735 -0.1877  0.4924 -0.3266
 8405TIP3    H246631   2.932   0.676   2.632 -0.0311  0.3461 -0.5311
 8406TIP3   OH246632   3.902   1.661  12.823 -0.7122  0.8188 -0.0955
 8406TIP3    H146633   3.985   1.616  12.842 -0.5198  0.6369 -1.3326
 8406TIP3    H246634   3.927   1.732  12.764 -1.3482  1.2187  0.1113
 8407TIP3   OH246635   2.184   6.457  12.785 -0.7223 -0.3852 -0.1083
 8407TIP3    H146636   2.139   6.372  12.780 -1.5393  0.0590 -0.3938
 8407TIP3    H246637   2.132   6.508  12.846 -0.8694  0.2912 -0.7832
 8408TIP3   OH246638   5.281   4.546  15.703  0.4004  1.0067  0.7165
 8408TIP3    H146639   5.252   4.634  15.726  1.0280  1.6270 -0.7050
 8408TIP3    H246640   5.376   4.547  15.715  0.4265  0.5593  0.6026
 8409TIP3   OH246641   1.685   1.784  14.199  0.0433 -0.1629  0.0024
 8409TIP3    H146642   1.720   1.790  14.110 -0.5538  0.4300 -0.2057
 8409TIP3    H246643   1.732   1.712  14.239  2.5426  1.4664  0.2066
 8410TIP3   OH246644   1.855   2.917   4.809 -0.1099  0.2601 -0.0149
 8410TIP3    H146645   1.899   2.975   4.872 -1.3529  0.0788  1.0517
 8410TIP3    H246646   1.763   2.941   4.815 -0.8027 -2.2748  1.0133
 8411TIP3   OH246647   3.184   0.157   3.246  0.6857  0.3320 -0.1841
 8411TIP3    H146648   3.268   0.113   3.238 -0.7135 -3.1348  1.8567
 8411TIP3    H246649   3.127   0.111   3.184 -0.3723  0.7581  0.4412
 8412TIP3   OH246650   2.599   1.611  15.801  0.2838  0.3371  0.0814
 8412TIP3    H146651   2.684   1.655  15.798  1.4753 -1.8487 -0.4405
 8412TIP3    H246652   2.621   1.519  15.812 -2.1184 -0.0707  2.1301
 8413TIP3   OH246653   4.990   6.346  11.103 -0.2141  0.2921  0.1926
 8413TIP3    H146654   5.016   6.395  11.025  1.3529 -1.6119 -0.5560
 8413TIP3    H246655   4.954   6.264  11.069  1.2155 -0.9091  1.4474
 8414TIP3   OH246656   1.888   2.388   5.210 -0.1229 -0.1564  0.1259
 8414TIP3    H146657   1.967   2.409   5.160 -0.2580 -0.3899 -0.1928
 8414TIP3    H246658   1.843   2.472   5.220  0.7265  0.1853  1.3125
 8415TIP3   OH246659   3.628   5.884   1.977 -0.1895  0.2739 -0.4623
 8415TIP3    H146660   3.577   5.841   2.045  2.3345 -1.5552  0.4094
 8415TIP3    H246661   3.623   5.824   1.902  0.2446  0.3655 -0.5644
 8416TIP3   OH246662   2.237   2.852   2.104  0.0411  0.1336  0.0700
 8416TIP3    H146663   2.332   2.841   2.099 -0.1070 -1.0247 -0.5363
 8416TIP3    H246664   2.219   2.929   2.050  0.4733 -0.6760 -1.2712
 8417TIP3   OH246665   2.944   0.405   6.536  0.0437  0.4082  0.8743
 8417TIP3    H146666   3.036   0.421   6.514  0.1598 -0.3443  0.7903
 8417TIP3    H246667   2.939   0.310   6.550 -0.6133  0.5087  1.3755
 8418TIP3   OH246668   2.430   6.264   0.595 -0.4164 -0.7373 -0.1221
 8418TIP3    H146669   2.460   6.211   0.520 -1.5078 -0.4337 -0.7970
 8418TIP3    H246670   2.355   6.215   0.630 -0.8210 -0.1369 -0.1399
 8419TIP3   OH246671   3.200   5.818  15.318 -0.1423 -0.2269  0.3747
 8419TIP3    H146672   3.149   5.772  15.251  0.5801  0.1877 -0.4785
 8419TIP3    H246673   3.257   5.877  15.269 -1.0584  1.6223  1.4357
 8420TIP3   OH246674   3.101   1.003  13.880 -0.7631 -0.2392  0.1710
 8420TIP3    H146675   3.126   0.911  13.876  1.2085  0.1626  1.7880
 8420TIP3    H246676   3.184   1.051  13.873 -1.4466  1.3246  2.0035
 8421TIP3   OH246677   6.418   2.236   3.153 -0.4788  0.1883  0.2335
 8421TIP3    H146678   6.351   2.305   3.154 -0.8749 -0.1851 -0.0223
 8421TIP3    H246679   6.455   2.239   3.065  0.2306  0.7575  0.5449
 8422TIP3   OH246680   3.457   4.251   4.063  0.3421  0.1805 -0.2383
 8422TIP3    H146681   3.462   4.162   4.028  0.2385 -0.2764  0.8719
 8422TIP3    H246682   3.524   4.254   4.131 -1.0264  0.2726  1.1679
 8423TIP3   OH246683   1.115   4.476   5.802 -0.0657  0.2720 -0.6164
 8423TIP3    H146684   1.128   4.547   5.740  0.4068 -1.1655 -2.2388
 8423TIP3    H246685   1.189   4.482   5.861 -0.2228  1.3239 -0.4995
 8424TIP3   OH246686   2.389   1.070   4.441 -0.3059 -0.1354  0.5803
 8424TIP3    H146687   2.394   1.159   4.405  1.2708 -0.2782  0.3796
 8424TIP3    H246688   2.347   1.081   4.526 -2.3015  0.4645 -0.4099
 8425TIP3   OH246689   5.592   1.826   0.500 -0.0709  0.0935 -0.4676
 8425TIP3    H146690   5.618   1.803   0.411  1.6122  1.3549 -0.3591
 8425TIP3    H246691   5.674   1.851   0.543 -1.1119  1.5722  0.7884
 8426TIP3   OH246692   1.533   2.185   4.361 -0.0430 -0.0931 -0.0765
 8426TIP3    H146693   1.618   2.142   4.370 -0.5880 -1.0367  0.6448
 8426TIP3    H246694   1.523   2.237   4.440 -0.0885  0.1130 -0.2157
 8427TIP3   OH246695   0.820   1.044   4.236 -0.6189 -0.1492 -0.0929
 8427TIP3    H146696   0.815   0.954   4.271  1.9138 -0.3912 -0.1414
 8427TIP3    H246697   0.876   1.036   4.159 -0.4136  1.4763 -0.1295
 8428TIP3   OH246698   6.196   3.929   6.248  0.1596  0.0239 -0.3627
 8428TIP3    H146699   6.130   3.860   6.251 -2.2122  2.1479  0.9173
 8428TIP3    H246700   6.222   3.942   6.340 -1.1244  2.2198 -0.2405
 8429TIP3   OH246701   4.918   4.047  16.444 -0.2785 -0.3309 -0.0108
 8429TIP3    H146702   4.945   4.119  16.501  1.5279 -0.1888 -0.9624
 8429TIP3    H246703   4.848   4.085  16.390 -0.6304  0.1327  0.7610
 8430TIP3   OH246704   6.091   0.980  17.027 -0.2070 -0.1764 -0.2752
 8430TIP3    H146705   6.056   1.036  17.096 -0.8592  0.4617 -1.0970
 8430TIP3    H246706   6.081   1.032  16.947  0.6484 -0.8477 -0.8324
 8431TIP3   OH246707   5.982   0.013  12.610  0.4109 -0.7930 -0.1393
 8431TIP3    H146708   5.903   0.065  12.621  0.9448 -0.0325  0.1946
 8431TIP3    H246709   6.044   0.072  12.567  1.6922 -0.4437  2.0275
 8432TIP3   OH246710   6.253   6.509  12.641 -0.0209 -0.8128 -0.0743
 8432TIP3    H146711   6.239   6.439  12.578  0.6211 -0.8262 -0.2049
 8432TIP3    H246712   6.298   6.578  12.592  0.8425 -0.9845  0.4532
 8433TIP3   OH246713   2.109   5.720   1.675 -0.6687  0.2725  0.4035
 8433TIP3    H146714   2.105   5.624   1.673  2.4135  0.0691  0.1304
 8433TIP3    H246715   2.115   5.741   1.769  1.7774 -0.0760  0.3776
 8434TIP3   OH246716   0.056   2.419   0.496  0.4217  0.3140  0.0699
 8434TIP3    H146717  -0.003   2.399   0.568  2.1906 -1.8227  1.0682
 8434TIP3    H246718   0.108   2.493   0.526 -0.6984  1.2340 -0.2073
 8435TIP3   OH246719   5.530   0.891   6.263  0.0404  1.1855 -0.3479
 8435TIP3    H146720   5.554   0.867   6.353 -2.1186 -1.3475 -0.3372
 8435TIP3    H246721   5.440   0.923   6.269 -0.7435 -0.5754 -1.7476
 8436TIP3   OH246722   5.182   2.511   3.922 -0.0065  0.1400  0.1033
 8436TIP3    H146723   5.222   2.510   3.835 -0.9617  0.1667 -0.3521
 8436TIP3    H246724   5.213   2.591   3.963  0.0653  0.3700 -0.3990
 8437TIP3   OH246725   2.860   4.662  12.266 -0.6571 -0.0119 -0.2202
 8437TIP3    H146726   2.898   4.629  12.184 -0.9130 -0.9344  0.0328
 8437TIP3    H246727   2.872   4.592  12.329 -2.3664 -0.1614 -0.0039
 8438TIP3   OH246728   2.992   3.900  13.589  0.1374 -1.1833  0.1140
 8438TIP3    H146729   3.077   3.926  13.625  0.7938 -1.1111 -1.4074
 8438TIP3    H246730   3.001   3.912  13.495 -2.0403  0.1590  0.0140
 8439TIP3   OH246731   6.327   5.075   0.381  0.3062  0.8925 -0.1434
 8439TIP3    H146732   6.304   5.165   0.400  0.8858  1.2256 -0.9720
 8439TIP3    H246733   6.410   5.061   0.428 -0.5984  0.2504  1.3576
 8440TIP3   OH246734   3.452   0.668  13.116  0.0241 -0.0334 -0.7570
 8440TIP3    H146735   3.483   0.634  13.032 -0.4874 -1.1003 -0.5268
 8440TIP3    H246736   3.401   0.746  13.092 -0.7176 -0.7327 -1.4946
 8441TIP3   OH246737   1.808   4.613  15.098  0.2646 -0.5945  0.0957
 8441TIP3    H146738   1.787   4.530  15.055  2.1304 -1.5577  0.8845
 8441TIP3    H246739   1.753   4.614  15.176  0.2026 -1.0813  0.0614
 8442TIP3   OH246740   5.467   1.327   0.524 -0.3541  0.2531 -0.8824
 8442TIP3    H146741   5.546   1.274   0.508  0.4064  1.0063  0.2457
 8442TIP3    H246742   5.488   1.379   0.601 -2.5282 -0.5986  0.3809
 8443TIP3   OH246743   0.538   2.737  12.256  0.7257 -0.0577 -0.2802
 8443TIP3    H146744   0.470   2.803  12.244 -0.1306 -0.8212  0.3351
 8443TIP3    H246745   0.608   2.764  12.196 -0.3329  0.4317 -1.3223
 8444TIP3   OH246746   5.423   3.951   4.200 -0.5198 -0.2787  0.2937
 8444TIP3    H146747   5.445   3.876   4.144 -0.7691  0.7403 -1.2392
 8444TIP3    H246748   5.327   3.956   4.197 -0.4977  0.1912  0.2550
 8445TIP3   OH246749   3.077   0.010   3.538 -0.0954 -0.4370 -0.3420
 8445TIP3    H146750   3.061   0.051   3.622  0.8225  1.1602 -0.9075
 8445TIP3    H246751   2.989  -0.010   3.504 -0.4942 -0.4504  0.6669
 8446TIP3   OH246752   4.152   2.167   3.762 -0.2988 -0.2708 -0.5155
 8446TIP3    H146753   4.068   2.202   3.792  0.2675  1.3281 -0.7433
 8446TIP3    H246754   4.153   2.077   3.797 -2.0941 -0.3457 -0.5212
 8447TIP3   OH246755   3.301   3.000   3.742 -0.1342 -0.0828  0.4119
 8447TIP3    H146756   3.387   2.971   3.774 -0.3654 -3.0805 -1.2866
 8447TIP3    H246757   3.239   2.970   3.808 -0.0733 -0.2780  0.3823
 8448TIP3   OH246758   0.477   3.856  16.106  0.1131 -0.3604  0.5380
 8448TIP3    H146759   0.494   3.880  16.197 -0.6335 -0.2560  0.6561
 8448TIP3    H246760   0.507   3.765  16.099 -1.4140 -0.9688  1.3677
 8449TIP3   OH246761   4.713   4.395   4.537 -0.1389  0.0274  0.7987
 8449TIP3    H146762   4.669   4.371   4.455 -1.6082  0.8747  1.3197
 8449TIP3    H246763   4.676   4.337   4.602 -0.1413  0.4394  1.1669
 8450TIP3   OH246764   1.071   4.268   4.553  0.5991  0.1821 -0.0599
 8450TIP3    H146765   1.037   4.296   4.638 -0.8930  1.3663 -0.9913
 8450TIP3    H246766   1.120   4.344   4.521  2.0412 -0.6194  0.1553
 8451TIP3   OH246767   1.509   4.416   6.657  0.3739  0.1690 -0.2154
 8451TIP3    H146768   1.469   4.501   6.679 -0.4011 -0.3590  0.5041
 8451TIP3    H246769   1.438   4.353   6.671  0.3090 -0.4084 -2.7322
 8452TIP3   OH246770   6.537   0.294   4.155 -0.0909  0.1547  0.2891
 8452TIP3    H146771   6.553   0.252   4.240  0.5146 -0.8603 -0.3106
 8452TIP3    H246772   6.484   0.371   4.176  0.5621  0.2573  1.6546
 8453TIP3   OH246773   4.508   0.934   2.517  0.4175  0.2491 -0.0618
 8453TIP3    H146774   4.466   0.946   2.432 -1.2725 -0.9988  0.5367
 8453TIP3    H246775   4.490   0.842   2.540  2.7769 -0.1069  0.6534
 8454TIP3   OH246776   0.377   2.377  13.029  0.2513  0.3902  0.4816
 8454TIP3    H146777   0.356   2.290  13.061 -1.5189 -0.0235 -1.6027
 8454TIP3    H246778   0.470   2.372  13.005  0.5096 -0.4988  1.5945
 8455TIP3   OH246779   2.663   4.118   1.766 -0.3504  0.3086 -0.1186
 8455TIP3    H146780   2.708   4.202   1.769  1.1504 -0.4932  0.9289
 8455TIP3    H246781   2.677   4.085   1.678  1.3191 -0.0149  0.2484
 8456TIP3   OH246782   5.610   5.299   4.821  0.1482  0.2031  0.0030
 8456TIP3    H146783   5.665   5.318   4.897 -0.6256  1.5711  0.2605
 8456TIP3    H246784   5.663   5.241   4.766  0.5016 -1.3248  1.8430
 8457TIP3   OH246785   1.885   1.548  12.239 -0.4492  0.1559  0.1222
 8457TIP3    H146786   1.956   1.574  12.298  0.2277  2.1083 -1.4404
 8457TIP3    H246787   1.910   1.583  12.154 -2.5831 -0.4178 -0.8145
 8458TIP3   OH246788   2.000   2.547  10.731  0.1432  0.0069 -0.4327
 8458TIP3    H146789   1.989   2.641  10.746  1.2675  0.1572 -0.4589
 8458TIP3    H246790   2.080   2.541  10.679  0.4407 -1.0099  0.1202
 8459TIP3   OH246791   5.856   6.451   2.491 -0.3268 -0.1698  0.1140
 8459TIP3    H146792   5.891   6.374   2.447  0.5200  0.9122 -1.2033
 8459TIP3    H246793   5.879   6.524   2.433  0.2832  1.2762  2.0503
 8460TIP3   OH246794   1.694   3.999  12.922 -0.5294  0.3691 -0.3701
 8460TIP3    H146795   1.783   4.023  12.900 -0.2660  0.5320  0.7880
 8460TIP3    H246796   1.661   4.073  12.974 -0.2960 -0.9304  1.7662
 8461TIP3   OH246797   1.070   6.276   4.439 -0.0337 -0.1053  0.4656
 8461TIP3    H146798   1.037   6.295   4.526 -0.5239 -0.5802  0.3919
 8461TIP3    H246799   1.164   6.261   4.451 -0.3209 -1.5239  1.1361
 8462TIP3   OH246800   5.457   3.236   0.290 -0.6961  0.5685  0.8189
 8462TIP3    H146801   5.401   3.200   0.221 -1.8240  0.5118  1.7342
 8462TIP3    H246802   5.397   3.281   0.349  0.2185  0.4576  1.8720
 8463TIP3   OH246803   4.595   3.919   1.168  0.0897 -0.3357  0.0195
 8463TIP3    H146804   4.532   3.925   1.240 -0.1083  2.2552 -0.2654
 8463TIP3    H246805   4.661   3.984   1.188 -0.3413  0.9925 -2.4152
 8464TIP3   OH246806   1.847   2.921  12.495 -0.1252  0.2213 -0.0176
 8464TIP3    H146807   1.925   2.934  12.549  1.0877 -0.6360 -1.4813
 8464TIP3    H246808   1.774   2.945  12.552  1.2529  2.2201  1.0366
 8465TIP3   OH246809   2.162   2.704  16.153  0.7103  0.2207  0.1703
 8465TIP3    H146810   2.235   2.650  16.182  0.7961 -1.3940 -2.6940
 8465TIP3    H246811   2.203   2.776  16.105  0.4697  0.2904  0.0672
 8466TIP3   OH246812   1.084   6.491  12.928 -0.5092 -0.9677  0.2508
 8466TIP3    H146813   1.091   6.525  12.839 -0.8565 -1.2035  0.1338
 8466TIP3    H246814   1.110   6.564  12.983 -0.0178 -0.9035 -0.0539
 8467TIP3   OH246815   4.743   4.033  13.190 -0.0228 -0.9717 -0.1227
 8467TIP3    H146816   4.659   3.987  13.197  0.0889 -0.9244  3.0217
 8467TIP3    H246817   4.736   4.083  13.109 -2.5360 -1.9162 -0.5874
 8468TIP3   OH246818   0.453   1.606  11.234  0.1290  0.1448  0.7642
 8468TIP3    H146819   0.457   1.678  11.296  0.3188  0.8784 -0.0795
 8468TIP3    H246820   0.374   1.558  11.258  0.9013 -0.3689  2.3936
 8469TIP3   OH246821   2.113   6.298   0.449  0.7979 -0.1865 -0.2308
 8469TIP3    H146822   2.171   6.287   0.373 -0.1944 -0.6227 -0.9450
 8469TIP3    H246823   2.126   6.218   0.500  1.1147 -0.1058 -0.1811
 8470TIP3   OH246824   1.391   5.645   6.163  0.1999 -0.4632 -0.3139
 8470TIP3    H146825   1.462   5.589   6.132 -0.0883 -1.8397  1.3468
 8470TIP3    H246826   1.419   5.673   6.250 -0.0294  1.3853 -0.7994
 8471TIP3   OH246827   2.885   6.624   1.466 -0.6766 -0.0298 -0.5365
 8471TIP3    H146828   2.854   6.538   1.438 -0.2361 -0.0491 -0.9816
 8471TIP3    H246829   2.839   6.686   1.409 -0.2289 -0.0344 -0.9121
 8472TIP3   OH246830   2.459   4.573   4.104 -0.4216 -0.7101  0.4753
 8472TIP3    H146831   2.380   4.520   4.094 -0.0628 -1.1681  0.0203
 8472TIP3    H246832   2.478   4.605   4.016 -0.7607  0.3761  0.7810
 8473TIP3   OH246833   5.257   1.986  16.348  0.3567  0.3825 -0.3368
 8473TIP3    H146834   5.174   1.940  16.360  0.4762  0.0791 -0.6625
 8473TIP3    H246835   5.302   1.976  16.432  0.4175 -0.1720 -0.4281
 8474TIP3   OH246836   4.227   3.820  11.862  0.6273  0.8021 -0.0318
 8474TIP3    H146837   4.218   3.895  11.919  1.7785  0.8183  0.1665
 8474TIP3    H246838   4.319   3.822  11.835  0.7904 -0.7669  0.3143
 8475TIP3   OH246839   5.401   1.234  14.734 -0.6076  0.1428  0.5704
 8475TIP3    H146840   5.430   1.187  14.813 -1.5695  0.1622  0.9524
 8475TIP3    H246841   5.433   1.182  14.661  0.4293  0.2010  0.9654
 8476TIP3   OH246842   1.753   6.008  12.557  0.5253 -0.4326  0.0351
 8476TIP3    H146843   1.666   5.983  12.527  0.6396 -1.0705  0.2151
 8476TIP3    H246844   1.752   6.103  12.560  0.5086 -0.3289 -2.0060
 8477TIP3   OH246845   2.126   1.590  12.406 -0.4547 -0.1669 -0.4895
 8477TIP3    H146846   2.115   1.680  12.437 -0.9921  0.0043 -1.1697
 8477TIP3    H246847   2.205   1.559  12.452 -2.6077 -0.8285  3.2083
 8478TIP3   OH246848   3.496   3.403  11.794  0.2821 -0.2562 -0.0699
 8478TIP3    H146849   3.551   3.450  11.857 -0.2206  0.9024 -0.4502
 8478TIP3    H246850   3.409   3.441  11.806  0.1982  0.0647 -1.5047
 8479TIP3   OH246851   0.497   5.434  16.861 -0.0475  0.0634  0.7275
 8479TIP3    H146852   0.584   5.412  16.827 -0.0389 -2.1272  1.9613
 8479TIP3    H246853   0.514   5.463  16.951 -0.5856 -0.3839  0.9758
 8480TIP3   OH246854   5.419   0.020   2.458 -0.3683 -0.3020  0.1012
 8480TIP3    H146855   5.388   0.093   2.512  0.8853 -0.1839  0.7206
 8480TIP3    H246856   5.341  -0.032   2.440 -1.2439  1.0610 -0.1464
 8481TIP3   OH246857   0.247   4.967   0.921 -0.1079  0.3506 -0.0065
 8481TIP3    H146858   0.177   4.934   0.977  1.6587 -0.9302  1.5670
 8481TIP3    H246859   0.254   5.060   0.946  0.5947 -0.1672  1.9422
 8482TIP3   OH246860   1.320   5.564   3.692  0.3452 -0.3216  0.0709
 8482TIP3    H146861   1.332   5.639   3.751 -0.1590  0.8524 -1.2691
 8482TIP3    H246862   1.225   5.550   3.690  0.3161 -0.0459 -0.8136
 8483TIP3   OH246863   5.457   2.663  17.058 -0.2170 -0.4249 -0.6693
 8483TIP3    H146864   5.440   2.643  16.966 -0.6318 -0.3990 -0.6039
 8483TIP3    H246865   5.552   2.669  17.064 -0.2257  1.6403 -1.5468
 8484TIP3   OH246866   1.674   2.723   5.787  0.1501 -0.3267 -0.3306
 8484TIP3    H146867   1.765   2.740   5.765  0.3323 -0.7581  0.0826
 8484TIP3    H246868   1.632   2.809   5.781  0.6636 -0.0572 -0.1433
 8485TIP3   OH246869   0.501   5.301   5.767 -0.2976 -0.1458 -0.4723
 8485TIP3    H146870   0.447   5.284   5.844 -0.5590  2.6157  0.0303
 8485TIP3    H246871   0.472   5.235   5.703 -0.7929 -1.8327  1.3811
 8486TIP3   OH246872   4.554   6.354  11.851  0.1047 -0.2211  0.1780
 8486TIP3    H146873   4.625   6.355  11.915 -1.4113 -0.1988  1.9459
 8486TIP3    H246874   4.483   6.403  11.893 -1.3760 -1.2442 -1.0292
 8487TIP3   OH246875   2.047   4.848  11.858  0.4446  0.6059  0.2568
 8487TIP3    H146876   2.065   4.916  11.923  0.9353  1.5001 -0.8023
 8487TIP3    H246877   2.128   4.839  11.808  0.5859 -1.1771  0.7298
 8488TIP3   OH246878   0.770   3.988   2.228 -0.1685 -0.4404  1.0304
 8488TIP3    H146879   0.764   3.983   2.324  1.4979  0.2488  1.2032
 8488TIP3    H246880   0.824   3.913   2.204  1.3098  0.6397  0.8767
 8489TIP3   OH246881   3.650   2.268  15.940 -0.0262 -0.7989  0.1251
 8489TIP3    H146882   3.684   2.288  15.853 -1.5297 -0.2217 -0.3698
 8489TIP3    H246883   3.719   2.217  15.982  0.6896 -1.1795 -1.4453
 8490TIP3   OH246884   5.912   3.826  15.190  0.2776  0.1114 -0.0111
 8490TIP3    H146885   5.855   3.836  15.265  0.7961 -1.9270  0.7213
 8490TIP3    H246886   5.976   3.760  15.217 -0.1998 -1.5545 -2.5830
 8491TIP3   OH246887   6.399   0.456   6.763 -0.0356  0.1329 -0.4348
 8491TIP3    H146888   6.391   0.374   6.810 -3.7614  0.4551 -0.2335
 8491TIP3    H246889   6.344   0.518   6.811  0.8585  2.1537 -1.8256
 8492TIP3   OH246890   0.094   3.081  12.757 -0.1056 -0.5011 -0.3961
 8492TIP3    H146891   0.122   2.991  12.777 -0.4203 -0.8021 -1.2306
 8492TIP3    H246892   0.021   3.069  12.696 -0.5169  0.3189 -0.0712
 8493TIP3   OH246893   4.685   1.302  13.665  0.3025 -0.2659  0.0866
 8493TIP3    H146894   4.763   1.309  13.611  0.0961  1.4966 -0.0427
 8493TIP3    H246895   4.615   1.336  13.610 -0.3338 -0.6248  0.6567
 8494TIP3   OH246896   5.944   5.421  12.158  0.0454  0.1742 -0.2305
 8494TIP3    H146897   5.955   5.326  12.155 -1.4143 -0.0792  1.2668
 8494TIP3    H246898   6.020   5.456  12.112 -0.0585 -1.7426 -1.9904
 8495TIP3   OH246899   4.417   6.195   5.379 -0.5064  0.0548 -0.7432
 8495TIP3    H146900   4.438   6.128   5.444  1.1516  0.1484 -1.1300
 8495TIP3    H246901   4.324   6.215   5.393 -0.2376 -0.0626  1.4374
 8496TIP3   OH246902   2.749   4.316   3.183  0.1820  0.2628 -0.1039
 8496TIP3    H146903   2.693   4.354   3.115 -1.4142 -0.8085  0.5634
 8496TIP3    H246904   2.748   4.222   3.165  0.8685  0.1182  0.5869
 8497TIP3   OH246905   2.642   1.762  16.494  0.4003 -0.5334  0.2823
 8497TIP3    H146906   2.699   1.792  16.566  0.8340  0.5214 -0.4829
 8497TIP3    H246907   2.559   1.807  16.509  0.2414 -0.9089  0.5476
 8498TIP3   OH246908   1.771   3.866   1.494  0.9345  0.7083 -0.6223
 8498TIP3    H146909   1.730   3.779   1.497  0.1875  1.0499  2.0665
 8498TIP3    H246910   1.742   3.903   1.411 -0.6086 -0.7565 -0.8070
 8499TIP3   OH246911   0.129   0.059  16.863  0.1509 -0.1032  0.7482
 8499TIP3    H146912   0.205   0.083  16.918  0.7569 -0.0314 -0.1030
 8499TIP3    H246913   0.165  -0.002  16.798 -0.5911 -0.3023  0.5158
 8500TIP3   OH246914   4.594   3.696  13.912 -0.4447  0.8354  0.0970
 8500TIP3    H146915   4.660   3.764  13.925 -0.7421  1.0929  0.2920
 8500TIP3    H246916   4.549   3.721  13.831  0.3073  0.1480 -0.5414
 8501TIP3   OH246917   4.068   5.366  11.581  0.1510 -0.2198 -0.4307
 8501TIP3    H146918   4.068   5.326  11.667  0.5348 -1.3274 -0.9323
 8501TIP3    H246919   4.122   5.444  11.591 -0.4902  0.1308  0.5183
 8502TIP3   OH246920   0.268   6.291   1.212 -0.6622  0.0171  0.4031
 8502TIP3    H146921   0.353   6.309   1.172 -0.8993  0.8891  0.2783
 8502TIP3    H246922   0.289   6.243   1.292 -0.1872 -2.0208 -0.8539
 8503TIP3   OH246923   0.422   2.934  14.653 -0.2068  0.4197 -0.1138
 8503TIP3    H146924   0.365   2.896  14.720 -1.1359  1.8431 -0.0594
 8503TIP3    H246925   0.366   2.995  14.606  0.9545  0.8905 -0.9287
 8504TIP3   OH246926   6.638   0.453   2.700 -0.4090  0.0838 -0.0447
 8504TIP3    H146927   6.607   0.514   2.634  0.5918 -0.1598 -0.7699
 8504TIP3    H246928   6.725   0.486   2.724 -1.1793  0.7926  1.9778
 8505TIP3   OH246929   2.542   3.162   2.678  0.1877  0.4893 -0.1016
 8505TIP3    H146930   2.529   3.207   2.761  1.5580 -0.6125  0.7684
 8505TIP3    H246931   2.455   3.127   2.655 -0.4670  1.8704  0.1861
 8506TIP3   OH246932   1.458   0.973   1.412 -0.6582 -0.4175  0.0441
 8506TIP3    H146933   1.375   0.958   1.457 -0.2622  2.0960  1.8132
 8506TIP3    H246934   1.525   0.959   1.479  0.1841  0.0604 -0.6761
 8507TIP3   OH246935   2.785   6.295   3.754  0.1895 -0.8036  0.1238
 8507TIP3    H146936   2.817   6.275   3.666 -2.3225  0.0842 -1.0771
 8507TIP3    H246937   2.782   6.390   3.758  0.0881 -0.8366  1.1104
 8508TIP3   OH246938   0.737   4.270  11.846 -0.1610  0.3379 -0.3953
 8508TIP3    H146939   0.723   4.191  11.795 -2.1162  0.2284  0.2293
 8508TIP3    H246940   0.718   4.244  11.936  3.4753  0.4517  0.5518
 8509TIP3   OH246941   0.229   3.416   0.382  0.0035  0.0306  0.1039
 8509TIP3    H146942   0.303   3.451   0.332 -0.6607  0.5471 -0.5332
 8509TIP3    H246943   0.158   3.478   0.367 -0.5844 -0.4847  0.6740
 8510TIP3   OH246944   2.855   1.787  14.979 -0.3664 -0.2226  0.4062
 8510TIP3    H146945   2.776   1.814  15.025 -0.3418  0.1628  0.2275
 8510TIP3    H246946   2.871   1.697  15.008  0.0974  0.2692  1.7697
 8511TIP3   OH246947   1.177   1.968  11.707  0.1151 -0.2356 -0.1334
 8511TIP3    H146948   1.129   2.043  11.672  0.2512  0.5313  1.2305
 8511TIP3    H246949   1.196   1.914  11.631  2.6915  2.5982 -1.7347
 8512TIP3   OH246950   0.651   3.308  16.959 -0.1419 -0.0480 -0.1682
 8512TIP3    H146951   0.560   3.328  16.938 -0.1082  0.1131 -0.1614
 8512TIP3    H246952   0.663   3.341  17.048 -0.5814 -1.6608  0.5115
 8513TIP3   OH246953   6.577   1.535   1.656  0.7336  0.3050  0.2349
 8513TIP3    H146954   6.571   1.626   1.626 -0.0905  0.2449  0.1899
 8513TIP3    H246955   6.486   1.509   1.672  0.7504 -1.2259 -1.8314
 8514TIP3   OH246956   4.063   6.626  11.650 -0.1988 -0.6017 -0.1764
 8514TIP3    H146957   3.979   6.591  11.620 -0.4663 -0.1159 -0.0076
 8514TIP3    H246958   4.083   6.697  11.589 -0.2615 -0.2581  0.1969
 8515TIP3   OH246959   6.611   0.162  14.567  0.2108 -0.2354 -0.4144
 8515TIP3    H146960   6.678   0.123  14.511 -2.4228 -0.9425 -3.3057
 8515TIP3    H246961   6.648   0.245  14.595  3.2328 -1.6668  0.2484
 8516TIP3   OH246962   3.121   6.178   2.742 -0.3548  0.2436  0.0042
 8516TIP3    H146963   3.206   6.161   2.701  0.0714  1.3813  0.3877
 8516TIP3    H246964   3.142   6.202   2.833 -1.2028 -1.0709  0.5840
 8517TIP3   OH246965   1.304   3.987   4.958 -0.5581  0.6709  0.0226
 8517TIP3    H146966   1.362   3.911   4.959 -1.1168  0.1483 -1.9382
 8517TIP3    H246967   1.237   3.968   5.023  0.7509  0.7198  1.4251
 8518TIP3   OH246968   2.789   6.111  16.792 -0.4711 -0.5720 -0.5222
 8518TIP3    H146969   2.881   6.126  16.812 -0.3398  1.7597 -2.4261
 8518TIP3    H246970   2.754   6.068  16.871  1.7818  0.2740  1.0491
 8519TIP3   OH246971   1.145   0.052   1.766  0.0114  0.1383  0.3228
 8519TIP3    H146972   1.218   0.046   1.828  2.4617  0.2786 -2.3247
 8519TIP3    H246973   1.113   0.141   1.775  0.9583  0.4498  0.7340
 8520TIP3   OH246974   4.618   5.755  16.498 -0.0707  0.1405 -0.3564
 8520TIP3    H146975   4.641   5.848  16.489 -2.0383  0.6311 -0.7702
 8520TIP3    H246976   4.553   5.740  16.430 -0.4734 -1.3197  0.3241
 8521TIP3   OH246977   3.770   3.042  11.767 -0.4968  0.2969 -0.0512
 8521TIP3    H146978   3.753   2.951  11.741 -1.7112  0.4163  0.2978
 8521TIP3    H246979   3.799   3.036  11.858  0.5575  0.1778 -0.3731
 8522TIP3   OH246980   1.599   4.145  12.556  0.2194  0.2345 -0.1771
 8522TIP3    H146981   1.537   4.186  12.617 -1.3921 -2.5412  0.1913
 8522TIP3    H246982   1.597   4.202  12.479 -0.9837  1.4849  0.7143
 8523TIP3   OH246983   6.514   6.120  16.016 -0.3030  0.4960  0.0182
 8523TIP3    H146984   6.516   6.070  16.097  1.6916  1.0608  0.3729
 8523TIP3    H246985   6.476   6.204  16.041 -0.0750  0.5205  0.2936
 8524TIP3   OH246986   2.133   0.029  12.774 -0.2153  0.2362  0.6719
 8524TIP3    H146987   2.071   0.038  12.701 -0.1193 -0.1294  0.5419
 8524TIP3    H246988   2.188  -0.045  12.749 -0.8318 -0.5591  1.5745
 8525TIP3   OH246989   5.993   4.479   6.021 -0.2973  0.0782  0.5768
 8525TIP3    H146990   5.990   4.415   6.092 -1.9407 -0.8731 -0.3045
 8525TIP3    H246991   5.913   4.530   6.031 -0.8487 -0.4437 -0.9232
 8526TIP3   OH246992   4.781   4.857  17.307  0.0807 -0.1022  0.4373
 8526TIP3    H146993   4.745   4.796  17.372 -0.5067  0.6226  0.8044
 8526TIP3    H246994   4.746   4.942  17.332  1.0316  0.4245  0.0361
 8527TIP3   OH246995   0.484   1.966   0.214 -0.1429 -0.2939 -0.7857
 8527TIP3    H146996   0.416   1.913   0.256 -0.7600  1.7199  0.9672
 8527TIP3    H246997   0.442   2.002   0.136 -0.3824 -0.7684 -0.8794
 8528TIP3   OH246998   6.733   1.252  14.990  0.0677 -0.3554 -0.1398
 8528TIP3    H146999   6.662   1.188  14.977 -1.2410  1.2255 -1.1929
 8528TIP3    H247000   6.790   1.240  14.914  0.1131 -0.6069 -0.0678
 8529TIP3   OH247001   6.189   1.128  13.316  0.1132 -0.1643 -0.3525
 8529TIP3    H147002   6.123   1.072  13.276 -0.8885  1.8326 -1.6988
 8529TIP3    H247003   6.273   1.090  13.290 -0.4979 -1.9446  0.1883
 8530TIP3   OH247004   4.577   0.743   5.079 -0.3150  0.3452  0.7690
 8530TIP3    H147005   4.637   0.668   5.078 -1.3860 -0.5301 -0.9961
 8530TIP3    H247006   4.634   0.819   5.095  0.8226 -0.7713  2.3431
 8531TIP3   OH247007   0.519   0.233  13.147  0.5875 -0.0183 -0.2326
 8531TIP3    H147008   0.530   0.138  13.140  0.8784  0.1381 -2.3781
 8531TIP3    H247009   0.515   0.264  13.057  0.0496  1.9803  0.4271
 8532TIP3   OH247010   5.080   1.806  13.980  0.1297  0.5540  0.0233
 8532TIP3    H147011   5.121   1.725  13.950 -0.2123  1.1824 -2.4066
 8532TIP3    H247012   5.068   1.794  14.074  3.1185 -0.8455  0.3447
 8533TIP3   OH247013   6.078   6.013  11.136 -0.6215  0.4810 -0.0621
 8533TIP3    H147014   6.167   6.029  11.104 -0.0973  1.2572  1.6002
 8533TIP3    H247015   6.021   6.038  11.064  0.4984  0.2597 -1.0562
 8534TIP3   OH247016   6.192   6.409  13.153  0.1102 -0.5053 -0.0120
 8534TIP3    H147017   6.172   6.452  13.071 -1.9473 -0.5859  0.3991
 8534TIP3    H247018   6.108   6.378  13.186  0.8802 -0.6068  2.0611
 8535TIP3   OH247019   5.399   2.915   0.982  0.1734  0.2088  0.0588
 8535TIP3    H147020   5.374   2.988   0.926  0.6270  0.9645  0.8218
 8535TIP3    H247021   5.320   2.862   0.989  0.4480 -0.5961 -2.3062
 8536TIP3   OH247022   1.694   3.941  12.384 -0.1860 -0.0520  0.2227
 8536TIP3    H147023   1.682   4.035  12.399 -1.0087 -0.0334 -0.4476
 8536TIP3    H247024   1.743   3.935  12.302  0.8462 -0.2024  0.8375
 8537TIP3   OH247025   6.437   4.821   5.154 -0.1593  0.2596 -0.6485
 8537TIP3    H147026   6.365   4.788   5.100 -2.0329 -1.1483  2.4275
 8537TIP3    H247027   6.395   4.878   5.218  1.8590  1.4140 -0.2756
 8538TIP3   OH247028   3.984   2.822  13.138  0.6912 -0.1348  0.8609
 8538TIP3    H147029   4.036   2.762  13.086 -0.1048 -0.5510  0.5263
 8538TIP3    H247030   3.989   2.788  13.228  0.2386 -0.7168  0.6713
 8539TIP3   OH247031   4.213   4.806  16.504  0.5689  0.4208 -0.2023
 8539TIP3    H147032   4.290   4.765  16.463  0.5841  0.5629 -0.3169
 8539TIP3    H247033   4.240   4.822  16.594 -0.5148 -2.8397  0.8756
 8540TIP3   OH247034   5.204   1.524  10.873 -0.0016 -0.6293 -0.0620
 8540TIP3    H147035   5.277   1.488  10.823 -0.2113 -0.5613 -0.4160
 8540TIP3    H247036   5.219   1.619  10.873  0.8472 -0.7198  1.3281
 8541TIP3   OH247037   0.443   6.086  15.476 -0.3851  0.4947  0.3467
 8541TIP3    H147038   0.465   6.004  15.433 -0.5888 -0.7254  2.4139
 8541TIP3    H247039   0.349   6.078  15.496 -0.1723  0.7248  1.5207
 8542TIP3   OH247040   5.952   1.561   4.147  0.4409  0.2403 -0.3410
 8542TIP3    H147041   5.982   1.633   4.202  0.8610  2.6994 -3.5301
 8542TIP3    H247042   6.019   1.493   4.158  1.6972  1.5541  0.4471
 8543TIP3   OH247043   0.771   1.942   1.548 -0.6185 -0.2105  0.1695
 8543TIP3    H147044   0.828   1.871   1.579  1.6776 -0.2518 -3.5614
 8543TIP3    H247045   0.803   2.019   1.594 -0.5545 -0.9569  1.4187
 8544TIP3   OH247046   3.117   0.875  14.463 -0.1337  0.0659  0.1137
 8544TIP3    H147047   3.186   0.928  14.423 -0.3215 -0.0076 -0.3024
 8544TIP3    H247048   3.038   0.929  14.457 -0.5794 -0.6843 -1.3205
 8545TIP3   OH247049   5.312   3.308  14.638 -0.3132  0.0867 -0.0167
 8545TIP3    H147050   5.375   3.252  14.593  0.1969  0.8339 -0.2615
 8545TIP3    H247051   5.249   3.248  14.678 -0.4175 -0.6122 -1.2022
 8546TIP3   OH247052   6.456   3.770  13.791  0.2794 -0.5332  0.3703
 8546TIP3    H147053   6.541   3.728  13.800  0.6555 -0.0952 -0.8450
 8546TIP3    H247054   6.397   3.719  13.845  0.8362 -2.2600 -0.5889
 8547TIP3   OH247055   5.058   4.654   3.525 -0.4584  0.6569  0.0482
 8547TIP3    H147056   5.067   4.659   3.430  1.0118  0.8038  0.1659
 8547TIP3    H247057   5.069   4.561   3.545  2.8577  0.9779  0.3089
 8548TIP3   OH247058   4.439   4.980  12.128 -0.2930  0.1965  0.5012
 8548TIP3    H147059   4.476   4.993  12.215 -1.2345  0.3933  0.8946
 8548TIP3    H247060   4.351   5.018  12.134 -1.7042 -2.7961  0.5158
 8549TIP3   OH247061   1.530   4.435  15.521 -0.0559 -0.0889  0.2570
 8549TIP3    H147062   1.497   4.374  15.455  0.4253  0.8178 -0.8583
 8549TIP3    H247063   1.467   4.428  15.593 -0.5430 -1.1766 -0.2462
 8550TIP3   OH247064   5.040   0.180  13.184  0.0128 -0.4494 -0.2655
 8550TIP3    H147065   4.986   0.203  13.260 -0.8682 -2.1993 -0.3349
 8550TIP3    H247066   5.130   0.185  13.217 -0.2540  0.5722  0.3758
 8551TIP3   OH247067   2.035   6.137  13.018 -0.0026  0.0978  0.2607
 8551TIP3    H147068   2.042   6.138  12.922  1.0735 -0.9269  0.3035
 8551TIP3    H247069   1.967   6.073  13.037 -0.7049  0.8003  0.1823
 8552TIP3   OH247070   3.915   5.426  15.339  0.2567 -0.8144 -0.1704
 8552TIP3    H147071   3.975   5.368  15.385 -0.4615 -1.1867  0.3072
 8552TIP3    H247072   3.846   5.445  15.402  1.4052  2.1146  0.3730
 8553TIP3   OH247073   2.688   5.987   5.522 -0.2039 -0.0995  0.0564
 8553TIP3    H147074   2.745   5.911   5.519  0.0381  0.1042 -0.7444
 8553TIP3    H247075   2.619   5.969   5.458  0.5608  0.8929 -1.0933
 8554TIP3   OH247076   0.343   1.213   3.893  0.1481 -0.2259  0.2101
 8554TIP3    H147077   0.319   1.137   3.946  0.9776  0.3215  1.3890
 8554TIP3    H247078   0.313   1.190   3.804 -0.0406 -1.7143  0.6328
 8555TIP3   OH247079   3.626   2.923   1.533  0.1672 -0.4904 -0.4808
 8555TIP3    H147080   3.671   3.004   1.508 -1.4558  1.0969  1.3938
 8555TIP3    H247081   3.678   2.888   1.605 -0.7433  0.5758  0.7352
 8556TIP3   OH247082   4.953   4.649  14.569 -0.1091  0.4288  0.5987
 8556TIP3    H147083   4.908   4.580  14.521  0.6624 -0.1719  0.7256
 8556TIP3    H247084   4.961   4.617  14.658  0.1477  0.7287  0.6879
 8557TIP3   OH247085   4.400   5.546   0.139 -0.1334  0.1682  0.2696
 8557TIP3    H147086   4.371   5.454   0.134 -0.1015  0.2353 -2.1682
 8557TIP3    H247087   4.461   5.547   0.212  0.4514 -1.9490 -0.1048
 8558TIP3   OH247088   5.211   2.397  10.587  0.5630 -0.5927  0.4985
 8558TIP3    H147089   5.213   2.408  10.492 -0.0217 -0.4881  0.4997
 8558TIP3    H247090   5.268   2.321  10.603  0.9812 -0.3689  0.1054
 8559TIP3   OH247091   2.088   5.882   1.462  0.1855 -0.1819 -0.5098
 8559TIP3    H147092   2.035   5.826   1.405  1.6187 -0.7582 -1.3426
 8559TIP3    H247093   2.082   5.841   1.548  0.3934 -1.0518 -0.8924
 8560TIP3   OH247094   1.831   2.252  14.670 -0.0278  0.2259 -0.6951
 8560TIP3    H147095   1.818   2.338  14.709  0.6590 -0.0882  0.2760
 8560TIP3    H247096   1.759   2.199  14.705 -0.7030  0.5119 -1.6396
 8561TIP3   OH247097   5.792   0.553   3.598  0.2184 -0.1835 -0.2151
 8561TIP3    H147098   5.751   0.618   3.541  1.1673  0.4690 -0.1782
 8561TIP3    H247099   5.875   0.532   3.555 -0.2845 -1.7474 -0.4718
 8562TIP3   OH247100   5.957   2.020  15.791  0.1903 -0.3023  0.9340
 8562TIP3    H147101   6.005   2.086  15.841  2.4974 -2.0613  1.2701
 8562TIP3    H247102   5.905   1.974  15.856  2.2834 -1.8166  1.6756
 8563TIP3   OH247103   4.343   0.726   0.731 -0.3006  0.6877 -0.7992
 8563TIP3    H147104   4.388   0.648   0.764 -1.5864  0.2157 -0.1140
 8563TIP3    H247105   4.338   0.785   0.806 -0.6496  0.8048 -0.9110
 8564TIP3   OH247106   5.408   0.149   2.703  0.5697 -0.3462  0.2208
 8564TIP3    H147107   5.375   0.221   2.649  0.7705 -0.6511 -0.3201
 8564TIP3    H247108   5.331   0.098   2.725  0.6065 -0.7879 -0.6349
 8565TIP3   OH247109   3.722   0.353  11.472 -0.3049 -0.2288  0.7201
 8565TIP3    H147110   3.813   0.382  11.482 -0.4688  1.3260 -1.5998
 8565TIP3    H247111   3.728   0.275  11.417 -0.4200  0.6318 -0.5458
 8566TIP3   OH247112   3.055   4.335   2.985 -0.4730 -0.1272  0.5062
 8566TIP3    H147113   3.016   4.362   2.903 -1.0409 -0.4198  0.6754
 8566TIP3    H247114   3.002   4.261   3.014  0.4968 -0.8401  0.5031
 8567TIP3   OH247115   2.958   5.166   1.243 -0.8803 -0.1791 -0.0112
 8567TIP3    H147116   2.949   5.090   1.185 -2.2011 -0.2325  0.2434
 8567TIP3    H247117   2.942   5.241   1.185  2.3535  0.1096 -0.7239
 8568TIP3   OH247118   1.162   4.868   0.705  0.7035  0.6375  0.1689
 8568TIP3    H147119   1.148   4.895   0.615  1.7959 -0.1249 -0.2623
 8568TIP3    H247120   1.204   4.782   0.698 -1.7717 -0.7737  1.4588
 8569TIP3   OH247121   1.115   1.021  14.482  0.3662  0.2844  0.5777
 8569TIP3    H147122   1.170   1.044  14.407  2.2994 -0.3914  1.7131
 8569TIP3    H247123   1.160   0.948  14.524 -1.2218 -0.0518  1.8130
 8570TIP3   OH247124   3.311   5.134  16.697 -0.1460  0.1641 -0.0684
 8570TIP3    H147125   3.224   5.093  16.696  0.0131 -0.2235  1.0632
 8570TIP3    H247126   3.353   5.100  16.776  0.8546  0.7394 -0.3372
 8571TIP3   OH247127   3.661   4.313  17.272  0.7615 -0.0518  0.5054
 8571TIP3    H147128   3.719   4.364  17.329 -0.7689  0.5418  1.6148
 8571TIP3    H247129   3.600   4.378  17.236  0.2807 -0.7565  0.0178
 8572TIP3   OH247130   6.712   4.825   4.065 -0.2529  0.3084  0.5642
 8572TIP3    H147131   6.754   4.879   4.131  1.0790 -0.5743  0.4782
 8572TIP3    H247132   6.781   4.805   4.002 -0.9474 -0.6567  0.0675
 8573TIP3   OH247133   6.636   2.708   0.386  0.0915 -0.5057  0.0824
 8573TIP3    H147134   6.629   2.696   0.481 -0.7299  0.6002  0.1764
 8573TIP3    H247135   6.665   2.798   0.376 -0.2761 -0.4764 -0.7415
 8574TIP3   OH247136   5.373   4.632   1.181  0.3113  0.7395  0.1707
 8574TIP3    H147137   5.371   4.557   1.122  0.7759 -0.7449  1.9667
 8574TIP3    H247138   5.458   4.626   1.225 -1.1365 -0.0025  3.1190
 8575TIP3   OH247139   1.348   4.043   2.515 -0.2153 -0.1180 -0.3486
 8575TIP3    H147140   1.332   4.024   2.422  0.1309 -2.1247 -0.0422
 8575TIP3    H247141   1.387   3.962   2.549  2.7907  1.6660  0.8026
 8576TIP3   OH247142   2.878   5.502   3.788  0.6256  0.3118 -0.1188
 8576TIP3    H147143   2.791   5.539   3.780 -0.8892 -2.8467  0.3022
 8576TIP3    H247144   2.901   5.474   3.700  1.1392  0.9185 -0.1854
 8577TIP3   OH247145   6.398   2.363   2.573  0.0971  0.5265  0.1494
 8577TIP3    H147146   6.380   2.365   2.479 -0.6432  1.5190  0.2906
 8577TIP3    H247147   6.468   2.427   2.586 -0.2151  0.8313  0.3475
 8578TIP3   OH247148   6.612   2.839   3.739  0.1743 -0.2245 -0.0119
 8578TIP3    H147149   6.626   2.908   3.803  2.3721 -2.2962  1.9122
 8578TIP3    H247150   6.620   2.883   3.654  0.2947  2.0472  1.1044
 8579TIP3   OH247151   3.243   1.929  14.342 -0.0753  0.3883 -0.2632
 8579TIP3    H147152   3.167   1.959  14.393 -1.0412  0.9783 -1.9307
 8579TIP3    H247153   3.217   1.946  14.251  2.0170  0.4467 -0.8849
 8580TIP3   OH247154   2.906   2.995   5.631 -0.1896  0.2941 -0.2198
 8580TIP3    H147155   2.926   3.005   5.724 -1.1330 -0.0853  0.0384
 8580TIP3    H247156   2.952   2.916   5.605 -0.2846  0.1499  0.0430
 8581TIP3   OH247157   1.403   4.799   5.200 -0.5009 -0.2891  0.1346
 8581TIP3    H147158   1.373   4.778   5.112  1.1561  0.2187 -0.5950
 8581TIP3    H247159   1.336   4.763   5.258 -2.1610  0.2881 -1.3485
 8582TIP3   OH247160   5.997   1.717  12.385 -0.1246 -0.3145  0.4766
 8582TIP3    H147161   6.055   1.781  12.345  1.4355 -0.9933  1.5200
 8582TIP3    H247162   6.054   1.642  12.403 -1.7387 -1.7399 -0.1107
 8583TIP3   OH247163   5.230   6.344  14.985  0.4382 -0.2545  0.1028
 8583TIP3    H147164   5.277   6.406  15.041  1.2412 -0.7795  0.0256
 8583TIP3    H247165   5.280   6.262  14.992 -0.7689 -1.0001  0.4464
 8584TIP3   OH247166   1.360   2.524   0.868  0.3507 -0.2269  0.4853
 8584TIP3    H147167   1.298   2.457   0.836 -1.4012  1.5515 -0.0430
 8584TIP3    H247168   1.416   2.477   0.929  0.3125 -2.5693 -1.1415
 8585TIP3   OH247169   4.250   4.710   2.356 -0.2179 -0.1609  0.2717
 8585TIP3    H147170   4.317   4.707   2.424  0.6060 -1.1762 -0.5614
 8585TIP3    H247171   4.168   4.727   2.404  0.3385 -0.8634  1.5060
 8586TIP3   OH247172   6.087   3.386   0.392  0.3760  0.1269 -0.0251
 8586TIP3    H147173   6.068   3.313   0.452  0.5377  0.0460 -0.0725
 8586TIP3    H247174   6.090   3.463   0.449 -2.4588  0.5401 -0.2932
 8587TIP3   OH247175   0.227   0.089   4.316  0.3382 -0.1004 -0.0278
 8587TIP3    H147176   0.285   0.013   4.310 -0.5972 -0.7952 -0.3480
 8587TIP3    H247177   0.217   0.118   4.225  1.9334  1.3912  0.2070
 8588TIP3   OH247178   6.123   2.045  17.265  0.4317 -0.0152  0.3082
 8588TIP3    H147179   6.180   2.036  17.342  1.0590  2.4529  0.1899
 8588TIP3    H247180   6.038   2.070  17.301  0.3860 -0.1101  0.2670
 8589TIP3   OH247181   5.728   3.412   3.104  0.8389 -0.2671 -0.3921
 8589TIP3    H147182   5.670   3.457   3.166  0.0420 -1.2404 -0.4104
 8589TIP3    H247183   5.795   3.371   3.159 -0.7753 -2.4849  0.0292
 8590TIP3   OH247184   0.928   3.459  11.290  0.1853  0.2430  0.3801
 8590TIP3    H147185   0.970   3.492  11.211 -0.7839 -1.6163 -1.0102
 8590TIP3    H247186   0.839   3.436  11.262  0.2319 -1.6959  1.6421
 8591TIP3   OH247187   6.228   6.650   4.370 -1.1044  0.2968 -0.3863
 8591TIP3    H147188   6.264   6.697   4.295 -1.4539 -0.2947 -0.9317
 8591TIP3    H247189   6.277   6.568   4.373 -0.3824  0.7425  0.6615
 8592TIP3   OH247190   4.612   0.392  16.648 -0.1348  0.4666  0.2868
 8592TIP3    H147191   4.700   0.418  16.675 -0.1978 -0.5495  1.5821
 8592TIP3    H247192   4.617   0.385  16.552  0.8461  1.5834  0.2357
 8593TIP3   OH247193   5.373   2.015  11.593  0.0417  0.0890  0.1781
 8593TIP3    H147194   5.308   2.069  11.638 -0.7362 -0.9229  0.3067
 8593TIP3    H247195   5.325   1.936  11.569  0.9527 -0.2020 -0.7180
 8594TIP3   OH247196   1.580   3.122  14.413 -0.3493 -0.2193  0.6003
 8594TIP3    H147197   1.528   3.142  14.335  0.4538 -1.2301 -0.2332
 8594TIP3    H247198   1.670   3.143  14.386 -0.0090 -1.0129  1.0878
 8595TIP3   OH247199   6.016   4.082  13.869 -0.3098 -0.3023  0.4745
 8595TIP3    H147200   6.109   4.087  13.846 -0.1000 -1.4091  1.0215
 8595TIP3    H247201   6.015   4.035  13.952 -1.4772 -2.1428 -0.5160
 8596TIP3   OH247202   5.875   1.242   1.065 -0.5416 -0.0946 -0.0782
 8596TIP3    H147203   5.955   1.234   1.117 -0.0880  0.9563 -0.5846
 8596TIP3    H247204   5.886   1.178   0.995  0.0999  0.3914 -0.4366
 8597TIP3   OH247205   1.781   2.214   2.156  0.9333 -0.1509 -0.0238
 8597TIP3    H147206   1.742   2.246   2.075 -0.5777 -0.0280  0.7118
 8597TIP3    H247207   1.748   2.124   2.165  0.9280 -0.0978  0.5338
 8598TIP3   OH247208   2.701   2.890  11.596 -0.0806  0.0073 -0.0364
 8598TIP3    H147209   2.640   2.946  11.548  1.3281  1.0282 -0.7186
 8598TIP3    H247210   2.750   2.844  11.528  0.8913  0.3135  0.4333
 8599TIP3   OH247211   5.842   5.684  12.020  0.3305 -0.3356 -0.5187
 8599TIP3    H147212   5.848   5.611  12.081  0.0215  1.2882  1.5684
 8599TIP3    H247213   5.769   5.737  12.053  2.8460  2.8602  0.3563
 8600TIP3   OH247214   0.226   4.572  12.854  1.5090 -0.2474 -0.1869
 8600TIP3    H147215   0.132   4.559  12.865  1.1786  1.2283 -0.9698
 8600TIP3    H247216   0.266   4.498  12.899 -0.0327 -1.1529 -0.2377
 8601TIP3   OH247217   5.697   4.511  16.423 -0.2449 -0.4469  0.8008
 8601TIP3    H147218   5.721   4.423  16.392 -0.7335 -0.3163  0.0083
 8601TIP3    H247219   5.778   4.548  16.457  0.4598 -0.4087 -0.8092
 8602TIP3   OH247220   3.725   1.724   4.879 -0.1807 -0.2442 -0.8925
 8602TIP3    H147221   3.664   1.696   4.811 -0.0572  0.1144 -1.1581
 8602TIP3    H247222   3.787   1.781   4.833 -0.5330  0.6081 -0.3470
 8603TIP3   OH247223   1.743   4.918   2.867 -0.4690  0.5826  0.1244
 8603TIP3    H147224   1.667   4.876   2.828 -0.4859  0.8855 -0.1740
 8603TIP3    H247225   1.816   4.891   2.811 -0.3903  0.4771  0.2764
 8604TIP3   OH247226   0.113   0.060   2.114  0.3885 -0.1737  0.6457
 8604TIP3    H147227   0.158   0.107   2.185 -0.9736  1.7979  0.2952
 8604TIP3    H247228   0.069  -0.013   2.157  1.7919 -0.6100  1.3833
 8605TIP3   OH247229   0.773   1.263   5.427  0.1481 -0.1379 -0.2662
 8605TIP3    H147230   0.849   1.205   5.436 -0.8619 -1.5897 -0.6400
 8605TIP3    H247231   0.779   1.296   5.338  1.8326  2.0430  0.5595
 8606TIP3   OH247232   1.738   1.310  12.228  0.4579  0.4585  0.1023
 8606TIP3    H147233   1.800   1.243  12.200  0.1942  0.7190 -1.1797
 8606TIP3    H247234   1.782   1.393  12.210  0.9932  0.6799  2.1642
 8607TIP3   OH247235   4.457   2.701   3.778 -0.0518 -0.1519 -0.1067
 8607TIP3    H147236   4.362   2.709   3.785 -0.2270 -1.4412 -0.6641
 8607TIP3    H247237   4.472   2.680   3.686  0.7235 -0.4953  0.0928
 8608TIP3   OH247238   4.027   4.117  13.376  0.1672 -0.1073  0.7037
 8608TIP3    H147239   3.999   4.026  13.383 -1.4714  0.2934 -0.0892
 8608TIP3    H247240   3.982   4.162  13.448 -2.6599  0.8186 -1.4497
 8609TIP3   OH247241   3.158   5.627  13.641 -0.6976 -0.4698  0.4802
 8609TIP3    H147242   3.105   5.694  13.684 -2.3979 -1.2323 -0.3552
 8609TIP3    H247243   3.147   5.549  13.695 -0.2114 -0.5699  0.4409
 8610TIP3   OH247244   3.271   3.121  13.744  0.2097  0.0438  0.0765
 8610TIP3    H147245   3.268   3.200  13.799  2.2799  1.9942 -2.3364
 8610TIP3    H247246   3.342   3.069  13.782 -0.5934 -0.2844  1.1766
 8611TIP3   OH247247   2.631   3.767  13.641 -0.0321  0.1555 -0.4595
 8611TIP3    H147248   2.713   3.775  13.592 -0.6457  3.5085 -1.1636
 8611TIP3    H247249   2.563   3.795  13.579 -1.3027  0.7102  1.1146
 8612TIP3   OH247250   2.929   2.712  14.030  0.6611 -0.0939  0.0487
 8612TIP3    H147251   3.014   2.737  13.993  1.0196 -1.2141  0.0750
 8612TIP3    H247252   2.869   2.782  14.004  1.6076  0.7503  0.0943
 8613TIP3   OH247253   1.676   2.841   2.727  0.9334  1.0751  0.7800
 8613TIP3    H147254   1.734   2.876   2.795  0.9088 -1.1232  2.0612
 8613TIP3    H247255   1.616   2.783   2.775  1.7465 -1.6289 -1.2237
 8614TIP3   OH247256   1.160   0.442  14.422 -0.3172  0.3159 -0.4743
 8614TIP3    H147257   1.066   0.440  14.436 -0.4238 -0.0070 -1.2284
 8614TIP3    H247258   1.182   0.535  14.417 -0.5659  0.3931 -0.1608
 8615TIP3   OH247259   4.048   5.333  12.910  0.2352  0.5384  0.0884
 8615TIP3    H147260   3.962   5.291  12.905  0.7969 -0.8236  0.9941
 8615TIP3    H247261   4.053   5.367  12.999 -0.4447  3.1930 -0.8032
 8616TIP3   OH247262   0.837   1.355  16.950  0.2305 -0.1027  0.5368
 8616TIP3    H147263   0.769   1.386  16.891 -1.5176 -1.6085  1.6389
 8616TIP3    H247264   0.869   1.434  16.994 -0.7737  0.6564 -0.0652
 8617TIP3   OH247265   5.026   1.199   0.173  0.0690  0.4848 -0.3970
 8617TIP3    H147266   5.080   1.125   0.200  0.7787  1.3377  0.6339
 8617TIP3    H247267   5.034   1.262   0.245 -0.9575  1.3296 -0.9901
 8618TIP3   OH247268   0.238   5.684   3.806  0.0562  0.1690 -0.3281
 8618TIP3    H147269   0.240   5.738   3.885  0.3080 -1.3221  0.7129
 8618TIP3    H247270   0.324   5.644   3.802 -0.6141 -1.3574 -0.1942
 8619TIP3   OH247271   1.155   1.035  15.326  0.6825 -0.1632  0.5102
 8619TIP3    H147272   1.114   1.054  15.242  1.4506  0.0470  0.1843
 8619TIP3    H247273   1.106   1.088  15.389  0.2559 -0.1512  0.1755
 8620TIP3   OH247274   0.181   3.755  11.906  0.4780  0.2808 -0.3113
 8620TIP3    H147275   0.102   3.700  11.910  0.2114  0.7147  2.1740
 8620TIP3    H247276   0.153   3.832  11.856  0.0581 -0.6126 -1.5018
 8621TIP3   OH247277   4.691   6.256  12.389 -0.0879 -0.8697 -0.4150
 8621TIP3    H147278   4.724   6.252  12.478  0.5965  0.2496 -0.6004
 8621TIP3    H247279   4.739   6.188  12.342  0.2220 -0.8376 -0.1445
 8622TIP3   OH247280   1.944   1.544   3.881 -0.2161 -0.1855 -0.8326
 8622TIP3    H147281   1.861   1.574   3.917 -0.0356 -2.0416  1.3975
 8622TIP3    H247282   2.010   1.579   3.940  0.5445  0.6020 -2.1192
 8623TIP3   OH247283   6.592   0.081   3.561 -0.3932  0.0767  0.0712
 8623TIP3    H147284   6.612   0.153   3.502 -1.1246 -0.2224 -0.5573
 8623TIP3    H247285   6.678   0.043   3.582 -0.1104  0.2886 -0.6707
 8624TIP3   OH247286   6.075   5.239   1.783  0.3545  0.2940 -0.4414
 8624TIP3    H147287   6.096   5.169   1.844  0.1585 -0.4782 -1.2377
 8624TIP3    H247288   6.059   5.315   1.839  2.0134  0.1002  0.3674
 8625TIP3   OH247289   3.476   0.607  13.748 -0.8308 -0.8019  0.0337
 8625TIP3    H147290   3.557   0.557  13.755  0.4630  1.2423  0.7085
 8625TIP3    H247291   3.475   0.638  13.657  0.4543  1.1141  0.6089
 8626TIP3   OH247292   4.986   3.288  16.130  0.4965 -0.2184  0.2416
 8626TIP3    H147293   5.023   3.343  16.199  1.7690  0.1805 -0.7263
 8626TIP3    H247294   4.920   3.235  16.175 -1.2983  2.5376  1.1013
 8627TIP3   OH247295   2.453   0.224   5.428 -0.3021  0.4696 -0.2875
 8627TIP3    H147296   2.392   0.162   5.389 -0.4798 -0.3802  1.2498
 8627TIP3    H247297   2.399   0.299   5.452 -0.4842  0.3141 -0.2123
 8628TIP3   OH247298   3.993   5.508   6.492  0.4924  1.0949  0.3256
 8628TIP3    H147299   3.913   5.456   6.489  1.2407 -0.0486 -0.5612
 8628TIP3    H247300   3.968   5.587   6.541 -1.1991  0.8354 -0.0557
 8629TIP3   OH247301   5.035   1.954   3.261  0.0989 -0.1729 -0.1845
 8629TIP3    H147302   5.032   2.047   3.237 -1.9657 -0.1942 -0.1336
 8629TIP3    H247303   4.944   1.930   3.276  0.7839 -1.6659  2.0018
 8630TIP3   OH247304   2.785   3.596   4.428  0.0836 -0.3550  0.0873
 8630TIP3    H147305   2.758   3.601   4.519 -0.7328 -0.3510 -0.1402
 8630TIP3    H247306   2.878   3.577   4.431 -0.0936 -1.1870  0.9239
 8631TIP3   OH247307   4.430   5.551   5.489  0.3488  0.6166 -0.3487
 8631TIP3    H147308   4.344   5.511   5.500  0.3136  0.8869  0.4311
 8631TIP3    H247309   4.492   5.486   5.523  0.3598  0.8877  0.1478
 8632TIP3   OH247310   3.728   3.370  12.780  0.2660  0.3581  0.1212
 8632TIP3    H147311   3.756   3.279  12.769 -1.8899 -0.0890 -2.7371
 8632TIP3    H247312   3.809   3.421  12.769  1.7909 -1.0870  3.1672
 8633TIP3   OH247313   5.318   3.739   5.702 -0.0110 -0.3986 -0.5134
 8633TIP3    H147314   5.322   3.791   5.782  1.8899  0.9691 -1.4218
 8633TIP3    H247315   5.347   3.651   5.728 -0.9099 -0.4014  0.5576
 8634TIP3   OH247316   5.641   3.028  12.559 -0.2303  0.3580  0.0950
 8634TIP3    H147317   5.689   3.065  12.633  0.7507 -0.2081 -0.2482
 8634TIP3    H247318   5.583   2.963  12.599  0.7745 -0.4288  0.3236
 8635TIP3   OH247319   5.680   1.879   3.314  0.3811 -0.4955  0.2017
 8635TIP3    H147320   5.595   1.917   3.336  0.1849 -2.0325  2.4940
 8635TIP3    H247321   5.740   1.916   3.380  1.4699  0.3670 -1.2197
 8636TIP3   OH247322   0.836   6.122   2.566  0.3643  0.6427  0.2755
 8636TIP3    H147323   0.815   6.138   2.474  0.0370  1.6665  0.5190
 8636TIP3    H247324   0.753   6.101   2.607  0.6510 -0.8253  0.1571
 8637TIP3   OH247325   3.533   0.146  16.668 -0.0883  0.0725 -0.2153
 8637TIP3    H147326   3.446   0.145  16.628 -0.2769  1.7761  0.1096
 8637TIP3    H247327   3.546   0.236  16.697  2.1056  0.0505 -0.9118
 8638TIP3   OH247328   4.262   1.089  13.859  0.2878  0.1170  0.3071
 8638TIP3    H147329   4.169   1.086  13.837  0.4580 -0.2430 -0.4108
 8638TIP3    H247330   4.305   1.118  13.778  0.9424 -1.2919  0.1090
 8639TIP3   OH247331   2.926   3.017   0.499 -0.9677  0.0244  0.2394
 8639TIP3    H147332   2.956   3.089   0.445 -1.3585 -0.4877 -0.6926
 8639TIP3    H247333   2.992   3.008   0.567 -1.4032  1.8909  0.9844
 8640TIP3   OH247334   4.821   2.086   1.552  0.2360 -0.6204 -0.2208
 8640TIP3    H147335   4.882   2.014   1.567  0.7539 -0.4721 -1.4838
 8640TIP3    H247336   4.748   2.046   1.504 -0.1904 -0.5922  0.3924
 8641TIP3   OH247337   2.877   1.617   4.598  0.0327 -0.0137 -0.0799
 8641TIP3    H147338   2.866   1.526   4.571  1.0664  0.1436 -1.1321
 8641TIP3    H247339   2.822   1.667   4.537  0.7969  0.1821 -0.6344
 8642TIP3   OH247340   5.142   4.529   0.024 -0.0307 -0.1363 -0.3387
 8642TIP3    H147341   5.047   4.534   0.027  0.0021  0.2381  1.7675
 8642TIP3    H247342   5.171   4.612   0.064  1.0830 -1.6737  2.2870
 8643TIP3   OH247343   2.131   3.614  14.467  0.6833  0.5442  0.2442
 8643TIP3    H147344   2.139   3.680  14.398 -0.1506  0.0569 -0.3228
 8643TIP3    H247345   2.037   3.600  14.477  0.7606  0.8958  1.7671
 8644TIP3   OH247346   6.562   0.748  17.188 -0.1122  0.0787 -0.0061
 8644TIP3    H147347   6.523   0.761  17.274  1.1656 -1.6111  0.8859
 8644TIP3    H247348   6.491   0.767  17.126 -1.6149 -0.5247  1.4720
 8645TIP3   OH247349   3.055   4.147  12.523 -0.8161 -0.1550 -0.0668
 8645TIP3    H147350   3.059   4.053  12.504  0.8683 -0.3119  0.8341
 8645TIP3    H247351   3.058   4.152  12.619 -1.7860  0.8149 -0.0696
 8646TIP3   OH247352   5.258   3.585  10.284  0.3554 -0.0026 -0.4314
 8646TIP3    H147353   5.173   3.629  10.278  0.0367  0.4396  3.9109
 8646TIP3    H247354   5.236   3.494  10.307  1.0467 -0.0847 -0.0704
 8647TIP3   OH247355   5.956   4.781   3.314  0.0203 -0.1623 -0.4464
 8647TIP3    H147356   5.908   4.837   3.375 -0.3642  0.4065 -1.2655
 8647TIP3    H247357   5.939   4.692   3.345 -0.0122  0.1209  0.3879
 8648TIP3   OH247358   3.883   3.519   3.649 -0.2443 -0.1605 -0.0439
 8648TIP3    H147359   3.821   3.544   3.581  1.6694 -1.6118 -2.5389
 8648TIP3    H247360   3.948   3.589   3.649 -0.5656  0.1373  0.7429
 8649TIP3   OH247361   1.913   2.027   2.808  0.1484  0.3499 -0.2980
 8649TIP3    H147362   1.963   2.059   2.884  0.5030 -0.1357 -0.3206
 8649TIP3    H247363   1.859   2.102   2.782 -1.4440 -0.0356  1.6123
 8650TIP3   OH247364   1.043   0.565   0.659 -0.4406 -0.3669 -0.1263
 8650TIP3    H147365   0.990   0.498   0.700  0.2356 -0.4417  0.6391
 8650TIP3    H247366   0.980   0.634   0.635 -1.0725 -1.0652 -0.5354
 8651TIP3   OH247367   0.157   2.878   5.167  0.3646 -0.8045  0.0051
 8651TIP3    H147368   0.079   2.823   5.163 -0.0290 -0.1819 -1.2332
 8651TIP3    H247369   0.192   2.877   5.078  0.9053  0.1348  0.1965
 8652TIP3   OH247370   3.551   2.412  16.221  0.3786  0.2714 -0.6560
 8652TIP3    H147371   3.517   2.329  16.186 -0.0764  0.4755 -0.7041
 8652TIP3    H247372   3.543   2.403  16.316 -1.3194  0.9268 -0.6887
 8653TIP3   OH247373   2.791   3.875  13.828  0.1322 -0.0950 -0.3962
 8653TIP3    H147374   2.717   3.820  13.803  0.7163 -1.0836 -0.0013
 8653TIP3    H247375   2.835   3.895  13.745 -1.3644  1.7413 -0.8333
 8654TIP3   OH247376   5.358   2.365  17.096 -0.4122  0.4141 -0.4345
 8654TIP3    H147377   5.439   2.380  17.048 -0.2531  1.6047  0.1750
 8654TIP3    H247378   5.304   2.442  17.078 -1.2349 -0.1556 -0.4768
 8655TIP3   OH247379   2.074   4.610  14.548 -0.3749 -0.1454  0.0596
 8655TIP3    H147380   2.053   4.644  14.634 -1.9487 -0.1460 -0.3032
 8655TIP3    H247381   2.121   4.681  14.504  1.9784 -0.7340  1.4568
 8656TIP3   OH247382   1.765   5.539   2.101 -0.1812 -0.4183 -0.3089
 8656TIP3    H147383   1.672   5.521   2.085 -0.3613  0.3142 -0.1427
 8656TIP3    H247384   1.784   5.495   2.184 -1.0904  1.5729  1.0524
 8657TIP3   OH247385   5.105   5.512   2.228 -0.1847  0.0160 -0.0047
 8657TIP3    H147386   5.072   5.464   2.152  1.6443 -0.3796 -0.5881
 8657TIP3    H247387   5.191   5.544   2.202 -0.0854  1.0525  1.4375
 8658TIP3   OH247388   4.579   1.898   0.827 -0.2730 -0.0278 -0.2142
 8658TIP3    H147389   4.549   1.831   0.766 -1.0729  0.9550 -0.9397
 8658TIP3    H247390   4.629   1.850   0.893 -1.0367 -1.3641 -0.5665
 8659TIP3   OH247391   6.479   6.057  16.559 -0.4198 -0.5510  0.4161
 8659TIP3    H147392   6.556   6.007  16.587 -0.4109 -0.0219  1.3592
 8659TIP3    H247393   6.461   6.025  16.470  1.0999 -0.4424  0.0402
 8660TIP3   OH247394   1.865   2.741  14.022  0.2547 -0.0385  0.0115
 8660TIP3    H147395   1.827   2.768  14.106  0.6295 -1.7127  0.7630
 8660TIP3    H247396   1.907   2.820  13.988 -1.1031  1.0270  0.7022
 8661TIP3   OH247397   2.361   2.090  15.937 -0.1661 -0.2671  0.1774
 8661TIP3    H147398   2.270   2.093  15.967  0.1593 -0.6928  1.3009
 8661TIP3    H247399   2.401   2.023  15.993  1.1688  0.9019  0.6793
 8662TIP3   OH247400   0.110   0.794   0.281 -0.8167  0.0172 -0.0432
 8662TIP3    H147401   0.116   0.881   0.320 -0.0776 -0.0401 -0.0144
 8662TIP3    H247402   0.025   0.761   0.310 -2.0400  1.5037 -1.6899
 8663TIP3   OH247403   2.569   2.573  15.958  0.1455 -0.5310 -0.4359
 8663TIP3    H147404   2.527   2.503  16.010 -0.6217 -1.2769 -1.9974
 8663TIP3    H247405   2.530   2.654  15.992  2.3307 -0.5988  2.6202
 8664TIP3   OH247406   6.747   4.523  11.214 -0.5961 -0.3964  0.1569
 8664TIP3    H147407   6.787   4.497  11.130  0.6541  2.9005 -0.4216
 8664TIP3    H247408   6.817   4.512  11.278 -0.3007  0.7534  0.0409
 8665TIP3   OH247409   5.764   0.946  16.729  0.1873  0.1051  0.1175
 8665TIP3    H147410   5.736   1.028  16.768 -0.8003 -0.3094  0.3129
 8665TIP3    H247411   5.708   0.880  16.769 -0.0566 -0.4810 -1.1251
 8666TIP3   OH247412   0.820   2.423  15.160  0.5772 -0.2339  0.7538
 8666TIP3    H147413   0.852   2.499  15.210 -0.3421  0.1707  0.7547
 8666TIP3    H247414   0.849   2.347  15.210  2.3257  0.0627  0.2673
 8667TIP3   OH247415   4.051   3.846   4.345 -0.6071  0.1154  0.2588
 8667TIP3    H147416   4.078   3.927   4.387 -1.2688  0.2530  0.4235
 8667TIP3    H247417   4.019   3.791   4.417 -0.4693 -0.1681  0.1061
 8668TIP3   OH247418   5.579   2.716  12.636  0.2096 -0.5511  0.2481
 8668TIP3    H147419   5.508   2.652  12.626 -0.2954  0.2228 -1.4555
 8668TIP3    H247420   5.638   2.676  12.699 -0.8419 -2.0255  0.3566
 8669TIP3   OH247421   0.417   4.672   2.425  0.0161 -0.4613  0.1177
 8669TIP3    H147422   0.355   4.646   2.493  1.1091  1.1163  1.8091
 8669TIP3    H247423   0.405   4.767   2.417 -0.8202 -0.6955 -2.7179
 8670TIP3   OH247424   2.025   3.765   1.407 -0.0053 -0.3846 -0.1401
 8670TIP3    H147425   2.090   3.739   1.473 -0.4206 -0.1260  0.3816
 8670TIP3    H247426   1.943   3.773   1.456 -0.8888 -2.6377 -1.1146
 8671TIP3   OH247427   1.549   0.016   3.481 -0.2168 -0.4541 -0.1868
 8671TIP3    H147428   1.505   0.044   3.562 -0.0647 -0.2535 -0.1710
 8671TIP3    H247429   1.478   0.003   3.419 -0.1939  2.3181 -0.9228
 8672TIP3   OH247430   4.181   2.728  17.002  0.1187  0.4195  0.0262
 8672TIP3    H147431   4.225   2.658  17.050  1.3012  1.5339  0.6616
 8672TIP3    H247432   4.175   2.800  17.065 -3.0555  0.2229  0.1067
 8673TIP3   OH247433   1.209   6.390   1.913 -0.6230 -0.0189 -0.2779
 8673TIP3    H147434   1.217   6.326   1.984  1.0485  0.0933 -0.3119
 8673TIP3    H247435   1.141   6.354   1.856  1.5911 -2.9651 -1.3811
 8674TIP3   OH247436   0.566   5.462  11.689 -0.1739  0.7733 -0.2539
 8674TIP3    H147437   0.617   5.533  11.726 -0.5843  0.9516 -0.0280
 8674TIP3    H247438   0.483   5.503  11.661 -1.2971  0.0368  1.8023
 8675TIP3   OH247439   6.574   1.626   1.119 -0.2087  0.3832  0.0954
 8675TIP3    H147440   6.540   1.715   1.118  0.7918  0.7810 -0.2745
 8675TIP3    H247441   6.630   1.623   1.196 -0.4023  0.0159  0.2200
 8676TIP3   OH247442   0.221   0.075  13.160  0.4252  0.2130  0.0326
 8676TIP3    H147443   0.247   0.159  13.124 -0.9396  0.7894  0.3288
 8676TIP3    H247444   0.168   0.097  13.237  1.3682 -0.9495  1.0588
 8677TIP3   OH247445   4.542   2.987   1.642 -0.1540  0.0456  0.3057
 8677TIP3    H147446   4.565   2.909   1.693 -1.2382 -0.0170  0.7301
 8677TIP3    H247447   4.518   2.953   1.556  1.0837  0.0921 -0.0725
 8678TIP3   OH247448   3.381   0.888   5.214  0.3523  0.0035  0.1168
 8678TIP3    H147449   3.338   0.819   5.164  1.2795  0.7485 -1.7992
 8678TIP3    H247450   3.423   0.843   5.287  0.2267 -1.3453 -0.6209
 8679TIP3   OH247451   2.732   0.269  15.329  0.3078 -0.1818 -0.4268
 8679TIP3    H147452   2.761   0.260  15.420 -0.8838  0.2550  0.0059
 8679TIP3    H247453   2.642   0.235  15.328 -0.1437  0.9761 -1.1826
 8680TIP3   OH247454   5.223   1.471   3.466  0.8329  0.1114  0.0546
 8680TIP3    H147455   5.193   1.394   3.418  0.0090  0.0354  0.6593
 8680TIP3    H247456   5.145   1.500   3.514  1.3780  0.7758  0.5458
 8681TIP3   OH247457   5.953   0.416  12.748  0.3820 -0.0501 -0.4458
 8681TIP3    H147458   6.046   0.395  12.755  0.2671 -0.9961 -1.4746
 8681TIP3    H247459   5.950   0.507  12.717  0.9614 -0.1320 -0.7363
 8682TIP3   OH247460   3.215   4.098  10.615 -0.3995 -0.2373 -0.5638
 8682TIP3    H147461   3.196   4.178  10.566  0.6417  0.6868  0.4724
 8682TIP3    H247462   3.301   4.070  10.582 -0.6109 -0.7630 -0.6849
 8683TIP3   OH247463   0.234   1.546  14.613 -0.3390  1.0022 -0.1003
 8683TIP3    H147464   0.247   1.632  14.654  0.2246  0.6388  0.4989
 8683TIP3    H247465   0.160   1.508  14.659  1.1315  0.0317  1.5597
 8684TIP3   OH247466   5.304   5.890  13.780  0.5613 -0.0220 -0.3523
 8684TIP3    H147467   5.389   5.920  13.749 -0.0100  0.8708 -1.1225
 8684TIP3    H247468   5.241   5.925  13.716 -0.4317 -0.2162  0.4793
 8685TIP3   OH247469   0.426   0.725  17.089  0.0636 -0.7335 -0.2603
 8685TIP3    H147470   0.368   0.677  17.029 -0.0222 -0.8185 -0.1088
 8685TIP3    H247471   0.429   0.671  17.168  0.9747 -1.1337 -0.5548
 8686TIP3   OH247472   6.475   4.987  14.888 -0.2811  0.1663  0.5716
 8686TIP3    H147473   6.532   4.937  14.829 -1.1263 -0.1822  0.0201
 8686TIP3    H247474   6.441   4.921  14.949 -0.2975  0.3260  0.7347
 8687TIP3   OH247475   1.115   4.961   0.405 -0.2339 -0.4754 -0.5881
 8687TIP3    H147476   1.169   5.038   0.422 -0.0634 -0.9016  1.0410
 8687TIP3    H247477   1.079   4.975   0.318  1.1396  0.6292 -1.0189
 8688TIP3   OH247478   6.741   6.022  14.317  0.4914 -0.3478  0.2337
 8688TIP3    H147479   6.705   5.934  14.328 -0.4182 -0.0058  0.0739
 8688TIP3    H247480   6.822   6.009  14.268 -0.3617 -0.9716 -1.0604
 8689TIP3   OH247481   5.847   2.777   5.915  0.9729  0.1825  0.3026
 8689TIP3    H147482   5.899   2.788   5.995  0.6463  1.8327  0.3148
 8689TIP3    H247483   5.757   2.787   5.944  0.6696 -1.5798  0.0905
 8690TIP3   OH247484   5.336   5.071   0.344  0.1582 -0.2878  0.5754
 8690TIP3    H147485   5.316   5.149   0.396 -1.9848 -0.4205  0.0406
 8690TIP3    H247486   5.331   5.100   0.253  1.1552 -0.6632  0.3897
 8691TIP3   OH247487   0.280   4.745   3.322  0.4428  0.1308 -0.3993
 8691TIP3    H147488   0.272   4.837   3.349  0.2880  0.2278 -0.7648
 8691TIP3    H247489   0.190   4.717   3.304  0.4787 -0.1259 -0.1832
 8692TIP3   OH247490   4.907   0.601   4.613  0.2627 -0.4305  0.0143
 8692TIP3    H147491   4.862   0.682   4.586  0.2291 -1.1505 -2.3311
 8692TIP3    H247492   4.840   0.550   4.658 -0.5586 -0.3740 -1.1079
 8693TIP3   OH247493   0.161   1.224   0.071 -0.2992 -0.0649 -0.0832
 8693TIP3    H147494   0.082   1.172   0.086  1.0380 -2.0342  0.4364
 8693TIP3    H247495   0.206   1.179  -0.001  0.9052  0.3593  0.3900
 8694TIP3   OH247496   2.966   4.029  14.263 -0.3926 -0.1712 -0.0992
 8694TIP3    H147497   2.952   3.976  14.185 -2.7854 -0.8155  0.6690
 8694TIP3    H247498   2.884   4.076  14.275 -1.0941 -1.9004  3.2670
 8695TIP3   OH247499   2.528   5.587  13.662  0.0082  0.1671  0.3728
 8695TIP3    H147500   2.469   5.618  13.731 -1.2703  1.6453 -1.2838
 8695TIP3    H247501   2.471   5.543  13.600  1.0892 -0.8634  0.0755
 8696TIP3   OH247502   3.062   2.190   2.936 -0.2069  0.0607  0.1129
 8696TIP3    H147503   3.121   2.126   2.977 -1.6319 -2.3983 -1.4213
 8696TIP3    H247504   2.974   2.160   2.958 -0.9433  1.3076 -0.9630
 8697TIP3   OH247505   4.189   2.305   1.689  0.9292  0.6367 -0.2316
 8697TIP3    H147506   4.231   2.248   1.625  0.9488 -0.2491  0.5536
 8697TIP3    H247507   4.240   2.386   1.686  1.0849  0.5185 -1.1406
 8698TIP3   OH247508   4.415   5.906   6.083 -0.1215  0.0923 -0.5305
 8698TIP3    H147509   4.419   5.975   6.149  0.0309  0.2649 -0.7207
 8698TIP3    H247510   4.346   5.933   6.023 -3.1717 -1.9956  1.7208
 8699TIP3   OH247511   4.837   5.964   2.690  0.2801 -0.0062  0.5263
 8699TIP3    H147512   4.779   5.891   2.714 -1.9145  0.5451 -2.4976
 8699TIP3    H247513   4.901   5.925   2.630  0.7376  0.0875  0.9504
 8700TIP3   OH247514   0.706   0.729   0.566 -0.3979  0.3194 -0.1164
 8700TIP3    H147515   0.779   0.789   0.581  0.0948 -0.6667  1.7468
 8700TIP3    H247516   0.630   0.775   0.600 -0.3727  0.6830 -0.5407
 8701TIP3   OH247517   6.676   6.530  16.484  0.1736 -0.0898  0.3329
 8701TIP3    H147518   6.742   6.460  16.485 -0.3554 -0.6977 -1.7042
 8701TIP3    H247519   6.593   6.484  16.477 -0.1758  0.6958 -1.2717
 8702TIP3   OH247520   5.301   4.431  10.775  0.0374  0.0113 -0.7756
 8702TIP3    H147521   5.346   4.508  10.810 -2.3265  0.7629  0.8607
 8702TIP3    H247522   5.242   4.465  10.709  1.8629 -0.9903 -3.0550
 8703TIP3   OH247523   1.001   5.957  12.791 -0.2456 -0.1434 -0.1992
 8703TIP3    H147524   1.001   5.889  12.724 -2.5019  0.3826 -0.7948
 8703TIP3    H247525   0.916   5.949  12.833  0.5401  0.5347  1.6233
 8704TIP3   OH247526   4.418   4.211  14.882  0.7891 -0.4053 -0.2783
 8704TIP3    H147527   4.490   4.212  14.944  1.0764 -0.8962 -0.5988
 8704TIP3    H247528   4.352   4.268  14.921  1.5227  0.4121 -0.1989
 8705TIP3   OH247529   4.775   3.809  12.460  0.5245 -0.2203 -0.0701
 8705TIP3    H147530   4.784   3.889  12.408  1.5194 -0.5971 -0.4986
 8705TIP3    H247531   4.682   3.802  12.477 -0.1182 -0.9032 -3.1558
 8706TIP3   OH247532   3.543   6.718  17.378  0.0631  0.1261 -0.1205
 8706TIP3    H147533   3.521   6.793  17.322  0.4809  0.9507  0.7900
 8706TIP3    H247534   3.500   6.737  17.461 -1.4201 -1.5759 -0.4158
 8707TIP3   OH247535   5.438   1.890  17.073 -0.0173 -0.2108 -0.2704
 8707TIP3    H147536   5.397   1.976  17.081  1.2594  0.4719 -0.7546
 8707TIP3    H247537   5.528   1.904  17.101  0.2134 -1.4058 -0.3582
 8708TIP3   OH247538   0.858   2.285   0.678  0.1158  0.2518 -0.7109
 8708TIP3    H147539   0.910   2.295   0.757 -0.1759 -0.5168 -0.4072
 8708TIP3    H247540   0.768   2.273   0.709 -0.4334  2.5360 -1.2649
 8709TIP3   OH247541   1.593   4.952  13.235 -0.2182  0.2648 -0.6730
 8709TIP3    H147542   1.619   4.999  13.314 -1.3376  1.5851 -1.0418
 8709TIP3    H247543   1.497   4.948  13.240 -0.3418  0.7372 -2.1372
 8710TIP3   OH247544   0.641   1.401   5.606  0.8166 -0.0743 -0.5711
 8710TIP3    H147545   0.672   1.367   5.522  0.0522 -0.2305 -0.7987
 8710TIP3    H247546   0.699   1.360   5.671  0.6437 -0.9221 -0.9319
 8711TIP3   OH247547   5.626   0.133  15.603  0.1044 -0.1377  0.0707
 8711TIP3    H147548   5.663   0.220  15.585 -1.8687  0.5248 -1.0551
 8711TIP3    H247549   5.631   0.124  15.698  3.0788 -0.1216  0.0000
 8712TIP3   OH247550   1.221   6.161   5.950  0.0368 -0.5306 -0.4835
 8712TIP3    H147551   1.310   6.160   5.913 -0.5324  0.2474 -1.9729
 8712TIP3    H247552   1.184   6.077   5.926  0.3511 -0.8449  0.1141
 8713TIP3   OH247553   1.629   1.617  12.157  0.3058 -0.2797 -0.1447
 8713TIP3    H147554   1.722   1.604  12.179  0.0590 -3.0646 -0.3737
 8713TIP3    H247555   1.582   1.590  12.235 -0.3616  0.3789 -0.3068
 8714TIP3   OH247556   0.447   5.276   0.008  0.4944 -0.1477 -0.2911
 8714TIP3    H147557   0.455   5.331   0.086 -1.0170  1.2623 -1.0494
 8714TIP3    H247558   0.496   5.323  -0.060 -0.1395 -0.1393 -0.7527
 8715TIP3   OH247559   1.650   4.046  17.088 -0.0476  0.1251 -0.0380
 8715TIP3    H147560   1.655   3.972  17.148 -0.1109  0.1145 -0.0453
 8715TIP3    H247561   1.714   4.108  17.122  0.7506 -0.3594 -0.6235
 8716TIP3   OH247562   0.668   5.668  14.652 -0.1971  0.4462 -0.3109
 8716TIP3    H147563   0.639   5.602  14.716 -1.5874  0.0021 -1.3348
 8716TIP3    H247564   0.728   5.724  14.700  0.3855 -1.0791  0.8269
 8717TIP3   OH247565   2.731   0.540  16.982  0.4299  0.2245 -0.4324
 8717TIP3    H147566   2.638   0.530  16.962 -0.1296  0.1395  1.8992
 8717TIP3    H247567   2.758   0.618  16.933 -0.5362 -0.4044 -2.0494
 8718TIP3   OH247568   4.241   6.583   0.549  0.6720  0.0958 -0.1833
 8718TIP3    H147569   4.254   6.677   0.540  0.7622  0.0716 -0.3092
 8718TIP3    H247570   4.329   6.546   0.538  0.6533  0.0055 -0.0299
 8719TIP3   OH247571   6.453   3.143   3.179 -0.2130 -0.7564 -0.1266
 8719TIP3    H147572   6.447   3.090   3.100  1.9117  1.2796 -1.8147
 8719TIP3    H247573   6.425   3.230   3.152  0.7860  0.0610  1.2648
 8720TIP3   OH247574   2.240   5.644  14.484  0.1541 -0.4116  0.3110
 8720TIP3    H147575   2.230   5.631  14.579  0.1592 -1.2494  0.2012
 8720TIP3    H247576   2.335   5.645  14.471  0.1525 -1.0586  0.2198
 8721TIP3   OH247577   5.846   5.869   0.177  0.2698  0.2921 -0.2360
 8721TIP3    H147578   5.796   5.871   0.095 -0.3510  0.7780  0.1431
 8721TIP3    H247579   5.784   5.834   0.241  0.9061 -0.5639 -0.0609
 8722TIP3   OH247580   3.419   2.842  15.665 -0.4893  0.2611  0.0033
 8722TIP3    H147581   3.444   2.844  15.572  0.8799 -1.0655  0.2925
 8722TIP3    H247582   3.502   2.842  15.712 -1.1589  0.4336  1.2269
 8723TIP3   OH247583   3.356   4.337   5.789 -0.5050 -0.2093  0.2470
 8723TIP3    H147584   3.350   4.242   5.790  0.9612 -0.3201  1.1644
 8723TIP3    H247585   3.429   4.356   5.730 -1.1406  0.3999 -0.3811
 8724TIP3   OH247586   5.064   3.331  12.159 -0.3345 -0.1316 -0.2697
 8724TIP3    H147587   5.004   3.292  12.096 -0.4347 -2.1596  1.0126
 8724TIP3    H247588   5.009   3.359  12.232  0.1295 -1.0410  0.4506
 8725TIP3   OH247589   5.994   3.522  11.873  0.4777  0.3385 -0.3914
 8725TIP3    H147590   5.951   3.585  11.816 -0.1793 -0.4775 -0.8166
 8725TIP3    H247591   6.081   3.560  11.889  0.2277  1.1688 -0.9243
 8726TIP3   OH247592   3.570   5.493  14.893  0.2920 -0.2165  0.1693
 8726TIP3    H147593   3.612   5.417  14.855 -0.1143 -1.3234  1.8045
 8726TIP3    H247594   3.589   5.486  14.987  0.6695  1.9774  0.3120
 8727TIP3   OH247595   5.456   4.335   0.493  0.3748 -0.6080  0.2091
 8727TIP3    H147596   5.429   4.256   0.446 -0.2732 -0.1161 -0.2573
 8727TIP3    H247597   5.438   4.406   0.433  0.6876 -0.0710  0.7387
 8728TIP3   OH247598   3.617   0.877  13.937  0.2353 -0.9317 -0.4457
 8728TIP3    H147599   3.602   0.887  14.030 -1.3244 -1.9597 -0.5470
 8728TIP3    H247600   3.586   0.959  13.898  0.0881 -0.8372 -0.1290
 8729TIP3   OH247601   3.751   1.818   6.452  0.5405  0.2056  0.7401
 8729TIP3    H147602   3.762   1.893   6.394  1.2861 -0.3733  0.1181
 8729TIP3    H247603   3.827   1.763   6.435  0.1631 -0.5447  1.4138
 8730TIP3   OH247604   5.737   6.701   5.292  0.4199 -0.8027 -0.3659
 8730TIP3    H147605   5.732   6.785   5.337  0.8072 -0.7950 -0.3295
 8730TIP3    H247606   5.666   6.704   5.228  0.3647 -0.4919 -0.2939
 8731TIP3   OH247607   0.251   1.164  15.792 -0.0036 -0.2179 -0.3228
 8731TIP3    H147608   0.314   1.215  15.741 -0.2740  0.7884  0.3082
 8731TIP3    H247609   0.166   1.206  15.776 -0.3710 -0.9576 -0.3983
 8732TIP3   OH247610   6.719   4.545  10.741 -0.1304 -1.3048  0.6054
 8732TIP3    H147611   6.756   4.585  10.820  0.8722 -1.8802  0.4477
 8732TIP3    H247612   6.675   4.466  10.773 -0.3513 -1.1582  0.6682
 8733TIP3   OH247613   3.484   2.531   0.003 -0.6337  0.1678  0.1941
 8733TIP3    H147614   3.501   2.439  -0.017 -0.0304  0.3922 -0.3791
 8733TIP3    H247615   3.560   2.577  -0.033  0.8829  0.5866  3.5718
 8734TIP3   OH247616   0.020   3.849   3.743 -0.2698 -0.5377  0.6414
 8734TIP3    H147617   0.017   3.830   3.650 -0.8699  2.2042  0.0183
 8734TIP3    H247618  -0.067   3.827   3.775 -0.3622 -0.5771  0.3618
 8735TIP3   OH247619   5.812   0.119  13.553 -0.1238  0.2386 -0.0015
 8735TIP3    H147620   5.805   0.023  13.548  1.6736  0.0154  0.9653
 8735TIP3    H247621   5.773   0.150  13.471 -1.8856 -1.2222  0.2149
 8736TIP3   OH247622   0.117   4.778  10.842 -0.2936 -0.2046 -0.1728
 8736TIP3    H147623   0.167   4.697  10.851 -0.3839 -0.4321 -1.4991
 8736TIP3    H247624   0.176   4.846  10.876 -0.2619 -0.8162  1.0502
 8737TIP3   OH247625   5.066   6.677  16.292 -0.3908 -0.1522  0.0978
 8737TIP3    H147626   5.048   6.685  16.199  0.2127 -0.4018 -0.0429
 8737TIP3    H247627   5.153   6.638  16.297 -0.5498 -0.4425  0.7652
 8738TIP3   OH247628   0.977   6.451   0.168 -0.2288  0.3156  0.0525
 8738TIP3    H147629   0.884   6.441   0.185 -0.2212  1.1563  0.6537
 8738TIP3    H247630   0.992   6.545   0.165  0.5462  0.1923 -0.3588
 8739TIP3   OH247631   0.409   0.624   4.626  0.1664 -0.1857 -0.3101
 8739TIP3    H147632   0.388   0.572   4.704  1.0703 -0.0581  0.0313
 8739TIP3    H247633   0.328   0.626   4.576  0.3024 -2.7094 -0.7740
 8740TIP3   OH247634   2.366   5.944  12.827  0.3583  0.0293  0.4736
 8740TIP3    H147635   2.271   5.936  12.817  0.2319  0.9795  0.7878
 8740TIP3    H247636   2.383   5.913  12.916  0.2046  0.7915  0.7757
 8741TIP3   OH247637   1.359   0.986   5.154  0.8008  0.3086  0.1467
 8741TIP3    H147638   1.426   1.027   5.208  0.5340 -0.6830  1.2779
 8741TIP3    H247639   1.282   0.982   5.210 -0.3055  1.5524 -1.1648
 8742TIP3   OH247640   4.073   6.611  15.649 -0.3670 -0.3763  0.0448
 8742TIP3    H147641   3.992   6.661  15.637 -0.1893 -0.1828 -0.3617
 8742TIP3    H247642   4.113   6.648  15.728  0.8233  1.5860 -1.4020
 8743TIP3   OH247643   6.755   6.332   2.516  0.2677 -0.2472 -0.3288
 8743TIP3    H147644   6.820   6.267   2.542  0.3687  0.0924  0.2902
 8743TIP3    H247645   6.807   6.412   2.500  0.0328 -0.0296 -0.0253
 8744TIP3   OH247646   1.315   3.222  14.823  0.0593 -0.0305 -0.3491
 8744TIP3    H147647   1.401   3.195  14.791  0.1330  0.6425 -0.7398
 8744TIP3    H247648   1.275   3.268  14.749 -0.6277 -0.3201 -0.1624
 8745TIP3   OH247649   1.042   2.353  15.694 -0.4075  0.3413  0.2429
 8745TIP3    H147650   0.967   2.413  15.692  0.3800  1.3509 -0.2163
 8745TIP3    H247651   1.092   2.381  15.772  0.0089  0.3376 -0.0210
 8746TIP3   OH247652   0.139   3.669  16.604  0.8920  0.7948 -0.1017
 8746TIP3    H147653   0.084   3.713  16.539  1.4958 -0.1142 -1.2645
 8746TIP3    H247654   0.081   3.605  16.645  0.9987  0.0497 -1.1051
 8747TIP3   OH247655   5.700   3.065  17.046 -0.3481 -0.0932 -0.3132
 8747TIP3    H147656   5.747   3.140  17.010 -2.8043  1.8034  0.1651
 8747TIP3    H247657   5.675   3.013  16.970  0.5244  0.0792 -0.7308
 8748TIP3   OH247658   0.676   0.638  12.501 -0.3947 -0.2111  0.1567
 8748TIP3    H147659   0.669   0.729  12.471 -0.8347 -0.0365  0.7655
 8748TIP3    H247660   0.627   0.636  12.584  0.6844 -0.6966  0.8116
 8749TIP3   OH247661   4.483   1.395   0.655 -0.4537 -0.4291 -0.4726
 8749TIP3    H147662   4.479   1.372   0.562  0.0111 -0.9484 -0.3696
 8749TIP3    H247663   4.498   1.490   0.655  0.2939 -0.5408 -0.9373
 8750TIP3   OH247664   3.093   5.700  15.101  0.0040  0.7769 -0.2271
 8750TIP3    H147665   3.098   5.618  15.052 -2.8403  0.2144  0.1953
 8750TIP3    H247666   3.102   5.768  15.035  2.2666  0.1990 -0.6057
 8751TIP3   OH247667   3.062   0.311   5.176  0.2477 -0.3697 -0.6186
 8751TIP3    H147668   3.072   0.406   5.173 -1.2508 -0.0190  2.2867
 8751TIP3    H247669   3.106   0.285   5.257 -2.2407 -1.6601  0.4060
 8752TIP3   OH247670   5.473   6.746   0.134  0.1761 -0.4327  0.2748
 8752TIP3    H147671   5.539   6.688   0.097  0.4510  0.6138 -0.9720
 8752TIP3    H247672   5.523   6.815   0.179 -0.0258  0.3522 -0.6574
 8753TIP3   OH247673   3.969   3.887  15.023 -0.3960  1.2651 -0.4312
 8753TIP3    H147674   4.062   3.869  15.013 -0.5166  1.6184 -2.7264
 8753TIP3    H247675   3.957   3.904  15.117  1.6138  0.1040  0.0819
 8754TIP3   OH247676   2.272   2.125  15.157 -0.3594  0.0810 -0.1701
 8754TIP3    H147677   2.361   2.098  15.137 -0.2786 -1.2464  1.7837
 8754TIP3    H247678   2.281   2.212  15.195  0.4014 -0.9095  2.0751
 8755TIP3   OH247679   6.222   5.516  14.514  0.1069 -0.6342  0.2799
 8755TIP3    H147680   6.270   5.583  14.466 -1.1224 -0.2287 -0.3998
 8755TIP3    H247681   6.148   5.494  14.458  0.8054 -3.0357  0.1692
 8756TIP3   OH247682   1.756   3.840  16.532  0.2091 -0.3856  0.0755
 8756TIP3    H147683   1.750   3.927  16.492 -0.4885 -0.3735  0.1842
 8756TIP3    H247684   1.847   3.831  16.558  0.0344  0.8485  1.2514
 8757TIP3   OH247685   6.484   0.629  10.824 -0.0850  0.5931 -0.7179
 8757TIP3    H147686   6.555   0.693  10.819  0.7927 -0.1968  0.7681
 8757TIP3    H247687   6.483   0.587  10.738  2.8731 -0.9692 -0.1392
 8758TIP3   OH247688   5.192   5.940   1.643  0.5778  0.6738 -0.2367
 8758TIP3    H147689   5.167   5.848   1.633  0.3658  0.7088 -0.0457
 8758TIP3    H247690   5.114   5.982   1.681  0.6879  0.9230 -0.2848
 8759TIP3   OH247691   1.327   5.869   0.392 -0.1829 -0.0309  0.9661
 8759TIP3    H147692   1.410   5.840   0.431  0.3176 -0.5437 -0.4186
 8759TIP3    H247693   1.354   5.918   0.313 -1.1778  0.4662  0.9217
 8760TIP3   OH247694   5.223   6.291   4.571 -0.4785 -0.0823  1.0233
 8760TIP3    H147695   5.190   6.375   4.603  0.7468  0.1628  1.6806
 8760TIP3    H247696   5.275   6.256   4.643  0.1786 -0.7532  0.2455
 8761TIP3   OH247697   2.852   1.998  14.603 -0.1419  0.2857 -0.4865
 8761TIP3    H147698   2.931   2.021  14.651  0.8428  1.5012 -2.6035
 8761TIP3    H247699   2.802   2.079  14.597 -0.3773  0.0938 -1.2872
 8762TIP3   OH247700   2.560   0.708   5.311  0.0670 -0.0714  0.0603
 8762TIP3    H147701   2.572   0.661   5.394 -1.7841 -0.3658  0.1987
 8762TIP3    H247702   2.485   0.666   5.270  0.9254  0.0917 -1.7869
 8763TIP3   OH247703   2.484   1.438  12.757  0.4758  0.2458  0.1723
 8763TIP3    H147704   2.493   1.513  12.816 -1.3690  0.2057  0.5531
 8763TIP3    H247705   2.538   1.369  12.797  0.8098  0.8314  0.7404
 8764TIP3   OH247706   4.047   0.156  12.109  0.5332 -0.6419  0.2510
 8764TIP3    H147707   4.128   0.137  12.061  1.8776  0.2853  2.0324
 8764TIP3    H247708   4.073   0.156  12.201 -1.2201  0.9386  0.8075
 8765TIP3   OH247709   3.506   0.639  12.815 -0.1162 -0.4015 -0.0208
 8765TIP3    H147710   3.518   0.571  12.749 -0.2815  0.2313 -0.7300
 8765TIP3    H247711   3.570   0.707  12.791  0.4623 -0.5600  1.0243
 8766TIP3   OH247712   3.598   1.726   3.182 -0.6971 -0.2371 -0.0080
 8766TIP3    H147713   3.642   1.642   3.172  0.8876  0.4800  0.5477
 8766TIP3    H247714   3.505   1.704   3.188 -0.4118 -1.8432 -0.9014
 8767TIP3   OH247715   6.746   1.845  15.948 -0.5485 -0.0738 -0.0990
 8767TIP3    H147716   6.746   1.819  16.040 -0.6890  1.0370  0.2299
 8767TIP3    H247717   6.835   1.825  15.917 -0.1613  0.5425  0.5793
 8768TIP3   OH247718   6.296   0.707   3.329  0.0691 -0.3878  0.6523
 8768TIP3    H147719   6.253   0.759   3.396  1.0386 -1.3561  2.1007
 8768TIP3    H247720   6.230   0.695   3.261 -1.0613  0.3322  1.5891
 8769TIP3   OH247721   1.911   2.351  16.299  0.4231  0.4222  0.1233
 8769TIP3    H147722   1.902   2.399  16.216  0.2162  0.8197  0.3710
 8769TIP3    H247723   1.969   2.406  16.352 -1.5814  1.5738  1.2513
 8770TIP3   OH247724   1.547   3.224  15.190  0.1668  0.0007  0.2336
 8770TIP3    H147725   1.515   3.142  15.152  0.3221  0.5170 -1.0645
 8770TIP3    H247726   1.588   3.198  15.272 -1.1134 -1.0287  0.5872
 8771TIP3   OH247727   5.545   2.171  13.692  0.0857  0.2427  0.3662
 8771TIP3    H147728   5.575   2.138  13.777 -0.3969  0.3169  0.5660
 8771TIP3    H247729   5.454   2.198  13.707 -0.5994 -1.4142 -0.6272
 8772TIP3   OH247730   6.160   6.590   1.731 -0.0602 -0.0070 -0.1080
 8772TIP3    H147731   6.244   6.560   1.765 -0.3614  0.2948  0.9379
 8772TIP3    H247732   6.152   6.546   1.646  1.0796 -0.1499 -0.1594
 8773TIP3   OH247733   3.984   2.043  11.993  0.1378 -0.2168 -0.6613
 8773TIP3    H147734   3.894   2.015  12.008  0.0569  1.1344  1.7471
 8773TIP3    H247735   4.037   1.976  12.036  0.2323 -0.1311 -0.6450
 8774TIP3   OH247736   3.154   6.653  17.322 -0.1468  0.5808  0.2043
 8774TIP3    H147737   3.228   6.596  17.298  1.6211  2.6298  0.4804
 8774TIP3    H247738   3.101   6.658  17.242  0.9370  0.3978 -0.5537
 8775TIP3   OH247739   3.480   0.707   4.246 -0.7449 -0.0358 -0.4982
 8775TIP3    H147740   3.575   0.696   4.236 -0.4716  1.7734 -0.2424
 8775TIP3    H247741   3.466   0.708   4.341 -1.0216 -0.1978 -0.5354
 8776TIP3   OH247742   0.671   4.158  15.145  0.0101  0.0552 -0.7729
 8776TIP3    H147743   0.693   4.247  15.119  1.0521  0.3779  1.0443
 8776TIP3    H247744   0.745   4.105  15.116  1.7030  0.5823  2.2225
 8777TIP3   OH247745   3.417   2.313  11.767  0.0533  0.2541 -0.1093
 8777TIP3    H147746   3.420   2.255  11.843  1.5434  0.3840 -0.0425
 8777TIP3    H247747   3.458   2.394  11.796  0.6537  0.3050 -1.0376
 8778TIP3   OH247748   2.338   4.313   1.866 -0.8142  0.4827 -0.2627
 8778TIP3    H147749   2.326   4.224   1.833  0.6989  0.4447 -0.7596
 8778TIP3    H247750   2.406   4.351   1.810  0.6885  0.9568  1.7706
 8779TIP3   OH247751   3.529   1.762  15.000 -0.0901  0.1304 -0.3962
 8779TIP3    H147752   3.595   1.827  15.024  0.1666 -0.9538  2.1809
 8779TIP3    H247753   3.448   1.812  14.989  0.2792  1.0064  0.6928
 8780TIP3   OH247754   2.605   2.097  13.290  0.3171 -0.2140  0.2268
 8780TIP3    H147755   2.534   2.036  13.310  1.2115 -1.5357 -0.3970
 8780TIP3    H247756   2.603   2.161  13.361 -0.7556 -0.9044  0.8503
 8781TIP3   OH247757   4.154   0.842  15.403  0.2538  0.6792  0.2939
 8781TIP3    H147758   4.098   0.896  15.347  0.3688  0.3557 -0.1361
 8781TIP3    H247759   4.127   0.752  15.385  0.8468  0.5285  0.1627
 8782TIP3   OH247760   0.237   1.337   5.681  0.6279  0.0768  0.3529
 8782TIP3    H147761   0.150   1.366   5.653 -0.1387 -0.4337  2.0392
 8782TIP3    H247762   0.277   1.302   5.602  0.2492  2.4782 -0.9720
 8783TIP3   OH247763   4.741   1.778  11.373  0.2019  0.1897  0.6379
 8783TIP3    H147764   4.647   1.765  11.369  0.4210 -2.1099  1.1586
 8783TIP3    H247765   4.758   1.855  11.319 -1.8785  0.1844 -0.0858
 8784TIP3   OH247766   1.149   4.862  13.796  0.3010 -0.0857  0.0157
 8784TIP3    H147767   1.063   4.870  13.756  0.3934  0.1486 -0.1368
 8784TIP3    H247768   1.145   4.914  13.876  0.0779 -0.6520  0.3784
 8785TIP3   OH247769   2.642   3.480  15.898  0.6926 -0.1704 -0.0518
 8785TIP3    H147770   2.571   3.544  15.903  1.3140  0.4722  0.8393
 8785TIP3    H247771   2.623   3.430  15.819 -0.7994 -0.0740  0.2046
 8786TIP3   OH247772   3.917   2.616  16.950 -0.2122  0.2854 -0.0424
 8786TIP3    H147773   4.011   2.617  16.969  0.0214 -1.6051 -0.8934
 8786TIP3    H247774   3.901   2.699  16.905  1.1835  0.3896 -0.4081
 8787TIP3   OH247775   0.649   0.187  13.527 -0.3637 -0.0149 -0.3901
 8787TIP3    H147776   0.619   0.252  13.464 -0.3687 -1.1161 -1.5713
 8787TIP3    H247777   0.737   0.165  13.499 -0.1431 -0.1108  0.3443
 8788TIP3   OH247778   6.098   4.779  11.811  0.0731 -0.0473 -0.6457
 8788TIP3    H147779   6.128   4.735  11.890 -3.4776 -1.6673  0.0107
 8788TIP3    H247780   6.145   4.863  11.811  0.9594 -0.3935  2.6205
 8789TIP3   OH247781   2.699   2.766  13.496 -0.3357  0.1282 -0.3142
 8789TIP3    H147782   2.699   2.743  13.403  0.4290  1.1160 -0.5664
 8789TIP3    H247783   2.679   2.860  13.497 -2.8620 -0.3393  0.6608
 8790TIP3   OH247784   4.950   3.465   5.350 -0.5452  1.0013 -1.0835
 8790TIP3    H147785   5.043   3.441   5.358 -0.4263  1.9067  4.4759
 8790TIP3    H247786   4.952   3.556   5.320  0.6111  1.5408  0.4482
 8791TIP3   OH247787   2.509   4.069   5.449 -0.0597  0.6476  0.0678
 8791TIP3    H147788   2.438   4.100   5.392  0.0464  1.6208  0.4511
 8791TIP3    H247789   2.494   4.114   5.532  1.6116  1.7226 -0.1740
 8792TIP3   OH247790   5.126   1.089  15.621  0.0231  0.2102 -0.1413
 8792TIP3    H147791   5.116   1.000  15.655  0.6864 -0.3494 -1.3476
 8792TIP3    H247792   5.092   1.145  15.691 -1.7476 -1.0456  0.0621
 8793TIP3   OH247793   5.525   3.933  13.739 -0.6624  0.0607 -0.0400
 8793TIP3    H147794   5.536   3.847  13.698 -1.0099  0.1570 -0.3410
 8793TIP3    H247795   5.551   3.995  13.671 -0.8743  0.2087  0.0145
 8794TIP3   OH247796   6.752   6.560   3.791 -1.1199 -0.2715 -0.2172
 8794TIP3    H147797   6.713   6.640   3.825 -2.5959 -1.4322  0.9773
 8794TIP3    H247798   6.819   6.589   3.730 -1.6929  1.8528  0.1130
 8795TIP3   OH247799   4.151   3.676   2.957  0.5874 -0.3889 -0.4491
 8795TIP3    H147800   4.061   3.699   2.933  0.3930  0.2926  0.8473
 8795TIP3    H247801   4.150   3.672   3.052  2.0727  0.2142 -0.3872
 8796TIP3   OH247802   0.552   5.045   6.601  0.0757  0.0859  0.5956
 8796TIP3    H147803   0.624   5.108   6.594  0.4873 -0.4084  0.3793
 8796TIP3    H247804   0.580   4.985   6.670  0.6200 -1.0776 -0.6004
 8797TIP3   OH247805   5.127   5.867  12.604  0.1011  0.3741  0.3379
 8797TIP3    H147806   5.133   5.851  12.698 -1.2839 -1.2194  0.2119
 8797TIP3    H247807   5.183   5.800  12.564  2.0176  2.0635  0.0140
 8798TIP3   OH247808   0.448   0.671  16.267 -0.6163 -0.2728  0.1719
 8798TIP3    H147809   0.536   0.637  16.256 -1.3430 -2.3199  0.3107
 8798TIP3    H247810   0.402   0.646  16.187 -0.1650  4.2500 -1.8298
 8799TIP3   OH247811   5.070   4.140  12.630 -0.0339  0.1921  0.4656
 8799TIP3    H147812   5.089   4.047  12.625 -1.3078 -0.1277  1.0749
 8799TIP3    H247813   5.084   4.173  12.541 -1.0745 -0.8869 -0.1128
 8800TIP3   OH247814   5.442   2.367   5.168  0.2739  0.4339  0.6876
 8800TIP3    H147815   5.374   2.402   5.226  0.4709 -0.0812  1.2380
 8800TIP3    H247816   5.468   2.285   5.209 -1.8140 -1.6298 -1.7405
 8801TIP3   OH247817   0.886   3.275   0.037  0.7146  0.0877 -0.0940
 8801TIP3    H147818   0.908   3.237   0.122 -1.0113 -0.1116  0.2888
 8801TIP3    H247819   0.935   3.358   0.035  0.4137  0.3204  1.2905
 8802TIP3   OH247820   2.935   5.183   2.829 -0.5130 -0.2142  1.0804
 8802TIP3    H147821   2.877   5.148   2.761 -0.2334 -0.1869  0.8251
 8802TIP3    H247822   3.012   5.214   2.781  0.3203 -1.4953  1.5449
 8803TIP3   OH247823   3.182   0.087  16.548 -0.3332  0.0156 -0.7037
 8803TIP3    H147824   3.182   0.051  16.637  0.2218 -0.4461 -0.8850
 8803TIP3    H247825   3.138   0.020  16.495  1.0975 -0.6288 -1.1222
 8804TIP3   OH247826   5.637   5.576  13.934 -0.1652 -0.2460 -0.5290
 8804TIP3    H147827   5.702   5.645  13.921 -1.1977  1.0580  0.9080
 8804TIP3    H247828   5.625   5.537  13.847  0.4975  1.3406 -1.3585
 8805TIP3   OH247829   4.508   0.385  11.977 -0.6659 -0.3105  0.0063
 8805TIP3    H147830   4.559   0.303  11.977  1.3297  0.8522 -0.9174
 8805TIP3    H247831   4.490   0.402  12.070  2.8075  0.4216  0.6989
 8806TIP3   OH247832   0.230   3.029   1.121  0.5629 -0.0678 -0.1824
 8806TIP3    H147833   0.227   3.003   1.029 -0.5032  1.7392 -0.7257
 8806TIP3    H247834   0.140   3.059   1.139  0.8038 -0.2439  1.3985
 8807TIP3   OH247835   3.686   4.690  11.921  0.5856  0.0860  0.1095
 8807TIP3    H147836   3.698   4.692  12.016 -0.8494  0.3597  0.3059
 8807TIP3    H247837   3.701   4.599  11.897 -0.3030 -0.2587  0.7983
 8808TIP3   OH247838   5.570   0.078   3.377 -0.1052  0.5051 -0.0921
 8808TIP3    H147839   5.534   0.021   3.310  0.0322 -1.4987  1.4525
 8808TIP3    H247840   5.496   0.130   3.407 -0.9958 -1.1166  0.6394
 8809TIP3   OH247841   2.525   4.558  12.862 -0.6076  0.0444 -0.0044
 8809TIP3    H147842   2.603   4.552  12.916 -0.6224 -0.3090 -0.0189
 8809TIP3    H247843   2.542   4.500  12.788  0.0775  1.7285 -1.2284
 8810TIP3   OH247844   1.255   2.074  14.678  0.3553 -0.5123 -0.3022
 8810TIP3    H147845   1.246   1.989  14.721  2.6449 -0.4857  0.3759
 8810TIP3    H247846   1.296   2.055  14.594 -0.3955 -0.1762 -0.7594
 8811TIP3   OH247847   0.389   4.790  13.265  0.0717  0.4720 -0.4941
 8811TIP3    H147848   0.395   4.771  13.359 -1.1217  1.1709 -0.2520
 8811TIP3    H247849   0.454   4.859  13.250  0.5452  0.0783 -0.2656
 8812TIP3   OH247850   3.388   0.334   4.579 -0.2119 -0.2368  0.2444
 8812TIP3    H147851   3.473   0.359   4.614 -0.6104  1.2257  0.2666
 8812TIP3    H247852   3.338   0.304   4.655  0.9089 -3.1404 -0.0702
 8813TIP3   OH247853   1.151   6.643  13.399  0.2850 -0.0893  0.3783
 8813TIP3    H147854   1.134   6.592  13.477 -0.2442 -1.6713 -0.7157
 8813TIP3    H247855   1.228   6.603  13.359 -0.7438 -0.7740 -1.0396
 8814TIP3   OH247856   3.700   4.945   2.769 -0.2854 -0.5798 -0.6691
 8814TIP3    H147857   3.630   4.966   2.830 -0.2870 -1.5426 -0.3145
 8814TIP3    H247858   3.697   5.014   2.703 -1.1835 -0.2936 -0.3374
 8815TIP3   OH247859   3.812   4.077   4.604 -0.6447 -0.0094  1.1228
 8815TIP3    H147860   3.726   4.117   4.618 -0.5098  0.0313  1.8599
 8815TIP3    H247861   3.798   4.016   4.531 -1.0593  0.7134  0.5776
 8816TIP3   OH247862   6.103   4.749   6.210  0.2554 -0.6693  0.1781
 8816TIP3    H147863   6.194   4.779   6.200 -0.5893  1.5060 -1.9916
 8816TIP3    H247864   6.101   4.707   6.296  3.4855 -1.5165 -0.0331
 8817TIP3   OH247865   5.885   0.916  14.486  0.1185  0.2181  0.1084
 8817TIP3    H147866   5.916   1.001  14.517 -0.3990  0.7109 -0.6883
 8817TIP3    H247867   5.964   0.870  14.458  0.2653  1.0497 -0.9212
 8818TIP3   OH247868   5.705   6.697  16.376 -0.6705 -0.1383  0.5022
 8818TIP3    H147869   5.697   6.644  16.455 -1.7990 -1.4227 -0.4269
 8818TIP3    H247870   5.638   6.663  16.317  1.9916 -1.2631 -2.1751
 8819TIP3   OH247871   5.931   5.809  16.847 -0.0178 -0.0849  0.2557
 8819TIP3    H147872   6.004   5.808  16.785 -0.3926  1.2150 -0.2241
 8819TIP3    H247873   5.854   5.788  16.794 -0.5324  2.2713 -0.0231
 8820TIP3   OH247874   3.916   2.733  14.748  0.2384  0.3480  0.5736
 8820TIP3    H147875   4.002   2.714  14.788  0.1053  1.1794  1.2841
 8820TIP3    H247876   3.934   2.802  14.685  0.1791  0.1145  0.2973
 8821TIP3   OH247877   0.457   4.734   1.981 -0.0027  0.0165  0.5918
 8821TIP3    H147878   0.364   4.741   1.962  0.1359 -1.1183 -0.6065
 8821TIP3    H247879   0.498   4.721   1.896  1.1548 -0.4693  1.2084
 8822TIP3   OH247880   5.429   1.079  14.522 -0.6238  0.1021  0.1351
 8822TIP3    H147881   5.462   0.995  14.491 -0.7711  0.0774  0.0440
 8822TIP3    H247882   5.448   1.140  14.451  0.0786  0.2864  0.4667
 8823TIP3   OH247883   0.748   6.735  15.081 -0.1170  0.1368 -0.1796
 8823TIP3    H147884   0.820   6.791  15.052 -0.7069  1.2475  0.4645
 8823TIP3    H247885   0.703   6.711  15.000 -0.1126  0.9532 -0.4347
 8824TIP3   OH247886   4.275   5.379   2.607  0.0030 -0.2976 -0.6366
 8824TIP3    H147887   4.216   5.387   2.532  1.8599  0.0852 -2.1437
 8824TIP3    H247888   4.341   5.447   2.592  0.3932 -0.1599  1.4109
 8825TIP3   OH247889   3.542   5.063  11.686  0.1278  0.3723 -0.2068
 8825TIP3    H147890   3.608   5.094  11.624  0.4681 -0.7137 -0.3990
 8825TIP3    H247891   3.587   4.998  11.739 -1.1668 -1.6117 -1.4115
 8826TIP3   OH247892   3.974   4.348  11.581  0.4550 -0.2806  0.1763
 8826TIP3    H147893   4.014   4.340  11.668  0.6934  2.3800  0.4101
 8826TIP3    H247894   3.880   4.352  11.599  0.5364  1.0663  0.4648
 8827TIP3   OH247895   1.557   3.446   2.575 -0.1442  0.5295 -0.1351
 8827TIP3    H147896   1.580   3.539   2.578  0.7690  0.3043  1.0869
 8827TIP3    H247897   1.480   3.439   2.631 -1.1693  0.7695 -1.4851
 8828TIP3   OH247898   6.305   5.381  10.790  0.6870  0.4068 -0.4784
 8828TIP3    H147899   6.340   5.320  10.724 -1.1684 -1.4901  0.1649
 8828TIP3    H247900   6.376   5.442  10.806  1.9239 -0.3035 -2.7396
 8829TIP3   OH247901   3.404   5.306  13.556 -0.5738  0.2188  0.1416
 8829TIP3    H147902   3.358   5.262  13.628 -0.7268 -0.3591 -0.3053
 8829TIP3    H247903   3.337   5.320  13.490  0.3278 -3.0218 -1.6604
 8830TIP3   OH247904   4.609   3.164   3.871 -0.0659  0.0604  0.2942
 8830TIP3    H147905   4.607   3.139   3.963  0.5366  0.4689  0.4215
 8830TIP3    H247906   4.702   3.176   3.851 -0.2170  0.3122 -0.2731
 8831TIP3   OH247907   2.889   2.355  16.475  0.2205  0.3903 -0.1709
 8831TIP3    H147908   2.851   2.422  16.532  1.4612  1.2387 -0.2984
 8831TIP3    H247909   2.972   2.333  16.517  0.1311 -0.5809 -0.4947
 8832TIP3   OH247910   5.370   6.129   5.947  0.2089  0.4953 -0.5208
 8832TIP3    H147911   5.295   6.152   6.003  1.5478  1.8886  0.7779
 8832TIP3    H247912   5.444   6.121   6.007  1.4272  0.6365 -1.9465
 8833TIP3   OH247913   0.609   5.377   6.152  0.4630  0.3120  0.1212
 8833TIP3    H147914   0.658   5.349   6.075 -0.2923  0.0679 -0.2791
 8833TIP3    H247915   0.530   5.418   6.117  0.2790  0.5129  0.7582
 8834TIP3   OH247916   5.552   0.867  11.167 -0.1954 -0.0535  0.6486
 8834TIP3    H147917   5.619   0.884  11.102  0.1333  1.5480  1.3637
 8834TIP3    H247918   5.469   0.878  11.120 -0.0044 -1.2432 -0.0327
 8835TIP3   OH247919   0.122   0.062  10.616  0.2545 -0.0203  0.3109
 8835TIP3    H147920   0.210   0.097  10.610 -0.0218  0.8384  1.1233
 8835TIP3    H247921   0.078   0.092  10.537  0.5051  0.0810  0.2106
 8836TIP3   OH247922   1.783   5.056   3.568 -0.4956 -0.3470 -0.2603
 8836TIP3    H147923   1.822   4.981   3.613 -1.3196 -0.0561  0.9894
 8836TIP3    H247924   1.730   5.100   3.635 -2.8381 -0.6262 -1.7948
 8837TIP3   OH247925   6.474   0.118  14.969  0.2266 -0.3157 -0.0926
 8837TIP3    H147926   6.430   0.090  14.889 -1.5829  2.1580 -0.0804
 8837TIP3    H247927   6.539   0.182  14.939 -2.5188  2.9862  0.4643
 8838TIP3   OH247928   0.108   0.391  10.454 -0.0541 -0.4934 -0.4223
 8838TIP3    H147929   0.113   0.321  10.389  0.4753  0.3592 -1.3343
 8838TIP3    H247930   0.186   0.378  10.509  1.2655  0.6200 -1.9300
 8839TIP3   OH247931   4.819   5.160   5.208 -0.0018  0.9096 -0.1315
 8839TIP3    H147932   4.837   5.084   5.264 -0.5906  0.4798 -0.5229
 8839TIP3    H247933   4.742   5.201   5.246  0.1263  1.1318 -0.1084
 8840TIP3   OH247934   5.586   5.620   5.275 -0.1341  0.3629 -0.0277
 8840TIP3    H147935   5.535   5.619   5.194 -0.8734 -0.6402  0.4226
 8840TIP3    H247936   5.615   5.711   5.284 -0.2393  0.5361 -1.2853
 8841TIP3   OH247937   3.194   0.117   6.502  0.2631 -0.3992  0.1407
 8841TIP3    H147938   3.105   0.129   6.469  0.8742  2.7160 -0.7196
 8841TIP3    H247939   3.198   0.173   6.579  1.3130 -0.9522  0.4966
 8842TIP3   OH247940   4.230   0.756   3.521 -0.1767  0.1816  0.0038
 8842TIP3    H147941   4.287   0.792   3.453 -1.0328  0.2641 -0.6885
 8842TIP3    H247942   4.271   0.782   3.603 -1.7945  4.6293 -0.3360
 8843TIP3   OH247943   5.880   3.533  17.085  0.2980 -0.3851 -0.4788
 8843TIP3    H147944   5.882   3.459  17.145 -1.9479 -0.3411 -0.2768
 8843TIP3    H247945   5.919   3.499  17.004 -1.3525 -2.0756 -0.6375
 8844TIP3   OH247946   5.817   3.059   3.496 -1.0611  0.0011  0.2345
 8844TIP3    H147947   5.802   3.092   3.584 -0.9715 -1.1298  0.6989
 8844TIP3    H247948   5.751   2.990   3.485  1.5726 -2.8715  1.1026
 8845TIP3   OH247949   3.757   6.254  16.810  0.3086 -0.2547 -0.4754
 8845TIP3    H147950   3.672   6.270  16.769  0.2474  0.1870 -0.1822
 8845TIP3    H247951   3.803   6.338  16.805  1.0757 -0.7091 -1.4079
 8846TIP3   OH247952   2.423   2.284   0.599 -0.2929  0.2841  0.1023
 8846TIP3    H147953   2.365   2.349   0.640  0.2254  0.3824  0.6826
 8846TIP3    H247954   2.469   2.333   0.531 -0.7700  0.2394 -0.2645
 8847TIP3   OH247955   4.144   0.969  11.710 -0.1085 -0.2114 -0.3641
 8847TIP3    H147956   4.116   0.899  11.769 -0.0468 -2.0521 -2.4212
 8847TIP3    H247957   4.206   1.020  11.762 -0.4229 -1.4375  1.3171
 8848TIP3   OH247958   4.143   1.142   3.658  0.2760 -0.0663 -0.2281
 8848TIP3    H147959   4.095   1.216   3.696 -2.2202 -1.7646  0.1858
 8848TIP3    H247960   4.167   1.088   3.733  2.4739  0.4695 -0.4873
 8849TIP3   OH247961   4.531   2.996   3.647  0.5412  0.3429 -0.6349
 8849TIP3    H147962   4.451   3.030   3.606  1.1352  1.7935 -0.6223
 8849TIP3    H247963   4.545   3.052   3.723  0.2157 -1.4615  0.8160
 8850TIP3   OH247964   5.978   4.955   1.847  0.5834 -0.1878 -0.2760
 8850TIP3    H147965   5.971   4.873   1.897 -1.1622  0.5707  0.7875
 8850TIP3    H247966   5.991   5.023   1.914 -2.3956  0.9233 -0.6816
 8851TIP3   OH247967   2.010   0.382  10.860  0.2954  0.2793  0.1048
 8851TIP3    H147968   2.009   0.364  10.954 -2.7721  1.6940  0.4583
 8851TIP3    H247969   2.080   0.447  10.850  0.1498  0.7058  1.5549
 8852TIP3   OH247970   5.105   2.260   3.140  0.7597  0.7706  0.4207
 8852TIP3    H147971   5.070   2.311   3.214  0.7598  1.5641 -0.1175
 8852TIP3    H247972   5.193   2.235   3.169  0.3332  0.0715  1.1605
 8853TIP3   OH247973   1.498   4.439   1.028 -0.6243 -0.6274  0.0857
 8853TIP3    H147974   1.470   4.441   1.120 -0.1483 -1.6985  0.2688
 8853TIP3    H247975   1.498   4.531   1.002 -2.4768 -0.4242  0.6160
 8854TIP3   OH247976   4.255   4.064   3.011  0.0429  0.3730  0.3211
 8854TIP3    H147977   4.287   3.993   2.955  0.4166  0.8961 -0.1388
 8854TIP3    H247978   4.305   4.140   2.984 -0.5353  0.8737  0.6327
 8855TIP3   OH247979   5.732   4.629   4.831  0.3592  0.2113  0.1799
 8855TIP3    H147980   5.714   4.537   4.813 -0.3832  0.4671 -0.4823
 8855TIP3    H247981   5.663   4.656   4.892  1.1778  0.0770  1.1744
 8856TIP3   OH247982   5.007   6.073  16.803  0.3512 -0.1039  0.3517
 8856TIP3    H147983   4.959   5.990  16.804 -0.2587  0.1887 -1.5236
 8856TIP3    H247984   5.098   6.048  16.790  0.1419 -0.4819 -0.4213
 8857TIP3   OH247985   0.800   3.021  17.021 -0.0198  0.2105  0.5075
 8857TIP3    H147986   0.815   3.099  17.074  1.1101  1.5619 -1.6435
 8857TIP3    H247987   0.729   3.046  16.962  0.3724 -0.3806 -0.2233
 8858TIP3   OH247988   1.361   5.687  12.083 -0.1007 -0.1594  0.1219
 8858TIP3    H147989   1.452   5.696  12.054  0.0795  2.2194  1.1370
 8858TIP3    H247990   1.368   5.665  12.176 -0.3342  3.6101  1.2214
 8859TIP3   OH247991   1.267   5.422  15.549  0.1554  0.0620 -0.5534
 8859TIP3    H147992   1.320   5.346  15.524  0.7877 -0.2222  1.4087
 8859TIP3    H247993   1.316   5.497  15.517  2.2153 -0.1562  1.7395
 8860TIP3   OH247994   2.013   0.801  16.288 -0.2523  0.3554  0.0284
 8860TIP3    H147995   2.066   0.798  16.368 -0.9355 -3.7702  0.5573
 8860TIP3    H247996   1.938   0.856  16.311  0.2471  0.3742  1.7298
 8861TIP3   OH247997   5.669   6.697   1.454 -0.5812  0.3146 -0.1167
 8861TIP3    H147998   5.685   6.791   1.448  1.2917 -0.0436 -2.1123
 8861TIP3    H247999   5.757   6.658   1.460 -1.1743 -1.3751 -1.4626
 8862TIP3   OH248000   4.106   4.304   4.446 -0.0037  0.1632  0.7015
 8862TIP3    H148001   4.061   4.349   4.517  2.3451  0.8404  1.8606
 8862TIP3    H248002   4.198   4.330   4.455  0.7399 -1.5000 -1.2329
 8863TIP3   OH248003   3.442   3.463   0.422  0.2006 -0.3320 -0.3689
 8863TIP3    H148004   3.388   3.498   0.350 -1.2901  1.6185  1.5533
 8863TIP3    H248005   3.522   3.516   0.419  0.0937 -0.1765 -0.5254
 8864TIP3   OH248006   5.867   1.990  11.385  0.5646  0.0513  0.1537
 8864TIP3    H148007   5.927   2.057  11.350 -0.3300  0.3121 -0.9462
 8864TIP3    H248008   5.893   1.909  11.341 -0.2835  0.2948 -0.8403
 8865TIP3   OH248009   1.941   5.112   0.158 -0.4241  0.1603  0.9818
 8865TIP3    H148010   1.886   5.036   0.177 -1.4856  0.7534  0.3657
 8865TIP3    H248011   1.906   5.181   0.214  0.2347  0.3349  1.1901
 8866TIP3   OH248012   1.591   2.543   3.690  0.1770  0.4971  0.4110
 8866TIP3    H148013   1.586   2.571   3.598 -1.1187  0.1857  0.3587
 8866TIP3    H248014   1.576   2.623   3.740 -0.3922  0.4609  0.3128
 8867TIP3   OH248015   4.434   1.013   0.136  0.0752  0.1564  0.1771
 8867TIP3    H148016   4.476   0.997   0.221  0.5277 -1.0856 -0.2526
 8867TIP3    H248017   4.340   1.011   0.155  0.1780  0.2522  0.7037
 8868TIP3   OH248018   2.120   0.734  14.154  0.2077 -0.1565  0.2753
 8868TIP3    H148019   2.213   0.724  14.175  0.3449  0.5166  0.0079
 8868TIP3    H248020   2.075   0.700  14.231  0.6753  4.0092  2.6917
 8869TIP3   OH248021   0.697   3.569  17.245  0.1168  0.0354  0.0311
 8869TIP3    H148022   0.782   3.539  17.214 -1.2754 -2.0180 -2.0857
 8869TIP3    H248023   0.716   3.653  17.287  2.9702  0.3974 -1.6813
 8870TIP3   OH248024   5.285   3.468   4.098  0.7496  0.0113 -0.5720
 8870TIP3    H148025   5.288   3.469   4.194  2.1119  0.7874 -0.5933
 8870TIP3    H248026   5.342   3.541   4.072  1.1695 -0.7955 -1.9846
 8871TIP3   OH248027   6.160   0.141   4.438  0.3236  0.2960  0.5412
 8871TIP3    H148028   6.188   0.053   4.464 -2.1079 -1.2089 -1.4445
 8871TIP3    H248029   6.071   0.149   4.472  0.1656  1.6146 -0.1170
 8872TIP3   OH248030   1.912   2.551  12.084 -0.0245 -0.6510 -0.1023
 8872TIP3    H148031   1.993   2.556  12.135  0.4725 -0.4805 -0.8942
 8872TIP3    H248032   1.857   2.489  12.132  1.1800 -1.9842 -0.3925
 8873TIP3   OH248033   4.108   0.496   0.973 -0.6129  0.6485 -0.4486
 8873TIP3    H148034   4.110   0.409   1.012 -2.7109  0.0839 -1.4524
 8873TIP3    H248035   4.070   0.552   1.042 -0.1222  0.5970 -0.1307
 8874TIP3   OH248036   4.238   2.759  16.624  0.0973 -0.1789  0.1133
 8874TIP3    H148037   4.190   2.830  16.666  1.5223  0.0687  1.3977
 8874TIP3    H248038   4.267   2.703  16.696  1.5482 -0.4190 -0.6083
 8875TIP3   OH248039   3.123   2.518  16.955 -0.4499  0.1842  0.4071
 8875TIP3    H148040   3.216   2.498  16.967 -0.9780 -2.6239  0.6756
 8875TIP3    H248041   3.079   2.464  17.022 -2.3336  0.3467 -0.6388
 8876TIP3   OH248042   2.938   6.443  17.298 -0.0071  0.0105  0.1396
 8876TIP3    H148043   2.994   6.472  17.369  0.3159  0.9930 -0.4865
 8876TIP3    H248044   2.873   6.512  17.288  0.3290  0.2058 -0.9126
 8877TIP3   OH248045   1.615   2.271  11.669  0.6821  0.3891  0.4142
 8877TIP3    H148046   1.610   2.183  11.633  1.5209  0.1827  0.7811
 8877TIP3    H248047   1.675   2.317  11.610  0.9199  0.4649  0.7163
 8878TIP3   OH248048   2.039   1.274  11.836 -0.9554 -0.0530  0.1393
 8878TIP3    H148049   2.056   1.206  11.771 -2.6711  1.3996 -1.9984
 8878TIP3    H248050   1.948   1.300  11.820 -0.4139  2.6425  0.9108
 8879TIP3   OH248051   6.406   3.113   4.342  0.7911  0.6941 -0.0690
 8879TIP3    H148052   6.408   3.140   4.434 -0.0648 -0.3562  0.2674
 8879TIP3    H248053   6.321   3.071   4.331  0.7592  1.0682 -1.4280
 8880TIP3   OH248054   1.985   0.508   3.542 -0.2512  0.1299 -0.1112
 8880TIP3    H148055   1.955   0.545   3.625  1.4417 -1.8454  1.4944
 8880TIP3    H248056   1.904   0.492   3.492 -1.4498 -0.0736  1.7991
 8881TIP3   OH248057   0.866   5.618  11.656 -0.1257 -0.7316 -0.1808
 8881TIP3    H148058   0.784   5.665  11.668  0.1688 -0.5326  1.3213
 8881TIP3    H248059   0.841   5.537  11.612 -1.5789 -1.8660  2.4934
 8882TIP3   OH248060   2.261   6.706   3.355 -0.0155 -0.2939  0.1329
 8882TIP3    H148061   2.302   6.693   3.269 -0.3822  1.1794 -0.2939
 8882TIP3    H248062   2.200   6.632   3.363  0.4525 -0.7779 -0.6099
 8883TIP3   OH248063   2.107   4.363  11.859  0.1254  0.7788 -0.0858
 8883TIP3    H148064   2.063   4.294  11.811 -0.6072  0.6701  0.7050
 8883TIP3    H248065   2.072   4.444  11.822 -0.6630  0.6931  0.4459
 8884TIP3   OH248066   5.358   1.301   3.737 -1.0356  0.2928  0.2496
 8884TIP3    H148067   5.270   1.314   3.772 -1.1817 -1.3572  0.6143
 8884TIP3    H248068   5.346   1.237   3.666 -0.3588  1.4199 -0.9175
 8885TIP3   OH248069   5.241   2.026   4.262 -0.0177 -0.3320 -0.2252
 8885TIP3    H148070   5.146   2.030   4.264 -0.0261 -0.0146 -0.8581
 8885TIP3    H248071   5.261   1.933   4.274 -0.3505 -0.2378  1.1629
 8886TIP3   OH248072   4.123   0.018  12.478 -0.0466  0.1360 -0.0972
 8886TIP3    H148073   4.208   0.042  12.442  0.3902  1.1200  1.4999
 8886TIP3    H248074   4.144  -0.041  12.551 -0.7824 -0.3322 -0.2577
 8887TIP3   OH248075   2.799   1.287   5.609  0.6030  0.0334  1.0967
 8887TIP3    H148076   2.757   1.293   5.695  0.5932  2.0479  0.9980
 8887TIP3    H248077   2.882   1.244   5.626  1.1298  1.4630  2.3765
 8888TIP3   OH248078   4.071   2.356  14.655 -0.7181 -0.4797  0.2368
 8888TIP3    H148079   4.165   2.371  14.668 -0.6906  0.0449 -0.5073
 8888TIP3    H248080   4.059   2.263  14.673 -0.5015 -0.1024  2.7826
 8889TIP3   OH248081   2.809   3.086   1.589  0.9900  0.3175  0.4407
 8889TIP3    H148082   2.858   3.158   1.548  0.9447  0.2709  0.3049
 8889TIP3    H248083   2.837   3.008   1.540  0.9882  0.2528  0.5442
 8890TIP3   OH248084   1.544   0.608   4.271 -0.0350  0.5073 -0.7672
 8890TIP3    H148085   1.589   0.675   4.323 -0.3335  0.8049 -0.8910
 8890TIP3    H248086   1.452   0.618   4.293 -0.1446  0.5093 -1.2045
 8891TIP3   OH248087   4.053   4.975   4.603 -0.2929 -0.1162  0.1031
 8891TIP3    H148088   4.010   4.988   4.519 -0.7089 -1.3103  0.1179
 8891TIP3    H248089   4.088   4.886   4.599  1.6715  0.5912  0.3335
 8892TIP3   OH248090   2.302   4.592  12.668 -0.4341 -0.0352 -0.3784
 8892TIP3    H148091   2.252   4.528  12.618  0.9438 -1.1677 -0.3640
 8892TIP3    H248092   2.379   4.544  12.698  0.0329  1.3142  0.6694
 8893TIP3   OH248093   1.978   6.403  14.121  0.0257 -0.1819 -0.3623
 8893TIP3    H148094   1.994   6.390  14.214  1.0172  2.0472 -0.1394
 8893TIP3    H248095   2.037   6.475  14.097  0.2155 -1.0815 -2.8542
 8894TIP3   OH248096   1.839   2.263   0.531  0.1008  0.5392 -0.7119
 8894TIP3    H148097   1.790   2.345   0.545  1.4624  1.3241 -0.3880
 8894TIP3    H248098   1.835   2.250   0.436 -1.5430  0.0491 -0.6088
 8895TIP3   OH248099   0.894   0.622   6.015  0.2462  0.3901  0.0893
 8895TIP3    H148100   0.857   0.709   6.031 -0.7618 -0.2513  1.4666
 8895TIP3    H248101   0.985   0.639   5.992  0.3681  1.7707  1.4143
 8896TIP3   OH248102   2.403   0.657   5.888  0.7624  0.1329  0.1765
 8896TIP3    H148103   2.382   0.750   5.896 -0.2463  0.0221 -1.0449
 8896TIP3    H248104   2.358   0.615   5.962  1.2550  0.6092  0.7517
 8897TIP3   OH248105   4.312   4.995  11.569  0.1547  0.3697  0.0272
 8897TIP3    H148106   4.319   4.901  11.555 -1.3581  0.5233 -2.2502
 8897TIP3    H248107   4.357   5.010  11.652  0.1095 -2.3952  0.6489
 8898TIP3   OH248108   0.043   2.693  14.176 -0.6264 -0.2785 -0.1649
 8898TIP3    H148109   0.094   2.686  14.256 -0.5992 -1.3337 -0.2555
 8898TIP3    H248110  -0.014   2.768  14.190 -0.7497 -0.5608  0.9205
 8899TIP3   OH248111   1.367   0.905   6.337 -0.6232 -0.5884  0.1446
 8899TIP3    H148112   1.275   0.896   6.311 -0.3499 -2.7132 -0.2586
 8899TIP3    H248113   1.410   0.942   6.259 -1.0924  0.3753  0.3207
 8900TIP3   OH248114   1.447   1.032  16.458 -0.1891 -0.0256 -0.5749
 8900TIP3    H148115   1.352   1.044  16.454 -0.3167  0.9996  2.8000
 8900TIP3    H248116   1.479   1.069  16.376 -2.5333  1.6499 -0.8383
 8901TIP3   OH248117   2.779   5.571  12.775 -0.1729 -0.0869 -0.3971
 8901TIP3    H148118   2.811   5.491  12.815  0.2378  0.5499  0.6000
 8901TIP3    H248119   2.693   5.549  12.740 -0.9512 -0.4729  1.6290
 8902TIP3   OH248120   0.555   2.425   1.010 -0.3642  0.3892 -0.2651
 8902TIP3    H148121   0.597   2.339   1.018 -2.0442 -0.3699  1.0119
 8902TIP3    H248122   0.628   2.487   1.013  0.8061 -0.9429 -0.1091
 8903TIP3   OH248123   0.881   6.567   4.114 -0.1878 -0.1552  0.3797
 8903TIP3    H148124   0.941   6.504   4.154 -1.1605  0.6517  3.3235
 8903TIP3    H248125   0.825   6.514   4.057  1.5474 -1.2980 -0.3544
 8904TIP3   OH248126   0.273   4.025   5.676  0.4917 -0.2016 -0.0573
 8904TIP3    H148127   0.273   3.948   5.619  1.4606 -0.4080  0.2046
 8904TIP3    H248128   0.232   3.995   5.757  0.1400 -0.2187 -0.2398
 8905TIP3   OH248129   0.681   2.362   5.509 -0.2653  0.2711  0.1941
 8905TIP3    H148130   0.776   2.350   5.502 -0.0935  0.1996  2.0602
 8905TIP3    H248131   0.670   2.454   5.535 -0.7296  0.3883 -0.4162
 8906TIP3   OH248132   2.462   1.082   0.545  0.0838 -0.0874  0.2982
 8906TIP3    H148133   2.440   1.175   0.546 -3.2538 -0.7444  0.3920
 8906TIP3    H248134   2.515   1.069   0.624 -0.4308  1.5511  0.9670
 8907TIP3   OH248135   3.551   6.365   1.571  0.0581  0.2934 -0.1075
 8907TIP3    H148136   3.636   6.385   1.612  0.0135  0.5688 -0.1474
 8907TIP3    H248137   3.494   6.344   1.644  0.0162  0.6486 -0.0340
 8908TIP3   OH248138   2.281   1.384  12.997 -0.0966  0.3297 -0.8057
 8908TIP3    H148139   2.338   1.453  12.962 -0.1594  0.4905 -0.5942
 8908TIP3    H248140   2.331   1.345  13.068 -0.6401  1.1366  0.0377
 8909TIP3   OH248141   1.632   6.276   5.370  0.7996 -0.3391  0.3535
 8909TIP3    H148142   1.679   6.231   5.300  0.9249  0.7398 -0.2722
 8909TIP3    H248143   1.694   6.340   5.404  0.2061  0.2629  0.3386
 8910TIP3   OH248144   2.637   1.014   6.700  0.0691 -0.1011 -0.2456
 8910TIP3    H148145   2.648   1.077   6.771 -0.6531  0.0195 -0.2330
 8910TIP3    H248146   2.602   1.065   6.627  0.3593 -0.3124 -0.5352
 8911TIP3   OH248147   1.131   1.982  15.489 -0.2137  0.2257 -0.5194
 8911TIP3    H148148   1.133   1.949  15.398  0.6328 -3.1452  0.5716
 8911TIP3    H248149   1.066   1.927  15.532  0.9373  0.3019  1.4117
 8912TIP3   OH248150   3.727   3.627  16.609  0.0172 -1.0435  0.5200
 8912TIP3    H148151   3.795   3.669  16.557 -0.7549  0.8682  0.9762
 8912TIP3    H248152   3.650   3.627  16.552  0.0196 -1.9041  0.5093
 8913TIP3   OH248153   6.008   6.607  15.205 -0.0703  0.4235  0.0087
 8913TIP3    H148154   5.981   6.567  15.287  1.8940 -1.5560 -0.2069
 8913TIP3    H248155   6.084   6.660  15.228  0.1172  0.3461 -0.4199
 8914TIP3   OH248156   0.033   1.422  11.499 -0.1000  0.3122 -0.3848
 8914TIP3    H148157   0.049   1.338  11.457 -0.4835 -0.7176  1.4314
 8914TIP3    H248158  -0.053   1.450  11.466 -0.2911 -0.3629 -0.4635
 8915TIP3   OH248159   1.648   0.941  14.894 -0.0573  0.3290 -0.0637
 8915TIP3    H148160   1.687   1.021  14.929  1.8582 -0.8651  0.6977
 8915TIP3    H248161   1.623   0.891  14.971  1.4006 -1.0120 -0.4237
 8916TIP3   OH248162   5.485   2.656   5.797  0.1872  0.1923  0.0995
 8916TIP3    H148163   5.531   2.714   5.858  1.1400 -0.0093 -0.4094
 8916TIP3    H248164   5.554   2.624   5.738 -0.6476  0.0785 -0.8363
 8917TIP3   OH248165   4.148   5.769  13.607 -0.1038  0.1390  0.2658
 8917TIP3    H148166   4.059   5.741  13.583 -0.1946  0.9250 -0.3571
 8917TIP3    H248167   4.156   5.857  13.570  0.5283  0.5430  1.3366
 8918TIP3   OH248168   1.146   1.078  11.240  0.5608  0.0282  0.5797
 8918TIP3    H148169   1.114   1.000  11.284  2.2507 -0.3034  1.3014
 8918TIP3    H248170   1.071   1.138  11.240 -0.4064 -1.1477  1.0633
 8919TIP3   OH248171   6.053   1.997  13.240  0.3892 -0.4853 -0.4085
 8919TIP3    H148172   6.089   1.952  13.164  0.6675 -1.7281  0.4256
 8919TIP3    H248173   6.125   2.053  13.271  0.4911 -0.4725 -0.6633
 8920TIP3   OH248174   6.231   0.000   2.364  0.1240  0.4277 -0.0029
 8920TIP3    H148175   6.238   0.079   2.418  0.9826 -0.0185  0.5528
 8920TIP3    H248176   6.139  -0.024   2.370  0.7756 -2.0964  4.9516
 8921TIP3   OH248177   1.559   3.669  14.393  0.0690  0.5138 -0.1594
 8921TIP3    H148178   1.521   3.601  14.337 -0.2196 -0.1061  0.7697
 8921TIP3    H248179   1.520   3.655  14.479  1.0687  0.9786  0.3964
 8922TIP3   OH248180   2.696   2.579   3.154 -0.3977 -0.7033 -0.1725
 8922TIP3    H148181   2.612   2.622   3.174  0.1285  0.4592 -0.3613
 8922TIP3    H248182   2.674   2.515   3.087 -0.9508  0.5439 -1.2461
 8923TIP3   OH248183   0.588   3.815  12.814  0.2607 -0.5515 -0.2424
 8923TIP3    H148184   0.578   3.807  12.908  1.2546 -0.7545 -0.1413
 8923TIP3    H248185   0.501   3.842  12.782  0.4474  1.7048  0.9703
 8924TIP3   OH248186   1.127   0.986   5.350  0.1050 -0.3632  0.1312
 8924TIP3    H148187   1.032   0.980   5.362 -0.0857  0.3042 -0.8690
 8924TIP3    H248188   1.151   1.070   5.388 -0.0096  0.2885 -1.1566
 8925TIP3   OH248189   5.676   0.844   5.857 -0.2031  0.2270 -0.2997
 8925TIP3    H148190   5.650   0.813   5.944  0.2028 -0.7139 -0.4978
 8925TIP3    H248191   5.765   0.811   5.846 -0.4266 -0.0721 -1.2619
 8926TIP3   OH248192   0.382   4.645   3.627  0.1275  1.0797 -0.4823
 8926TIP3    H148193   0.304   4.591   3.613 -1.0091  1.3235  3.5170
 8926TIP3    H248194   0.350   4.735   3.618  0.4727  1.1637 -0.8862
 8927TIP3   OH248195   4.357   2.743   2.561 -0.3064 -0.0278 -0.2401
 8927TIP3    H148196   4.387   2.805   2.627 -0.7788  1.4247 -1.3337
 8927TIP3    H248197   4.286   2.788   2.516  0.7253 -0.4692 -2.4848
 8928TIP3   OH248198   2.822   0.744   3.950  0.2143 -0.4684 -0.4869
 8928TIP3    H148199   2.877   0.795   4.009  0.2044 -1.9541  0.8654
 8928TIP3    H248200   2.837   0.783   3.864  2.0122  0.3027  0.1261
 8929TIP3   OH248201   3.251   2.250   5.079  0.5626 -0.3577 -0.2625
 8929TIP3    H148202   3.293   2.335   5.092  1.3783 -0.7882 -0.0129
 8929TIP3    H248203   3.185   2.267   5.011  1.4213  0.2587 -0.9832
 8930TIP3   OH248204   5.598   1.339  17.163 -0.2485  0.8708 -0.2417
 8930TIP3    H148205   5.682   1.292  17.163  0.3007  1.8102 -1.2455
 8930TIP3    H248206   5.605   1.398  17.238  1.0440  2.6676 -1.6702
 8931TIP3   OH248207   3.937   5.133  13.544 -0.3495  0.4356 -0.1146
 8931TIP3    H148208   3.906   5.044  13.561 -2.0192  1.1696  0.8722
 8931TIP3    H248209   3.858   5.184  13.529  0.5615  1.8162 -0.4548
 8932TIP3   OH248210   2.344   4.823  15.311  0.1390  0.0520 -0.3854
 8932TIP3    H148211   2.297   4.770  15.246  0.9849 -0.9137 -0.2319
 8932TIP3    H248212   2.275   4.863  15.364 -0.5786  1.0676 -2.0113
 8933TIP3   OH248213   1.111   3.957   2.640  0.1995 -0.2313  0.9555
 8933TIP3    H148214   1.146   3.898   2.574  0.6476  1.0681 -0.0070
 8933TIP3    H248215   1.154   4.041   2.623  0.5343  0.0862  3.0661
 8934TIP3   OH248216   5.203   4.279  16.751 -0.3188 -0.6937  0.1179
 8934TIP3    H148217   5.194   4.352  16.690 -0.8895 -1.0358 -0.2218
 8934TIP3    H248218   5.274   4.305  16.809 -1.0345  0.4892  0.5051
 8935TIP3   OH248219   4.678   4.086   5.051  0.0337 -0.2293 -0.4928
 8935TIP3    H148220   4.665   4.101   4.957 -0.7256 -1.2977 -0.5801
 8935TIP3    H248221   4.771   4.063   5.058  0.1220 -0.0392 -0.9705
 8936TIP3   OH248222   1.077   4.400   2.226  0.1937  0.0667  0.1906
 8936TIP3    H148223   1.098   4.456   2.300 -0.5856 -0.8903  1.1672
 8936TIP3    H248224   0.988   4.424   2.202 -0.0985 -0.6415  0.5332
 8937TIP3   OH248225   2.430   6.281  13.587 -0.2168  0.4764  0.5520
 8937TIP3    H148226   2.516   6.271  13.627 -0.7414 -1.2710  1.3467
 8937TIP3    H248227   2.428   6.214  13.519  0.3960  2.9428 -2.0740
 8938TIP3   OH248228   3.792   5.754   1.366  0.2962  0.0458  0.2686
 8938TIP3    H148229   3.782   5.829   1.307 -0.3308  2.2293  2.9491
 8938TIP3    H248230   3.702   5.732   1.392  0.6452  1.0611  2.5661
 8939TIP3   OH248231   2.846   4.102   5.229 -0.7706  0.1818  0.5609
 8939TIP3    H148232   2.774   4.131   5.172  0.1556  0.0677 -0.7123
 8939TIP3    H248233   2.888   4.032   5.180  0.4412  0.4989  1.1181
 8940TIP3   OH248234   4.446   0.623   5.748 -0.2812  0.5215  0.2686
 8940TIP3    H148235   4.478   0.544   5.706  1.5163  2.1191 -1.5975
 8940TIP3    H248236   4.500   0.633   5.826  1.6890  1.4955 -1.1565
 8941TIP3   OH248237   1.709   2.782  16.046 -0.1087  0.0062  0.0652
 8941TIP3    H148238   1.631   2.730  16.062  0.1416 -0.7478 -1.0354
 8941TIP3    H248239   1.701   2.812  15.955  1.1146 -0.5495 -0.2595
 8942TIP3   OH248240   6.632   4.931   1.501 -0.6060 -0.2354 -0.0885
 8942TIP3    H148241   6.687   4.982   1.442 -0.5168  1.6440  1.5035
 8942TIP3    H248242   6.550   4.980   1.507 -0.4206 -0.0481  1.6867
 8943TIP3   OH248243   4.001   4.892   3.074 -0.1412  0.1802 -0.1373
 8943TIP3    H148244   4.043   4.925   2.994 -0.9307  1.7868  0.0947
 8943TIP3    H248245   3.987   4.799   3.056  0.7455  0.2606 -1.4035
 8944TIP3   OH248246   3.345   3.653   6.162 -0.1454  0.0760  0.3537
 8944TIP3    H148247   3.390   3.577   6.127  0.1632  0.2014  0.4772
 8944TIP3    H248248   3.390   3.728   6.123 -0.0186  0.2087  0.7526
 8945TIP3   OH248249   1.197   0.550  11.136 -0.1569 -0.1745  0.6321
 8945TIP3    H148250   1.168   0.489  11.068  1.4821  0.7911 -1.0080
 8945TIP3    H248251   1.120   0.602  11.156 -0.2844  0.6941 -1.8036
 8946TIP3   OH248252   3.157   4.789  14.338 -0.2346  0.3591 -0.1303
 8946TIP3    H148253   3.097   4.857  14.308  0.1810 -0.3932 -2.9234
 8946TIP3    H248254   3.236   4.802  14.286  1.5349  0.3786  2.3957
 8947TIP3   OH248255   3.322   5.156   1.901  0.1960  0.4741 -0.3110
 8947TIP3    H148256   3.343   5.244   1.869 -0.4299  1.2117  1.2027
 8947TIP3    H248257   3.227   5.156   1.909  0.2482 -0.0936  0.3785
 8948TIP3   OH248258   1.409   0.303  11.072 -0.2042 -0.6564 -0.3728
 8948TIP3    H148259   1.416   0.224  11.019  1.4990 -0.9803  0.2757
 8948TIP3    H248260   1.426   0.273  11.161  0.7154  0.4796 -0.1511
 8949TIP3   OH248261   5.072   1.667   2.470  0.3095 -0.4660 -0.0407
 8949TIP3    H148262   5.139   1.607   2.502  1.1212  0.0574 -0.7172
 8949TIP3    H248263   5.064   1.734   2.538 -0.8924 -1.5121  0.9109
 8950TIP3   OH248264   2.922   0.387  12.107 -0.1042 -0.1086 -0.5344
 8950TIP3    H148265   2.901   0.402  12.199  0.1635 -0.9600 -0.3231
 8950TIP3    H248266   2.850   0.334  12.073 -0.1838  0.1700 -0.8025
 8951TIP3   OH248267   4.178   2.211  13.544 -0.4099  0.2699 -0.4978
 8951TIP3    H148268   4.103   2.167  13.583  0.2143  0.5535  1.0922
 8951TIP3    H248269   4.254   2.162  13.575  0.1633  1.0997 -0.5630
 8952TIP3   OH248270   1.620   6.333  11.332 -0.3499 -0.7455  0.1417
 8952TIP3    H148271   1.649   6.424  11.333 -1.1764 -0.4787  0.6963
 8952TIP3    H248272   1.682   6.288  11.274 -1.1810  0.5859 -1.9003
 8953TIP3   OH248273   6.701   1.016  16.701 -0.4386  0.3242 -0.2165
 8953TIP3    H148274   6.626   0.984  16.651 -0.2426  0.1528 -0.4009
 8953TIP3    H248275   6.748   0.937  16.728  0.8726  0.4599 -1.9203
 8954TIP3   OH248276   0.317   0.718  14.450 -0.1302  0.0597 -0.4120
 8954TIP3    H148277   0.254   0.661  14.494 -0.6491 -0.5688 -1.9186
 8954TIP3    H248278   0.281   0.806  14.458  0.0485  0.0360  0.8434
 8955TIP3   OH248279   1.054   4.051   2.923  0.0646 -0.0160 -0.1789
 8955TIP3    H148280   1.053   4.006   2.839 -0.5668  1.4378 -0.9785
 8955TIP3    H248281   1.032   3.983   2.987 -0.7296 -0.8767 -1.3280
 8956TIP3   OH248282   4.452   2.795  14.989  0.1365 -0.2754 -0.3816
 8956TIP3    H148283   4.393   2.722  15.006 -1.7349  0.9846 -1.1951
 8956TIP3    H248284   4.536   2.753  14.969 -1.0433 -2.2589 -1.5681
 8957TIP3   OH248285   0.056   2.972  11.550 -0.5547  0.4065 -0.1644
 8957TIP3    H148286   0.095   2.915  11.616 -0.1694  1.6125  0.6765
 8957TIP3    H248287   0.103   3.055  11.557 -1.6404  1.1148 -0.7921
 8958TIP3   OH248288   0.731   2.627   2.707 -0.1627  0.1452  0.2735
 8958TIP3    H148289   0.695   2.543   2.677  0.9471  0.4509 -2.1993
 8958TIP3    H248290   0.822   2.608   2.730  0.7149  0.9279 -2.2271
 8959TIP3   OH248291   5.185   1.348  14.495  0.1726 -0.0713 -0.2143
 8959TIP3    H148292   5.262   1.380  14.448  0.4908 -1.4082 -0.6503
 8959TIP3    H248293   5.201   1.369  14.586  1.2506 -0.6869 -0.2475
 8960TIP3   OH248294   4.155   1.220   4.207  0.3825 -0.0762  0.4536
 8960TIP3    H148295   4.199   1.158   4.264  0.3797 -1.1289 -0.6357
 8960TIP3    H248296   4.062   1.201   4.217  0.3130  0.5007  0.9361
 8961TIP3   OH248297   4.873   0.453  11.644  0.6610 -0.1697 -0.1223
 8961TIP3    H148298   4.938   0.523  11.634 -0.6055  0.9727 -0.5865
 8961TIP3    H248299   4.892   0.392  11.572  0.2021  1.0191 -1.2951
 8962TIP3   OH248300   2.979   4.793  13.120 -0.0523 -0.3638  0.0741
 8962TIP3    H148301   2.932   4.823  13.042 -0.3284  1.0421  0.7436
 8962TIP3    H248302   2.911   4.758  13.177 -0.2078  0.9145  0.7020
 8963TIP3   OH248303   3.720   3.281  11.618  0.3773 -0.2727  0.0169
 8963TIP3    H148304   3.653   3.330  11.665  1.3923  0.3849  0.8155
 8963TIP3    H248305   3.719   3.317  11.529 -1.1277 -1.1026 -0.3459
 8964TIP3   OH248306   3.838   4.511  13.173 -0.0300 -0.1070 -0.3082
 8964TIP3    H148307   3.889   4.580  13.216  0.7460 -2.2711  2.5141
 8964TIP3    H248308   3.902   4.449  13.141 -0.7724 -0.3251 -1.4248
 8965TIP3   OH248309   1.414   5.705  14.299 -0.0805 -0.0200 -0.0856
 8965TIP3    H148310   1.492   5.745  14.338 -0.5194  0.4449  0.3340
 8965TIP3    H248311   1.344   5.723  14.362 -0.2366 -1.7230  0.2744
 8966TIP3   OH248312   6.076   5.127   2.031 -0.5951 -0.1102 -0.0851
 8966TIP3    H148313   6.161   5.159   2.061 -0.6130  0.5670 -0.7480
 8966TIP3    H248314   6.034   5.093   2.111  0.5600 -1.0766  0.1425
 8967TIP3   OH248315   1.856   5.494   4.737  0.2380  0.1588 -0.6814
 8967TIP3    H148316   1.909   5.419   4.709  0.0304 -0.0140 -0.6207
 8967TIP3    H248317   1.835   5.476   4.828  0.7406  0.6220 -0.4766
 8968TIP3   OH248318   0.103   6.389  16.879  0.1849 -0.2988  0.4967
 8968TIP3    H148319   0.013   6.422  16.872 -0.4283 -1.4308  2.2582
 8968TIP3    H248320   0.157   6.467  16.873 -0.8819  0.3857 -0.8503
 8969TIP3   OH248321   3.601   2.785   2.451 -0.0994 -0.3201  0.3303
 8969TIP3    H148322   3.509   2.770   2.429  0.7016 -1.7431 -2.5828
 8969TIP3    H248323   3.618   2.731   2.528 -1.6559 -0.0742  0.8666
 8970TIP3   OH248324   2.325   2.596  13.882 -0.0392 -0.3881  0.1142
 8970TIP3    H148325   2.288   2.548  13.956  0.5338 -0.9400  0.0474
 8970TIP3    H248326   2.405   2.635  13.917 -0.5691  0.6567  0.2105
 8971TIP3   OH248327   3.115   2.556   5.903  0.6946 -0.1447 -0.4370
 8971TIP3    H148328   3.164   2.486   5.861 -0.7843 -1.3258 -0.2865
 8971TIP3    H248329   3.041   2.512   5.944 -0.3753  1.5287 -0.4719
 8972TIP3   OH248330   3.673   0.764   6.747 -0.0716 -0.1047 -0.0328
 8972TIP3    H148331   3.606   0.739   6.684  0.2921 -0.8350 -0.1397
 8972TIP3    H248332   3.645   0.850   6.779 -1.1012 -0.4441  0.0038
 8973TIP3   OH248333   2.177   4.993   1.759 -0.6631  0.1056  0.2805
 8973TIP3    H148334   2.232   5.035   1.693 -1.6171 -1.5414 -1.6732
 8973TIP3    H248335   2.229   4.920   1.791 -1.0925 -0.5329 -0.4446
 8974TIP3   OH248336   5.679   5.202  17.323  1.0580 -0.6933 -0.4852
 8974TIP3    H148337   5.591   5.228  17.298  1.3406 -0.5475 -1.3621
 8974TIP3    H248338   5.735   5.234  17.252  1.8698 -0.4423  0.2445
 8975TIP3   OH248339   6.695   4.303   3.084 -0.2762  0.0459  0.0907
 8975TIP3    H148340   6.782   4.298   3.124 -0.5338  0.0956  0.6688
 8975TIP3    H248341   6.702   4.250   3.005  0.5676  0.8770 -0.4040
 8976TIP3   OH248342   3.951   5.825   5.051 -0.1707 -0.6906 -0.7967
 8976TIP3    H148343   3.901   5.768   5.110  0.8512 -2.5243 -1.6137
 8976TIP3    H248344   3.894   5.901   5.037 -0.9987 -0.8404  1.4361
 8977TIP3   OH248345   4.078   3.325  15.707 -0.4629  0.2680  0.0577
 8977TIP3    H148346   4.085   3.395  15.642  1.1664  0.2837  0.2201
 8977TIP3    H248347   3.984   3.312  15.717 -0.8149  2.1958 -0.2338
 8978TIP3   OH248348   5.526   1.586   3.235  0.8315  0.0771  0.2493
 8978TIP3    H148349   5.449   1.630   3.198 -0.4895 -2.5540 -0.3596
 8978TIP3    H248350   5.508   1.582   3.329  0.7182  0.3183  0.2399
 8979TIP3   OH248351   0.038   5.148   5.516 -0.3381 -0.1989 -0.2844
 8979TIP3    H148352   0.041   5.125   5.609 -1.7083 -2.2704 -0.6959
 8979TIP3    H248353   0.059   5.242   5.515 -2.0315  0.3408  2.3079
 8980TIP3   OH248354   5.892   5.920  15.836 -0.4591  0.3900  0.1174
 8980TIP3    H148355   5.804   5.895  15.809 -0.6289  0.5768  0.4997
 8980TIP3    H248356   5.899   6.013  15.815  0.2783 -0.0083 -1.5898
 8981TIP3   OH248357   1.231   2.230   4.607 -0.0158  0.3105  0.0226
 8981TIP3    H148358   1.253   2.152   4.556 -0.5089 -0.0305  0.3205
 8981TIP3    H248359   1.191   2.290   4.544  1.5136  0.8453 -0.4752
 8982TIP3   OH248360   0.971   6.257   1.455 -0.2221 -0.0529  0.0638
 8982TIP3    H148361   1.008   6.325   1.399  0.5153 -0.4342  0.0637
 8982TIP3    H248362   0.932   6.303   1.529  2.5890  0.3055  1.4475
 8983TIP3   OH248363   3.434   2.034   2.677 -0.1250  0.9362  0.0741
 8983TIP3    H148364   3.495   2.006   2.609 -0.0615 -0.1246  0.5518
 8983TIP3    H248365   3.468   2.119   2.706  0.0592  1.2187 -0.9490
 8984TIP3   OH248366   0.323   6.432  14.998  0.7499  0.1924  0.1973
 8984TIP3    H148367   0.412   6.402  14.976  0.0487 -2.4024  0.5489
 8984TIP3    H248368   0.268   6.397  14.928 -0.0034  2.0041 -0.1619
 8985TIP3   OH248369   2.948   3.522  12.923  0.6730 -0.3071 -0.0061
 8985TIP3    H148370   2.961   3.469  13.001  0.6017 -0.7875 -0.3208
 8985TIP3    H248371   3.018   3.496  12.864 -0.9531 -2.0613 -1.2513
 8986TIP3   OH248372   5.526   1.199  16.912 -0.2231  0.1419  0.3082
 8986TIP3    H148373   5.601   1.143  16.935 -0.0910  0.0643 -0.2933
 8986TIP3    H248374   5.536   1.277  16.966  0.9470  0.6494 -0.6065
 8987TIP3   OH248375   1.624   6.201   3.428  0.4658  0.3985 -0.4847
 8987TIP3    H148376   1.586   6.289   3.429 -1.3656 -0.3264  0.7169
 8987TIP3    H248377   1.656   6.188   3.517  3.0915  0.7391 -1.3173
 8988TIP3   OH248378   5.588   3.459  14.046  0.3877  0.0082 -0.0865
 8988TIP3    H148379   5.623   3.420  14.126  0.1847  0.0606  0.0303
 8988TIP3    H248380   5.496   3.432  14.045  0.4601 -0.2213 -0.4477
 8989TIP3   OH248381   1.742   2.894  14.692  0.2518  0.5738 -0.0490
 8989TIP3    H148382   1.689   2.922  14.766 -1.4060 -2.2658 -0.0044
 8989TIP3    H248383   1.830   2.883  14.727 -0.4173 -0.2887  1.4374
 8990TIP3   OH248384   5.154   2.484  12.041 -0.2494  0.4223  0.1073
 8990TIP3    H148385   5.208   2.430  11.984  0.3810  1.6612 -0.5023
 8990TIP3    H248386   5.118   2.552  11.984 -1.3318  0.4547  0.7834
 8991TIP3   OH248387   5.723   0.196  11.946 -0.2317  0.0481  0.0519
 8991TIP3    H148388   5.674   0.171  11.867  1.8530  1.1505 -1.6971
 8991TIP3    H248389   5.748   0.287  11.931  1.4246 -0.1575  1.3429
 8992TIP3   OH248390   0.734   6.419   0.274  0.5135 -0.3561  0.5635
 8992TIP3    H148391   0.649   6.378   0.257  1.7251 -2.3687 -1.1683
 8992TIP3    H248392   0.773   6.366   0.343  0.4429  0.5218  1.3040
 8993TIP3   OH248393   5.506   2.075   3.583 -0.3212  0.5464  0.3293
 8993TIP3    H148394   5.459   2.046   3.506  1.1268 -1.8718  0.2585
 8993TIP3    H248395   5.439   2.089   3.649 -1.2906 -1.6221 -0.1150
 8994TIP3   OH248396   3.964   5.977   4.485  0.4448 -0.0180 -0.1608
 8994TIP3    H148397   4.010   5.903   4.523 -0.3680  0.8302  2.7837
 8994TIP3    H248398   3.872   5.962   4.506  0.0868  1.1114 -0.8081
 8995TIP3   OH248399   3.325   1.093  14.787 -0.1062  0.7087 -0.5562
 8995TIP3    H148400   3.341   0.999  14.777  2.1904  0.9307  0.4808
 8995TIP3    H248401   3.380   1.133  14.720 -2.3088  1.3422 -2.1162
 8996TIP3   OH248402   1.610   0.315   1.362  0.2407  0.0557  0.6064
 8996TIP3    H148403   1.606   0.278   1.274  1.0034  2.6684 -0.6160
 8996TIP3    H248404   1.679   0.266   1.406  0.3392 -0.8066 -0.4691
 8997TIP3   OH248405   5.251   0.415  13.009 -0.9428 -0.5729 -0.0995
 8997TIP3    H148406   5.184   0.438  13.074  1.0094  0.1148  1.7962
 8997TIP3    H248407   5.279   0.499  12.973  0.5869 -0.6039  0.9434
 8998TIP3   OH248408   0.863   5.232  14.503 -0.4348 -0.6502  0.1931
 8998TIP3    H148409   0.778   5.213  14.543 -0.8823  1.5829  0.4535
 8998TIP3    H248410   0.849   5.315  14.456  2.7754  2.7827  4.4407
 8999TIP3   OH248411   3.213   4.480  15.791 -0.1045  1.0391 -0.1040
 8999TIP3    H148412   3.226   4.392  15.757 -2.1526  0.4971  0.3649
 8999TIP3    H248413   3.301   4.510  15.815  0.6386 -0.8614 -0.2902
 9000TIP3   OH248414   4.768   6.175  17.158  0.6739  0.2038 -0.5329
 9000TIP3    H148415   4.857   6.210  17.163  0.9233 -0.4258 -0.5621
 9000TIP3    H248416   4.743   6.187  17.066  1.1592 -0.6618 -0.7853
 9001TIP3   OH248417   4.648   5.266  12.781  0.0923 -0.0781 -0.0128
 9001TIP3    H148418   4.621   5.336  12.721  2.0001  0.2460 -0.5419
 9001TIP3    H248419   4.574   5.259  12.842 -0.7510  1.4371 -0.7676
 9002TIP3   OH248420   2.690   2.004  11.229 -0.0844  0.9589  0.2531
 9002TIP3    H148421   2.698   2.089  11.270 -1.3741  1.6302 -0.8098
 9002TIP3    H248422   2.722   2.018  11.139  0.3938  0.1345  0.2838
 9003TIP3   OH248423   1.307   6.355  12.829  0.5634  0.5872  0.1224
 9003TIP3    H148424   1.268   6.271  12.803 -0.2795  0.7625  0.7817
 9003TIP3    H248425   1.233   6.406  12.864  1.2922  1.1447  0.8810
 9004TIP3   OH248426   6.425   3.461  14.414  0.2786 -0.2757 -0.2289
 9004TIP3    H148427   6.385   3.374  14.424 -0.3300 -0.0614 -0.7382
 9004TIP3    H248428   6.357   3.522  14.440  0.4198  0.0746 -0.6691
 9005TIP3   OH248429   0.305   0.138  12.706 -1.0011 -0.2732  0.0241
 9005TIP3    H148430   0.345   0.219  12.739  1.0226 -1.2728  0.1988
 9005TIP3    H248431   0.277   0.160  12.617  0.7503  0.3106 -0.4321
 9006TIP3   OH248432   3.680   5.455   1.073 -0.1908 -0.1652  0.4598
 9006TIP3    H148433   3.650   5.532   1.023  0.6659  0.1461  0.4134
 9006TIP3    H248434   3.769   5.477   1.100 -0.3357 -0.6916  1.4021
 9007TIP3   OH248435   4.147   1.419  12.988  0.1853 -0.2411 -0.2341
 9007TIP3    H148436   4.113   1.342  12.942 -0.1692  0.2891 -0.8781
 9007TIP3    H248437   4.133   1.400  13.081 -1.6907 -0.1566 -0.4566
 9008TIP3   OH248438   2.028   1.391   5.515 -0.3231  0.0153 -0.3356
 9008TIP3    H148439   2.066   1.304   5.509  2.3190  1.0481  0.0296
 9008TIP3    H248440   2.017   1.418   5.423  3.2015  0.9476 -0.6197
 9009TIP3   OH248441   3.690   3.866  13.505 -0.4982 -0.1452 -0.7775
 9009TIP3    H148442   3.640   3.943  13.480 -1.0050 -0.6710 -1.3895
 9009TIP3    H248443   3.778   3.882  13.470 -0.5425  0.2423 -0.7167
 9010TIP3   OH248444   1.249   2.322   0.432 -0.1311  0.3555  0.1233
 9010TIP3    H148445   1.253   2.418   0.427  0.0948  0.3383  0.0138
 9010TIP3    H248446   1.225   2.305   0.524  0.1086  0.5074  0.2145
 9011TIP3   OH248447   4.830   5.696   0.893 -0.3970  0.2121 -0.1604
 9011TIP3    H148448   4.744   5.684   0.853 -0.2723  0.5594 -0.5420
 9011TIP3    H248449   4.841   5.791   0.897  0.9137  0.2149 -2.2065
 9012TIP3   OH248450   3.215   5.525  16.178 -0.3333 -0.4106  0.3987
 9012TIP3    H148451   3.261   5.608  16.173  0.2876 -0.7681  0.0386
 9012TIP3    H248452   3.149   5.538  16.247  1.5703 -0.4973  2.3398
 9013TIP3   OH248453   3.684   2.199   1.939 -0.3139  0.2699 -0.3310
 9013TIP3    H148454   3.717   2.226   2.025  0.5204  0.6329 -0.7527
 9013TIP3    H248455   3.649   2.111   1.953  0.9669 -0.1872  0.1247
 9014TIP3   OH248456   5.144   0.851   1.198 -0.5952  0.7514 -0.2001
 9014TIP3    H148457   5.209   0.850   1.127 -0.4038 -0.8675 -0.0206
 9014TIP3    H248458   5.188   0.809   1.271 -1.1169  1.6073  0.6295
 9015TIP3   OH248459   5.389   4.825  16.677  0.3115  0.6019  0.2889
 9015TIP3    H148460   5.442   4.763  16.727 -0.7500 -0.6013 -0.0228
 9015TIP3    H248461   5.326   4.859  16.739  0.8437  1.3388  0.4401
 9016TIP3   OH248462   4.971   6.193  13.281  0.3404  0.1875  0.1645
 9016TIP3    H148463   5.065   6.194  13.296  0.3124  0.9261  0.3521
 9016TIP3    H248464   4.943   6.106  13.309  0.8247  0.3004  1.0312
 9017TIP3   OH248465   6.520   2.507  12.571  0.5900  0.4500 -0.4618
 9017TIP3    H148466   6.516   2.551  12.656 -0.4997 -0.3911 -0.0518
 9017TIP3    H248467   6.588   2.441  12.581 -0.4528 -0.5668  0.2529
 9018TIP3   OH248468   1.085   0.194  15.460  0.5216 -0.3848  0.2454
 9018TIP3    H148469   1.074   0.215  15.553  0.3257 -1.3876  0.4641
 9018TIP3    H248470   1.177   0.216  15.442  0.6572 -0.4992  0.7632
 9019TIP3   OH248471   2.646   1.505  14.529  0.1497  0.5111 -0.5256
 9019TIP3    H148472   2.734   1.521  14.564  0.6172 -0.0820 -1.3980
 9019TIP3    H248473   2.602   1.590  14.535  0.8584  0.8677 -0.2922
 9020TIP3   OH248474   1.399   6.480   1.734  0.2751 -0.1661 -0.2721
 9020TIP3    H148475   1.485   6.495   1.774  0.0274  1.0980 -0.1789
 9020TIP3    H248476   1.346   6.442   1.804  0.1455  1.0762  0.3388
 9021TIP3   OH248477   4.563   5.213   5.429 -0.5096  0.1593  0.1692
 9021TIP3    H148478   4.591   5.164   5.506 -0.1391  0.2753  0.1085
 9021TIP3    H248479   4.483   5.169   5.401 -0.2135 -0.3754  0.1495
 9022TIP3   OH248480   0.961   5.409  16.580 -0.0798 -0.6215 -0.5031
 9022TIP3    H148481   0.974   5.464  16.657  0.9994  0.4148 -1.3838
 9022TIP3    H248482   1.045   5.364  16.568  2.1442  3.6887 -4.3861
 9023TIP3   OH248483   3.009   3.287   2.864  0.2874  1.0620 -0.2155
 9023TIP3    H148484   3.088   3.252   2.906  0.3045  2.7419  1.2674
 9023TIP3    H248485   3.006   3.243   2.779  1.6694 -0.5733  0.5130
 9024TIP3   OH248486   0.506   6.536   3.480 -0.0144 -0.1541 -0.8287
 9024TIP3    H148487   0.524   6.608   3.419 -2.9130 -0.8834 -2.7506
 9024TIP3    H248488   0.455   6.577   3.550 -1.6271 -0.2378 -1.9015
 9025TIP3   OH248489   2.445   2.516  17.341  0.5401  0.0105  0.2136
 9025TIP3    H148490   2.499   2.571  17.396 -0.1984 -0.5936  1.5958
 9025TIP3    H248491   2.424   2.440  17.395 -2.2995  0.5586  0.0535
 9026TIP3   OH248492   4.184   6.380  12.558  0.1644 -0.1178  0.5164
 9026TIP3    H148493   4.205   6.450  12.620  0.8499 -0.6797  0.9404
 9026TIP3    H248494   4.200   6.418  12.472  1.8651 -0.1525  0.7822
 9027TIP3   OH248495   5.889   2.252   3.609 -0.0479  0.5994  0.0706
 9027TIP3    H148496   5.845   2.237   3.693 -0.4555 -0.0449 -0.2439
 9027TIP3    H248497   5.860   2.339   3.582 -0.0931  0.7175  0.4940
 9028TIP3   OH248498   6.685   2.816   1.743 -0.4840 -0.1772  0.1065
 9028TIP3    H148499   6.763   2.854   1.783 -1.0978  0.0024  1.1699
 9028TIP3    H248500   6.687   2.724   1.769 -0.8930 -0.0574  0.5729
 9029TIP3   OH248501   3.308   2.700   5.662 -0.0438 -0.0461 -0.0969
 9029TIP3    H148502   3.398   2.689   5.634 -0.1328 -1.0574 -0.0410
 9029TIP3    H248503   3.303   2.651   5.745 -0.0677  1.9059  1.1221
 9030TIP3   OH248504   2.903   3.229   5.504 -0.4590  0.4282  0.0768
 9030TIP3    H148505   2.975   3.241   5.441 -0.9177 -0.6024 -0.6735
 9030TIP3    H248506   2.932   3.157   5.559  0.1986  1.7047  1.4746
 9031TIP3   OH248507   2.562   6.094   1.250  0.2028  0.2086 -0.2723
 9031TIP3    H148508   2.525   6.063   1.333  0.5199 -0.4301 -0.3638
 9031TIP3    H248509   2.573   6.188   1.263 -1.3581  0.4160 -0.2087
 9032TIP3   OH248510   1.095   4.453  15.560 -0.1385  0.1299 -0.1913
 9032TIP3    H148511   1.045   4.379  15.597  0.3450  0.3979  1.0452
 9032TIP3    H248512   1.087   4.522  15.626 -0.6231  1.2223 -1.3597
 9033TIP3   OH248513   6.694   1.955   1.741  0.3371  0.0429  0.3974
 9033TIP3    H148514   6.789   1.968   1.737  0.2302  0.7090 -0.0748
 9033TIP3    H248515   6.684   1.868   1.780  1.1628 -0.4969 -0.5444
 9034TIP3   OH248516   3.590   5.458   2.476  0.2395 -0.2420 -0.5802
 9034TIP3    H148517   3.679   5.478   2.506 -0.6068 -0.2558  2.2839
 9034TIP3    H248518   3.597   5.369   2.442  1.2663 -0.3837 -0.0639
 9035TIP3   OH248519   4.794   4.048   6.426  0.3832 -0.2793  0.1798
 9035TIP3    H148520   4.803   4.137   6.461  1.8287 -0.3638  0.0712
 9035TIP3    H248521   4.700   4.037   6.413  0.1222  0.9856  0.8397
 9036TIP3   OH248522   0.192   4.525  11.009  0.0346  0.6296 -0.3534
 9036TIP3    H148523   0.276   4.537  11.052 -0.1469 -0.0254  0.2100
 9036TIP3    H248524   0.209   4.458  10.943  0.1090  0.9871 -0.6978
 9037TIP3   OH248525   6.042   0.697   3.151 -0.4408 -0.3752  0.0548
 9037TIP3    H148526   5.966   0.665   3.200  0.3675 -0.7482  1.1128
 9037TIP3    H248527   6.059   0.631   3.085 -0.1639 -1.0320  0.7670
 9038TIP3   OH248528   3.350   6.447   5.207  0.1497  0.2963  0.2457
 9038TIP3    H148529   3.312   6.497   5.134 -0.1602  0.4067  0.4786
 9038TIP3    H248530   3.345   6.356   5.178  1.6800  0.4567 -0.6205
 9039TIP3   OH248531   4.830   6.227   5.719 -0.2242  0.0506 -0.0115
 9039TIP3    H148532   4.802   6.136   5.725 -0.1649  0.0832  0.9355
 9039TIP3    H248533   4.784   6.262   5.642  0.0203 -0.8619 -0.5901
 9040TIP3   OH248534   3.158   2.559  13.012 -0.4297  0.3242  0.0936
 9040TIP3    H148535   3.151   2.626  12.944 -1.1771 -0.1913 -0.3593
 9040TIP3    H248536   3.069   2.523  13.019 -0.9253  1.8203  2.8933
 9041TIP3   OH248537   2.240   3.057   6.621 -0.3489  0.0652 -0.3991
 9041TIP3    H148538   2.334   3.068   6.637  0.0965  0.5178 -2.8902
 9041TIP3    H248539   2.232   3.059   6.526 -2.5722 -2.7024 -0.3799
 9042TIP3   OH248540   5.665   3.079   2.312  0.3468  0.0615  0.0740
 9042TIP3    H148541   5.597   3.118   2.256  0.1927  2.8809  2.0205
 9042TIP3    H248542   5.617   3.025   2.374 -0.6809  3.8527  2.9574
 9043TIP3   OH248543   5.853   6.012  16.360 -0.3277  0.2479 -0.2645
 9043TIP3    H148544   5.894   5.999  16.445  0.4591 -4.4723 -1.1013
 9043TIP3    H248545   5.923   6.042  16.303 -0.6628  2.5488  0.4246
 9044TIP3   OH248546   3.541   1.342  14.260 -0.2510  0.5349  0.2959
 9044TIP3    H148547   3.624   1.294  14.251 -0.0361  1.0787 -0.7975
 9044TIP3    H248548   3.567   1.428  14.292 -0.3922  0.6697  0.0515
 9045TIP3   OH248549   6.143   5.319   2.807 -0.4715 -0.1094 -0.9604
 9045TIP3    H148550   6.188   5.364   2.736  0.5743  0.3151 -0.0526
 9045TIP3    H248551   6.085   5.257   2.763  1.1532 -0.8390 -2.1798
 9046TIP3   OH248552   3.846   1.978   0.540 -0.0341  0.1645 -0.1686
 9046TIP3    H148553   3.826   1.937   0.456  0.0857 -0.0617 -0.0878
 9046TIP3    H248554   3.761   1.991   0.581 -0.0364 -4.6303  2.0333
 9047TIP3   OH248555   4.750   0.127   6.887  0.3891  0.4265 -0.4364
 9047TIP3    H148556   4.715   0.045   6.853  1.2570  0.1290 -0.6448
 9047TIP3    H248557   4.802   0.163   6.816  0.1073  1.1144 -0.3095
 9048TIP3   OH248558   0.696   3.532  12.922  0.2437  0.7517 -0.1903
 9048TIP3    H148559   0.656   3.598  12.978 -2.6832 -1.3973  0.4678
 9048TIP3    H248560   0.625   3.471  12.901  2.9711 -2.9612  0.3639
 9049TIP3   OH248561   1.418   0.027  15.567  0.6165 -0.4956 -0.5087
 9049TIP3    H148562   1.398   0.096  15.630 -0.0088 -1.0939 -0.0507
 9049TIP3    H248563   1.513   0.034  15.555  0.5096  0.7214 -0.8032
 9050TIP3   OH248564   6.292   6.159   5.693  0.0546  0.6010 -0.0877
 9050TIP3    H148565   6.342   6.206   5.626  0.2690  1.2999  0.5434
 9050TIP3    H248566   6.350   6.090   5.724 -0.3944 -0.3316 -1.2799
 9051TIP3   OH248567   0.229   3.588   3.712 -0.3989  0.4690 -0.0897
 9051TIP3    H148568   0.213   3.530   3.638  1.8033 -1.4745  0.8116
 9051TIP3    H248569   0.190   3.671   3.687 -2.3892 -0.9727 -2.0928
 9052TIP3   OH248570   4.989   0.186   2.707 -0.4120  0.4999  0.2521
 9052TIP3    H148571   4.953   0.146   2.627  1.8104 -0.6911 -0.2237
 9052TIP3    H248572   4.990   0.280   2.688 -2.1557  0.4789 -0.1310
 9053TIP3   OH248573   3.672   3.559   3.824 -0.5022 -0.5771 -0.1829
 9053TIP3    H148574   3.677   3.473   3.784  1.2415 -0.4101 -0.3868
 9053TIP3    H248575   3.762   3.592   3.823 -1.2540  1.6215 -0.9190
 9054TIP3   OH248576   3.351   1.651   0.524 -0.1704  0.4294 -0.1114
 9054TIP3    H148577   3.373   1.617   0.611  0.6254 -0.7618 -0.7459
 9054TIP3    H248578   3.285   1.718   0.540  0.5233  0.7761  1.4778
 9055TIP3   OH248579   2.285   0.873  14.722 -0.3396 -0.3409  0.3642
 9055TIP3    H148580   2.327   0.865  14.636 -2.1554 -0.8910 -0.5326
 9055TIP3    H248581   2.275   0.968  14.734 -0.2424 -0.2635 -0.1351
 9056TIP3   OH248582   6.293   5.951   3.869  0.3949  0.1333 -0.4472
 9056TIP3    H148583   6.289   5.904   3.786  0.4125 -0.2442 -0.2357
 9056TIP3    H248584   6.382   5.940   3.900  0.0439 -0.8543  0.2634
 9057TIP3   OH248585   2.128   1.174   2.049  0.1541 -0.1022  0.9263
 9057TIP3    H148586   2.166   1.101   1.999  1.2409  0.3535  1.0547
 9057TIP3    H248587   2.084   1.227   1.983 -2.1531 -1.7357  1.0474
 9058TIP3   OH248588   3.551   5.151  17.271 -0.2639  0.1572 -0.4186
 9058TIP3    H148589   3.552   5.190  17.359  1.8591  2.2384 -1.2617
 9058TIP3    H248590   3.469   5.182  17.232 -0.7238  0.0683  0.4512
 9059TIP3   OH248591   1.508   3.303  11.429  0.0351 -0.0868 -0.0619
 9059TIP3    H148592   1.455   3.366  11.379  0.3429  0.0601 -0.2070
 9059TIP3    H248593   1.447   3.266  11.493 -0.1130  0.4865  0.1414
 9060TIP3   OH248594   2.351   5.871  13.750 -0.3265 -0.2865  0.2991
 9060TIP3    H148595   2.324   5.877  13.841  0.9642  1.2716  0.6461
 9060TIP3    H248596   2.281   5.913  13.700 -0.0516  0.8837  0.8485
 9061TIP3   OH248597   3.031   5.983  16.501 -0.1343 -0.2545 -0.0227
 9061TIP3    H148598   3.029   6.074  16.533  0.0102  0.0198 -0.7831
 9061TIP3    H248599   3.085   5.986  16.422 -1.3732 -0.7191 -0.9272
 9062TIP3   OH248600   3.519   4.534  11.716  0.1862 -0.2648 -0.5055
 9062TIP3    H148601   3.594   4.567  11.667 -0.1916  0.7384 -0.4441
 9062TIP3    H248602   3.457   4.607  11.717 -0.5052 -0.8342  0.0414
 9063TIP3   OH248603   2.410   5.755   3.918 -0.5295 -0.1783 -0.1157
 9063TIP3    H148604   2.432   5.741   3.826  0.2336 -0.1241  0.0512
 9063TIP3    H248605   2.454   5.684   3.964 -0.9939 -0.2619  0.2004
 9064TIP3   OH248606   6.589   1.816  13.483  0.6790 -0.5266 -0.1233
 9064TIP3    H148607   6.643   1.747  13.523  2.1720  0.1337 -0.9266
 9064TIP3    H248608   6.552   1.775  13.405  0.0372 -0.9640  0.3974
 9065TIP3   OH248609   3.674   0.845  16.052  0.6883  0.7417 -0.5337
 9065TIP3    H148610   3.758   0.886  16.073  1.1830 -1.3595  2.1949
 9065TIP3    H248611   3.611   0.918  16.051  1.9343  1.9286  1.3508
 9066TIP3   OH248612   3.160   3.223   0.412  0.5922 -0.0921 -0.5289
 9066TIP3    H148613   3.227   3.186   0.470  0.1481 -0.8854 -0.5017
 9066TIP3    H248614   3.149   3.157   0.344 -2.5970 -1.6881  1.3075
 9067TIP3   OH248615   5.214   4.328  11.006  0.0864  0.1080  0.2417
 9067TIP3    H148616   5.243   4.354  10.918 -1.1499  1.0013  0.0675
 9067TIP3    H248617   5.228   4.406  11.060  0.4910 -0.3160  0.7544
 9068TIP3   OH248618   3.071   1.353   1.339 -0.2971 -0.2421 -0.1205
 9068TIP3    H148619   3.053   1.427   1.282 -1.1895 -0.5308 -0.2263
 9068TIP3    H248620   3.021   1.281   1.301 -0.7785 -0.4856  0.9290
 9069TIP3   OH248621   3.624   2.551  16.966 -0.1574 -0.0032  0.3876
 9069TIP3    H148622   3.635   2.474  17.023  0.0598 -0.9476 -0.9008
 9069TIP3    H248623   3.708   2.560  16.922 -0.2406  0.8943  0.4041
 9070TIP3   OH248624   5.913   5.925   0.739  0.4589 -0.1082 -0.6691
 9070TIP3    H148625   5.855   5.913   0.815  0.7633  0.2128 -0.3814
 9070TIP3    H248626   5.909   6.019   0.721  1.3700  0.0179 -0.2547
 9071TIP3   OH248627   5.339   3.123   5.195 -0.2065  0.7145  0.1795
 9071TIP3    H148628   5.366   3.059   5.261  0.6167  1.0314  0.1548
 9071TIP3    H248629   5.418   3.140   5.144 -0.7645  0.6964 -0.7040
 9072TIP3   OH248630   5.408   4.216  11.772  0.0398  0.5678 -0.7815
 9072TIP3    H148631   5.427   4.175  11.687  0.7750 -1.7128  0.4131
 9072TIP3    H248632   5.351   4.289  11.750  1.4238  1.0145 -3.4016
 9073TIP3   OH248633   4.731   2.523   0.808 -0.4900  0.0994 -0.4247
 9073TIP3    H148634   4.793   2.536   0.737 -1.4265  0.1198 -1.2685
 9073TIP3    H248635   4.777   2.552   0.887  1.0180 -1.1465 -0.8199
 9074TIP3   OH248636   3.688   4.963  14.729  0.6952  0.5292  0.0220
 9074TIP3    H148637   3.780   4.939  14.715  0.5037 -1.4767  1.6642
 9074TIP3    H248638   3.685   4.993  14.820 -0.3536 -0.0140  0.1838
 9075TIP3   OH248639   0.571   0.752   1.748  0.4011 -0.2463 -0.1008
 9075TIP3    H148640   0.603   0.717   1.831 -0.2312 -1.4292 -0.3431
 9075TIP3    H248641   0.509   0.687   1.716  0.4289  0.3228 -1.3800
 9076TIP3   OH248642   3.863   0.615   0.369 -0.5627 -0.4553  0.1464
 9076TIP3    H148643   3.845   0.709   0.371  1.1291 -0.0731 -0.7815
 9076TIP3    H248644   3.790   0.578   0.320  1.0802  1.0717 -3.8737
 9077TIP3   OH248645   0.487   5.835   6.990 -0.1491  0.4085  0.0451
 9077TIP3    H148646   0.411   5.811   6.937  0.3436 -1.2233  0.0067
 9077TIP3    H248647   0.516   5.752   7.028  0.8972  1.1901  1.0138
 9078TIP3   OH248648   6.019   4.399   4.714  0.2278 -0.0359  1.0686
 9078TIP3    H148649   5.933   4.420   4.679  0.7155  0.3591  0.0703
 9078TIP3    H248650   6.049   4.325   4.661  1.2075  0.9190  0.2533
 9079TIP3   OH248651   0.626   1.065  15.098  0.2856  0.2661  0.3818
 9079TIP3    H148652   0.660   0.999  15.159  3.4624 -0.5182 -1.9441
 9079TIP3    H248653   0.704   1.097  15.052 -1.5778  3.0682 -1.0807
 9080TIP3   OH248654   1.682   2.095  15.006 -0.6465 -0.0959  0.0816
 9080TIP3    H148655   1.610   2.082  15.068 -1.8444 -1.9386 -1.5725
 9080TIP3    H248656   1.639   2.126  14.926  0.8169  1.8572 -0.0121
 9081TIP3   OH248657   5.899   1.345   3.134  0.5923  0.1263  0.0636
 9081TIP3    H148658   5.809   1.313   3.133 -0.2223  1.9752  2.5054
 9081TIP3    H248659   5.951   1.273   3.169 -0.0030 -0.7803 -0.8873
 9082TIP3   OH248660   1.663   3.918   0.286 -0.8702  0.1224 -0.0094
 9082TIP3    H148661   1.745   3.939   0.240 -1.3939 -0.3553 -1.2084
 9082TIP3    H248662   1.609   3.996   0.273  0.2358  1.5198  2.9538
 9083TIP3   OH248663   5.823   3.893  16.362  0.5164 -0.0809  0.3826
 9083TIP3    H148664   5.799   3.979  16.396 -1.8914 -0.1911 -0.8202
 9083TIP3    H248665   5.918   3.891  16.367  0.5308  1.7583  2.5171
 9084TIP3   OH248666   5.760   0.913  12.746 -0.7451  0.0632 -0.5865
 9084TIP3    H148667   5.822   0.904  12.674  0.5950 -0.1232  0.5531
 9084TIP3    H248668   5.702   0.985  12.719 -1.8349 -1.5603 -2.9065
 9085TIP3   OH248669   3.729   4.490  14.601 -0.1922  0.1366 -0.3340
 9085TIP3    H148670   3.741   4.500  14.507 -1.2096  2.9437 -0.2485
 9085TIP3    H248671   3.651   4.542  14.621 -0.5416 -1.1278  1.9450
 9086TIP3   OH248672   5.181   0.502  15.366  0.2205 -0.6465 -0.0486
 9086TIP3    H148673   5.204   0.542  15.450  1.3593 -1.0128 -0.1726
 9086TIP3    H248674   5.189   0.408  15.381 -0.3267 -0.7510 -0.3654
 9087TIP3   OH248675   2.572   3.702   1.688 -0.4660  0.3101  0.0782
 9087TIP3    H148676   2.603   3.773   1.745  1.4506 -0.3016 -0.1376
 9087TIP3    H248677   2.510   3.653   1.743  0.0926  0.6863  1.0729
 9088TIP3   OH248678   4.182   6.449  14.509 -0.4201 -0.1947 -0.3135
 9088TIP3    H148679   4.203   6.443  14.416 -0.4081 -0.8621 -0.2685
 9088TIP3    H248680   4.220   6.370  14.548 -1.8712 -0.7647 -0.0124
 9089TIP3   OH248681   2.399   1.596  17.107 -0.2494  0.0905 -0.0454
 9089TIP3    H148682   2.348   1.582  17.187  1.5363  0.4627  1.2024
 9089TIP3    H248683   2.480   1.547  17.121  1.2434  2.3022 -0.4427
 9090TIP3   OH248684   0.887   0.128   3.404 -0.7586 -0.0458  0.1826
 9090TIP3    H148685   0.945   0.178   3.346 -1.6185 -1.0666 -1.6222
 9090TIP3    H248686   0.903   0.166   3.491 -1.7402  3.7713 -1.0881
 9091TIP3   OH248687   4.604   2.035  14.397  0.5133  0.8877  0.3552
 9091TIP3    H148688   4.571   1.958  14.351  0.5725  0.0246  1.6875
 9091TIP3    H248689   4.535   2.100  14.387  0.0111  0.3209  0.0430
 9092TIP3   OH248690   3.379   2.246   0.594  0.2211 -0.6732  0.4542
 9092TIP3    H148691   3.473   2.248   0.613  0.3261 -4.0255  0.9323
 9092TIP3    H248692   3.337   2.242   0.680 -0.2142 -1.2780  0.2198
 9093TIP3   OH248693   0.568   4.897   1.760 -0.3542  0.2307 -0.2314
 9093TIP3    H148694   0.598   4.809   1.738  0.7735  0.2657  1.0820
 9093TIP3    H248695   0.476   4.899   1.731  0.0451 -0.8403 -1.6731
 9094TIP3   OH248696   6.737   0.448   0.591  0.3777 -0.3221 -0.5002
 9094TIP3    H148697   6.738   0.368   0.539  2.0071  0.8482 -2.4430
 9094TIP3    H248698   6.750   0.419   0.681  1.7490 -2.2208 -1.2420
 9095TIP3   OH248699   0.050   2.654   2.784  0.0376 -0.1697  0.0355
 9095TIP3    H148700   0.068   2.586   2.720  2.8499  0.3745  0.1091
 9095TIP3    H248701   0.062   2.611   2.869  0.4058  0.0569  0.1021
 9096TIP3   OH248702   1.059   3.758   2.830  0.2633  0.1587 -0.5035
 9096TIP3    H148703   1.087   3.801   2.911 -0.7754  1.0236 -0.5799
 9096TIP3    H248704   1.099   3.809   2.760 -0.8604  0.9691 -0.5899
 9097TIP3   OH248705   4.737   0.748  11.400  0.0666 -0.2202  0.4428
 9097TIP3    H148706   4.766   0.834  11.367 -2.4016  0.4847 -0.1077
 9097TIP3    H248707   4.644   0.745  11.379  0.0112 -2.9250  0.7962
 9098TIP3   OH248708   6.514   2.070  13.383 -0.2489 -0.1388 -0.5296
 9098TIP3    H148709   6.419   2.085  13.392 -0.4785 -1.3651 -0.7447
 9098TIP3    H248710   6.527   1.982  13.419  1.2900  1.1326  2.3731
 9099TIP3   OH248711   5.078   4.763  14.016  0.0105  1.0238  0.2167
 9099TIP3    H148712   5.167   4.730  14.024 -0.2671 -0.3770 -1.6974
 9099TIP3    H248713   5.029   4.716  14.083  0.2473 -0.1694 -0.4112
 9100TIP3   OH248714   1.244   0.629   0.234  0.1018  0.1365  0.6849
 9100TIP3    H148715   1.248   0.621   0.329  1.5612  0.3933  0.6682
 9100TIP3    H248716   1.245   0.539   0.202 -1.4689  0.0167  0.9243
 9101TIP3   OH248717   2.454   0.186   3.057  0.0175  0.5117 -0.2290
 9101TIP3    H148718   2.372   0.200   3.009 -0.7022  1.0319  1.0964
 9101TIP3    H248719   2.520   0.233   3.005 -1.1242  2.9522  0.3684
 9102TIP3   OH248720   5.174   2.804   2.865 -0.9400 -0.2345 -0.3574
 9102TIP3    H148721   5.239   2.755   2.815  0.0428 -0.4400  1.0538
 9102TIP3    H248722   5.095   2.751   2.861  0.3904 -2.6516  2.0676
 9103TIP3   OH248723   4.510   6.547   5.143  0.5261  0.0096 -0.1910
 9103TIP3    H148724   4.480   6.459   5.165 -0.2603 -0.0124 -1.2634
 9103TIP3    H248725   4.593   6.534   5.098  0.2157 -0.2157 -0.7000
 9104TIP3   OH248726   4.388   3.382   2.780 -0.3542 -0.5526 -0.6503
 9104TIP3    H148727   4.426   3.435   2.710  0.5593  0.4419  0.5484
 9104TIP3    H248728   4.433   3.411   2.860 -0.5775 -2.4176  0.2109
 9105TIP3   OH248729   5.267   5.790  16.826  0.1240 -0.5810  0.0538
 9105TIP3    H148730   5.222   5.763  16.746  0.1730 -1.7499  0.3900
 9105TIP3    H248731   5.360   5.774  16.808  0.0984 -1.3059  0.4833
 9106TIP3   OH248732   4.561   5.590   6.540  0.1705 -0.1788 -0.2484
 9106TIP3    H148733   4.504   5.602   6.616 -0.9164  0.5940 -1.1531
 9106TIP3    H248734   4.556   5.674   6.493  1.4427 -0.3733 -0.7569
 9107TIP3   OH248735   3.424   5.526  12.238  0.0544 -0.2299 -0.0533
 9107TIP3    H148736   3.518   5.521  12.225  0.4966  2.1352  1.6697
 9107TIP3    H248737   3.395   5.435  12.236  2.6269 -1.1618  0.9738
 9108TIP3   OH248738   5.059   6.711  16.028  0.2147 -0.2794 -0.1177
 9108TIP3    H148739   5.036   6.753  15.945 -0.0354 -1.6629 -0.7767
 9108TIP3    H248740   5.116   6.639  16.004 -0.1420 -0.9187  0.8861
 9109TIP3   OH248741   5.532   3.624  10.466  0.7309 -0.6845 -0.2550
 9109TIP3    H148742   5.494   3.537  10.476 -0.5764 -0.1560 -0.3827
 9109TIP3    H248743   5.459   3.679  10.437  1.4705  0.5028  0.0474
 9110TIP3   OH248744   5.549   1.491   4.689 -0.0970  0.0530 -0.1463
 9110TIP3    H148745   5.548   1.396   4.703 -3.0244 -0.1660 -1.1964
 9110TIP3    H248746   5.587   1.502   4.602 -1.0202 -0.2784 -0.5952
 9111TIP3   OH248747   4.946   5.561  11.497  0.2751 -0.3207 -0.7729
 9111TIP3    H148748   4.914   5.650  11.506  1.3478 -0.0661  1.0549
 9111TIP3    H248749   4.951   5.546  11.402 -0.7431  1.2257 -1.1010
 9112TIP3   OH248750   4.808   6.472   5.129 -0.1492 -0.1148  0.1014
 9112TIP3    H148751   4.862   6.413   5.077  0.7342  0.2144  0.6331
 9112TIP3    H248752   4.746   6.414   5.175  1.3286 -0.7552  1.3725
 9113TIP3   OH248753   5.394   0.127  12.625 -0.1833 -0.1964  0.0477
 9113TIP3    H148754   5.373   0.126  12.718 -1.7060  0.1408 -0.2797
 9113TIP3    H248755   5.377   0.217  12.598 -0.9324 -0.5857 -0.8096
 9114TIP3   OH248756   0.967   0.224   1.196 -0.4851  0.0166  0.0964
 9114TIP3    H148757   0.993   0.282   1.124 -1.7120  3.1740  1.9809
 9114TIP3    H248758   0.878   0.196   1.173 -0.0769 -0.7485 -0.5900
 9115TIP3   OH248759   5.869   1.621  12.715 -0.4352  0.8994  0.1074
 9115TIP3    H148760   5.893   1.573  12.637  0.9456 -0.0734  1.0966
 9115TIP3    H248761   5.918   1.703  12.710 -1.7822  1.6911 -0.9238
 9116TIP3   OH248762   2.202   4.873  17.340  0.4138  0.2889  0.0404
 9116TIP3    H148763   2.222   4.835  17.254 -0.5057 -0.9638  0.3469
 9116TIP3    H248764   2.138   4.813  17.378  0.1837  1.2769  1.2692
 9117TIP3   OH248765   0.192   3.970   0.708  0.0033 -0.6805  0.0938
 9117TIP3    H148766   0.259   3.926   0.760  1.2010 -1.9066 -2.3076
 9117TIP3    H248767   0.221   4.061   0.703  0.1423 -0.6646  1.1042
 9118TIP3   OH248768   2.200   6.274   2.452  0.6986  0.7729 -0.3195
 9118TIP3    H148769   2.177   6.183   2.434 -1.0507  1.1876 -0.2891
 9118TIP3    H248770   2.222   6.275   2.545 -0.7091  0.6370  0.0308
 9119TIP3   OH248771   3.111   0.832  12.155  0.0040 -0.2939 -0.0877
 9119TIP3    H148772   3.111   0.923  12.182 -0.9710 -0.0078 -0.9940
 9119TIP3    H248773   3.201   0.815  12.125  0.5752 -0.0678  1.3954
 9120TIP3   OH248774   2.439   3.483  11.995 -0.0946 -0.5166  0.0687
 9120TIP3    H148775   2.488   3.527  12.064  1.7062  0.2387 -1.5906
 9120TIP3    H248776   2.467   3.391  12.001  1.1859 -0.1901 -0.5175
 9121TIP3   OH248777   5.084   1.758  15.587  0.1787 -0.4898 -0.1431
 9121TIP3    H148778   5.060   1.817  15.515 -0.6680  0.2282  0.7047
 9121TIP3    H248779   5.020   1.687  15.582 -0.3307 -0.0676  0.3397
 9122TIP3   OH248780   3.508   3.838   6.007  0.2316 -0.5263  0.3139
 9122TIP3    H148781   3.529   3.854   5.915 -0.7074 -2.8284 -0.3773
 9122TIP3    H248782   3.589   3.859   6.054  0.5223  1.3234 -0.9213
 9123TIP3   OH248783   6.679   1.195   1.723  0.2408 -0.3660 -0.5410
 9123TIP3    H148784   6.722   1.218   1.806  0.5390  0.0868 -0.8205
 9123TIP3    H248785   6.725   1.247   1.657 -0.2227 -0.4732 -0.9471
 9124TIP3   OH248786   1.061   1.000  15.064  0.0450  0.0068 -0.3868
 9124TIP3    H148787   1.085   0.925  15.008 -1.7968  0.0865 -1.3679
 9124TIP3    H248788   1.072   1.076  15.007 -0.5186  0.2304 -0.1981
 9125TIP3   OH248789   1.315   4.054  15.230  0.2865  0.0810  0.0242
 9125TIP3    H148790   1.233   4.051  15.180 -0.0364  1.6150  0.4346
 9125TIP3    H248791   1.348   3.964  15.225 -2.0493 -0.9147  0.9145
 9126TIP3   OH248792   5.734   1.323   6.558 -0.1259 -0.4330 -0.2490
 9126TIP3    H148793   5.787   1.289   6.629  0.6385 -1.4584 -1.2735
 9126TIP3    H248794   5.786   1.307   6.479 -0.7842  1.0110 -1.0160
 9127TIP3   OH248795   3.827   2.601   1.026 -0.0336 -0.1395 -0.3663
 9127TIP3    H148796   3.903   2.659   1.033  0.9161 -1.4830  1.6378
 9127TIP3    H248797   3.858   2.517   1.062 -2.5916 -0.5835  1.0488
 9128TIP3   OH248798   5.451   1.923   1.730  0.1129 -0.3017 -0.3764
 9128TIP3    H148799   5.454   1.841   1.778  0.7977 -1.2101 -1.9261
 9128TIP3    H248800   5.511   1.981   1.778 -0.0286 -0.8394  0.4637
 9129TIP3   OH248801   4.212   2.453  13.775  0.0781  0.0801  0.3674
 9129TIP3    H148802   4.154   2.388  13.815  1.4594 -0.9121  0.8178
 9129TIP3    H248803   4.281   2.401  13.734  1.9523  1.2728  1.8703
 9130TIP3   OH248804   6.412   3.661   5.990 -0.2429  0.0142 -0.1008
 9130TIP3    H148805   6.453   3.699   6.067 -0.6709  0.3105 -0.0127
 9130TIP3    H248806   6.335   3.615   6.024  0.4711 -1.2498 -0.1673
 9131TIP3   OH248807   4.672   5.421   2.797 -0.3036 -0.2319 -0.5391
 9131TIP3    H148808   4.688   5.474   2.875  2.0629 -1.9469  0.2440
 9131TIP3    H248809   4.590   5.376   2.816 -1.2778  1.5171 -0.3446
 9132TIP3   OH248810   3.805   6.100  14.600 -0.0409  0.3059  0.7047
 9132TIP3    H148811   3.721   6.056  14.590  1.0799 -1.3739 -3.1929
 9132TIP3    H248812   3.783   6.191  14.618 -2.6974 -0.0960 -0.1810
 9133TIP3   OH248813   2.081   0.522   4.436  0.1599 -0.4093  0.2902
 9133TIP3    H148814   2.040   0.457   4.379 -0.5922 -1.2940  1.7862
 9133TIP3    H248815   2.011   0.584   4.456  0.8681  0.9462 -1.1217
 9134TIP3   OH248816   2.717   1.398   1.183 -0.4150 -0.5528 -0.3939
 9134TIP3    H148817   2.758   1.469   1.233  0.9395 -0.9804 -0.8710
 9134TIP3    H248818   2.685   1.441   1.103  1.3983 -0.6379 -1.2056
 9135TIP3   OH248819   5.966   1.914  12.767  0.0708 -0.5571  0.1393
 9135TIP3    H148820   6.004   1.873  12.844  1.1874 -0.7415 -0.4859
 9135TIP3    H248821   5.942   2.002  12.795 -2.1321 -1.4930  1.4383
 9136TIP3   OH248822   1.246   2.816   1.775 -0.1600  0.0513 -0.1763
 9136TIP3    H148823   1.335   2.852   1.776 -0.3047  0.5578 -2.1272
 9136TIP3    H248824   1.245   2.758   1.699 -1.4087 -0.2075  0.0257
 9137TIP3   OH248825   4.237   2.679  12.138  1.0138 -0.6970 -0.0576
 9137TIP3    H148826   4.225   2.766  12.177  1.8399 -0.4244 -0.4058
 9137TIP3    H248827   4.331   2.667  12.132  0.9365 -1.9769  0.7493
 9138TIP3   OH248828   1.572   1.557   2.361  0.0470  0.3604  0.0913
 9138TIP3    H148829   1.576   1.609   2.441 -0.0253 -1.4147  1.3299
 9138TIP3    H248830   1.536   1.616   2.295  2.4423  2.6729  0.6658
 9139TIP3   OH248831   3.218   1.855  12.198 -0.1341  0.0671 -0.6910
 9139TIP3    H148832   3.305   1.866  12.158  0.4903  0.6667  0.7696
 9139TIP3    H248833   3.224   1.902  12.281 -1.4249 -1.0827  0.0787
 9140TIP3   OH248834   4.261   0.294   2.714 -0.1522  0.1309  0.0871
 9140TIP3    H148835   4.310   0.373   2.738 -0.5773  0.6436 -0.7104
 9140TIP3    H248836   4.311   0.256   2.642 -1.7893  1.6063 -1.9410
 9141TIP3   OH248837   2.554   0.052   6.220  0.1213  0.2125 -0.1257
 9141TIP3    H148838   2.532   0.040   6.312 -0.3607  0.9450 -0.1362
 9141TIP3    H248839   2.513  -0.023   6.176  0.6106 -0.3088  0.2759
 9142TIP3   OH248840   2.363   4.477  17.266 -0.2227 -0.5492  0.2663
 9142TIP3    H148841   2.438   4.531  17.290 -2.0097  1.8562  0.7764
 9142TIP3    H248842   2.357   4.413  17.337  0.0848  0.5879  1.3506
 9143TIP3   OH248843   0.985   5.001  12.890  0.0170 -0.1522 -0.1012
 9143TIP3    H148844   1.028   4.930  12.938  0.4061  0.4190  0.4115
 9143TIP3    H248845   0.893   4.995  12.916  0.3774  0.7657  1.5364
 9144TIP3   OH248846   0.874   0.323  12.391 -0.5623 -0.4144  0.0590
 9144TIP3    H148847   0.945   0.323  12.455 -0.9720  0.3607  0.5182
 9144TIP3    H248848   0.866   0.231  12.365 -0.2853 -0.7143  0.9921
 9145TIP3   OH248849   4.475   0.724  14.218 -0.0367 -0.5960 -0.4401
 9145TIP3    H148850   4.520   0.775  14.150  1.3515 -1.2472 -0.0479
 9145TIP3    H248851   4.543   0.668  14.255 -0.6384  0.0600  1.8222
 9146TIP3   OH248852   0.511   1.400  12.931  0.5055  0.0934  0.2693
 9146TIP3    H148853   0.591   1.446  12.908 -0.2444  1.2882 -0.0192
 9146TIP3    H248854   0.485   1.354  12.851  0.5241  0.2748  0.1597
 9147TIP3   OH248855   0.747   2.103   5.275  0.3233 -0.1249  0.5663
 9147TIP3    H148856   0.793   2.187   5.274 -0.9850  0.6205  0.5471
 9147TIP3    H248857   0.708   2.098   5.363 -1.3348  0.2888 -0.1165
 9148TIP3   OH248858   6.288   2.476   2.284 -0.0362  0.4493 -0.5515
 9148TIP3    H148859   6.382   2.456   2.290 -0.0469  0.6072  0.3321
 9148TIP3    H248860   6.279   2.527   2.205  0.7678  1.1718 -0.1908
 9149TIP3   OH248861   2.761   4.861   2.177  0.5330 -0.1702 -0.5380
 9149TIP3    H148862   2.801   4.917   2.110  2.2774  1.9059  1.9989
 9149TIP3    H248863   2.835   4.835   2.233 -0.7381 -2.3944  0.2431
 9150TIP3   OH248864   0.553   4.629  16.456  0.1862 -0.5807 -0.3559
 9150TIP3    H148865   0.634   4.608  16.504 -0.4620 -1.6866  0.2747
 9150TIP3    H248866   0.528   4.715  16.490  0.3610 -0.8372  0.4472
 9151TIP3   OH248867   3.260   4.627   2.954 -0.0058 -0.2486  0.1620
 9151TIP3    H148868   3.176   4.659   2.988 -0.4341  0.4127 -1.4348
 9151TIP3    H248869   3.237   4.572   2.880  0.9585 -0.1452 -0.2360
 9152TIP3   OH248870   4.944   0.765   6.656  0.4636  0.1622 -0.2188
 9152TIP3    H148871   4.936   0.845   6.605  0.5536 -0.6490 -1.5393
 9152TIP3    H248872   5.011   0.713   6.611 -0.7028 -1.3240 -0.3332
 9153TIP3   OH248873   5.123   5.638   5.825 -0.3070 -0.1241 -0.5439
 9153TIP3    H148874   5.102   5.730   5.841 -0.8708 -0.4561  0.6967
 9153TIP3    H248875   5.044   5.602   5.785 -1.5080 -0.8988  2.3064
 9154TIP3   OH248876   0.011   3.592   0.374 -0.0300  0.4717  0.2865
 9154TIP3    H148877   0.091   3.641   0.395  2.7926 -3.0091 -1.2791
 9154TIP3    H248878  -0.000   3.604   0.279  2.0195 -3.2205 -0.6161
 9155TIP3   OH248879   5.146   3.666   2.332 -0.2676 -0.1981  0.1593
 9155TIP3    H148880   5.175   3.591   2.281  1.0184  0.3627  0.0185
 9155TIP3    H248881   5.227   3.714   2.352 -0.9888  0.7900  0.8076
 9156TIP3   OH248882   0.432   1.281  15.606 -0.1157 -0.0789 -0.0663
 9156TIP3    H148883   0.392   1.197  15.584 -0.1651 -0.4149  1.2073
 9156TIP3    H248884   0.428   1.332  15.525  2.2461 -2.1935 -1.6586
 9157TIP3   OH248885   0.095   1.841  13.749 -0.1480 -0.0440 -0.3532
 9157TIP3    H148886   0.011   1.864  13.709 -0.1069  1.1390  0.1807
 9157TIP3    H248887   0.075   1.834  13.843  0.4692  0.9122 -0.1405
 9158TIP3   OH248888   5.641   1.566   3.639  0.3908  0.5333  0.1662
 9158TIP3    H148889   5.736   1.573   3.631  0.4164  2.1472  1.2640
 9158TIP3    H248890   5.609   1.651   3.610 -0.7537 -0.1133 -0.5166
 9159TIP3   OH248891   6.383   0.955   5.986 -0.4371 -0.0977 -0.6395
 9159TIP3    H148892   6.348   0.976   6.073 -0.0479 -2.4335  0.1563
 9159TIP3    H248893   6.306   0.927   5.936 -0.2097 -2.5690  0.2542
 9160TIP3   OH248894   3.112   2.640  15.441  0.2868 -0.5661 -0.0699
 9160TIP3    H148895   3.173   2.597  15.500  0.5147  0.1249  0.2087
 9160TIP3    H248896   3.026   2.605  15.466  0.3596 -0.1548  0.7979
 9161TIP3   OH248897   2.594   3.019   6.028  0.2232  0.0814 -0.4692
 9161TIP3    H148898   2.517   3.072   6.048 -1.4672 -2.7231  1.1892
 9161TIP3    H248899   2.570   2.973   5.947  0.3424 -0.4400 -0.2106
 9162TIP3   OH248900   2.202   1.648  16.919  0.4783  0.5286  0.0742
 9162TIP3    H148901   2.212   1.734  16.879  0.9444  0.7211  0.5906
 9162TIP3    H248902   2.279   1.638  16.975 -0.0320  0.1575  0.7301
 9163TIP3   OH248903   3.818   5.552   0.457 -0.1699 -0.6443 -0.5004
 9163TIP3    H148904   3.844   5.491   0.526 -1.5514 -2.0193 -1.1318
 9163TIP3    H248905   3.900   5.586   0.423  0.5721 -0.6923  1.1401
 9164TIP3   OH248906   4.070   6.738   5.009 -0.1201 -0.2146  0.4037
 9164TIP3    H148907   4.146   6.762   5.061  0.3937 -1.0768  0.0709
 9164TIP3    H248908   4.067   6.642   5.014 -0.7343 -0.2339 -0.2174
 9165TIP3   OH248909   4.586   4.050   0.232  0.1443  1.3727  0.1565
 9165TIP3    H148910   4.513   4.048   0.293  0.2809 -0.5523  0.3109
 9165TIP3    H248911   4.547   4.082   0.150 -0.4129  2.2943  0.7619
 9166TIP3   OH248912   4.969   4.385   0.269 -0.4074 -0.4495 -0.1957
 9166TIP3    H148913   5.036   4.351   0.209 -1.6289 -0.7602 -1.4149
 9166TIP3    H248914   4.907   4.430   0.212 -0.9952  0.2488  0.9796
 9167TIP3   OH248915   0.400   6.633  12.738  0.2568  0.0106  0.2969
 9167TIP3    H148916   0.411   6.576  12.663  0.7181 -0.4043  0.6670
 9167TIP3    H248917   0.366   6.715  12.702 -2.3904 -1.1307 -0.0186
 9168TIP3   OH248918   0.343   5.368   5.023  0.2765  0.5021 -0.0452
 9168TIP3    H148919   0.412   5.382   5.088 -0.4870 -0.3235  0.9777
 9168TIP3    H248920   0.350   5.442   4.964  2.2115  0.2904 -0.1222
 9169TIP3   OH248921   2.987   5.564  14.452 -0.2907 -0.0130  0.1634
 9169TIP3    H148922   2.938   5.611  14.384 -0.7119 -1.2244 -0.3919
 9169TIP3    H248923   2.926   5.559  14.526 -0.1127  0.6096  0.3654
 9170TIP3   OH248924   5.673   0.777   0.545 -0.2771  0.0867  0.1484
 9170TIP3    H148925   5.657   0.833   0.469  0.8853 -0.1210 -0.2599
 9170TIP3    H248926   5.717   0.833   0.608 -0.8844  0.1491  0.5328
 9171TIP3   OH248927   0.335   5.195   1.290  0.1534 -0.1502  0.3700
 9171TIP3    H148928   0.306   5.178   1.200  1.9894  0.2437 -0.3471
 9171TIP3    H248929   0.328   5.290   1.299  0.4596 -0.1391  0.4746
 9172TIP3   OH248930   2.821   6.306  11.506 -0.0085 -0.2174 -0.6759
 9172TIP3    H148931   2.866   6.317  11.590  1.0197 -0.3585 -1.1933
 9172TIP3    H248932   2.737   6.265  11.529  0.3466 -0.4406  0.2589
 9173TIP3   OH248933   4.746   4.478   3.199 -0.4526  0.1548  1.0574
 9173TIP3    H148934   4.744   4.537   3.274 -0.4733 -1.4721  2.3933
 9173TIP3    H248935   4.654   4.469   3.173 -0.4375  0.7858  0.7748
 9174TIP3   OH248936   4.262   4.702  14.818  0.3416 -0.4128  0.0124
 9174TIP3    H148937   4.195   4.680  14.882 -1.0564 -0.1282 -1.3158
 9174TIP3    H248938   4.268   4.624  14.762 -1.0815  0.6359 -1.6939
 9175TIP3   OH248939   5.125   2.005   0.844  0.0499  0.7519 -0.9182
 9175TIP3    H148940   5.144   2.030   0.754 -1.9870  1.6260 -1.1700
 9175TIP3    H248941   5.038   1.966   0.840 -0.7871  2.2468  0.8642
 9176TIP3   OH248942   2.378   0.414  11.816  0.2567  0.1303  0.7000
 9176TIP3    H148943   2.351   0.334  11.771 -1.3462 -0.6207  2.8464
 9176TIP3    H248944   2.387   0.479  11.747  0.2692 -1.5497 -0.9441
 9177TIP3   OH248945   0.562   0.060   4.680  0.0615  0.1210  0.2383
 9177TIP3    H148946   0.532   0.144   4.713  0.4006 -0.7228  2.8987
 9177TIP3    H248947   0.485   0.021   4.640 -0.0868  1.6567 -1.1051
 9178TIP3   OH248948   0.228   2.457  10.963 -0.0547  0.2747 -0.0876
 9178TIP3    H148949   0.295   2.518  10.995  0.0191  0.4360 -0.5484
 9178TIP3    H248950   0.145   2.495  10.993 -0.0117  0.6237 -0.3995
 9179TIP3   OH248951   0.404   0.141   2.550 -0.3307 -0.0448 -0.0701
 9179TIP3    H148952   0.440   0.228   2.569  2.4796 -1.2234  0.4449
 9179TIP3    H248953   0.474   0.095   2.504 -2.6675 -1.2743 -2.7735
 9180TIP3   OH248954   3.432   5.855   0.180 -0.1448 -0.3445  0.3851
 9180TIP3    H148955   3.512   5.808   0.156  1.0376  1.3124  0.8697
 9180TIP3    H248956   3.363   5.789   0.175  1.4263 -2.1581  1.1566
 9181TIP3   OH248957   2.320   0.537  11.226 -0.0038  0.3596 -0.0598
 9181TIP3    H148958   2.266   0.595  11.172 -0.9942 -0.2075  0.3059
 9181TIP3    H248959   2.409   0.552  11.194 -0.3852  1.1848 -0.7910
 9182TIP3   OH248960   4.323   4.748   2.771  0.5563  0.5527 -0.4578
 9182TIP3    H148961   4.321   4.671   2.713  0.8231  0.9082 -0.9491
 9182TIP3    H248962   4.407   4.742   2.816  0.2832  0.1932  0.0199
 9183TIP3   OH248963   3.266   5.391  17.134  0.3224  0.0149  0.1450
 9183TIP3    H148964   3.191   5.448  17.150  1.4387  1.5489  0.1208
 9183TIP3    H248965   3.234   5.325  17.071 -1.3612 -0.2194  1.1995
 9184TIP3   OH248966   2.595   0.172  12.659 -0.2747  0.0824 -0.0930
 9184TIP3    H148967   2.598   0.166  12.563 -1.7824  1.8524 -0.3042
 9184TIP3    H248968   2.685   0.157  12.686  0.1176 -0.8441 -1.7500
 9185TIP3   OH248969   6.522   0.335   0.975 -0.1345  0.1469  0.1113
 9185TIP3    H148970   6.602   0.333   0.922 -0.1232 -0.4307  0.1380
 9185TIP3    H248971   6.537   0.405   1.038  0.0777  0.4835 -0.3088
 9186TIP3   OH248972   4.310   5.736  12.611  0.1487  0.3783  0.2298
 9186TIP3    H148973   4.233   5.743  12.555  0.4002 -0.1869 -0.1880
 9186TIP3    H248974   4.371   5.801  12.576  0.3531 -0.0581 -0.2347
 9187TIP3   OH248975   3.015   5.077  16.949  0.7710  0.3618 -0.6279
 9187TIP3    H148976   2.958   5.032  16.887  0.5554 -0.2794  0.0164
 9187TIP3    H248977   3.016   5.168  16.920 -1.8313  0.7410  0.2123
 9188TIP3   OH248978   1.857   3.208  16.645  0.4982 -0.5088 -0.1519
 9188TIP3    H148979   1.818   3.168  16.567  1.1651  0.0845 -0.8036
 9188TIP3    H248980   1.902   3.135  16.689 -0.8433 -1.0802  0.3078
 9189TIP3   OH248981   1.205   5.151  11.992  0.6165 -1.0366  0.1527
 9189TIP3    H148982   1.115   5.177  11.973  0.4829 -1.0334  0.7925
 9189TIP3    H248983   1.243   5.225  12.038  2.1012  0.5464 -3.2472
 9190TIP3   OH248984   3.595   5.898  14.560 -0.1596  0.3725 -0.0811
 9190TIP3    H148985   3.576   5.808  14.534 -0.5841 -0.2381  2.0889
 9190TIP3    H248986   3.509   5.940  14.566 -0.2499  0.0405  1.6530
 9191TIP3   OH248987   3.934   4.447  12.850  0.4021  0.2175 -0.1437
 9191TIP3    H148988   3.861   4.506  12.834  0.1839  0.3029  1.0368
 9191TIP3    H248989   3.936   4.389  12.774 -1.3954 -0.2928  0.1556
 9192TIP3   OH248990   5.326   5.949   6.204  0.4775  0.5436 -0.3349
 9192TIP3    H148991   5.408   5.952   6.253  0.4303  0.6890 -0.2632
 9192TIP3    H248992   5.293   6.039   6.206 -0.5017  0.1981  1.0117
 9193TIP3   OH248993   3.200   4.575   1.928  0.0081 -0.2343 -0.1077
 9193TIP3    H148994   3.292   4.585   1.906 -0.1993 -0.2468 -1.0146
 9193TIP3    H248995   3.200   4.534   2.015  0.8719 -1.7373 -0.7770
 9194TIP3   OH248996   4.304   4.305   1.288 -0.0208  0.0571  0.1008
 9194TIP3    H148997   4.318   4.391   1.248  3.1425  0.3956  1.5989
 9194TIP3    H248998   4.326   4.242   1.219  1.3103  0.5662  0.0195
 9195TIP3   OH248999   1.364   1.718  13.855 -0.1601 -0.2619  0.5046
 9195TIP3    H149000   1.381   1.811  13.870 -0.0152 -0.2869  0.4935
 9195TIP3    H249001   1.284   1.717  13.802 -0.1111 -0.1409  0.4286
 9196TIP3   OH249002   3.856   2.120   3.191 -0.2164 -0.1101  0.6073
 9196TIP3    H149003   3.935   2.081   3.153  0.1311  0.8156  0.3403
 9196TIP3    H249004   3.885   2.204   3.226 -1.3800  1.0444 -1.0195
 9197TIP3   OH249005   2.951   2.746  14.794  0.1310 -0.3464  0.1964
 9197TIP3    H149006   2.962   2.706  14.880  3.0688 -0.6158 -0.1958
 9197TIP3    H249007   3.005   2.826  14.798 -1.8469  1.1116 -0.5653
 9198TIP3   OH249008   5.332   4.157  17.116  0.1936 -0.6109  0.4139
 9198TIP3    H149009   5.345   4.244  17.154 -1.0985 -0.9825  1.8092
 9198TIP3    H249010   5.367   4.096  17.182 -0.0325 -1.1968  0.0007
 9199TIP3   OH249011   5.583   4.749  13.474 -0.3493 -1.3534  0.1215
 9199TIP3    H149012   5.668   4.733  13.516 -1.0951  0.4978  2.5531
 9199TIP3    H249013   5.520   4.704  13.531 -1.2666 -0.0026  0.1983
 9200TIP3   OH249014   0.166   5.882  11.726  0.1058  0.1925  0.2008
 9200TIP3    H149015   0.167   5.812  11.661 -0.9314  0.1079  0.2646
 9200TIP3    H249016   0.185   5.838  11.809  0.4576  0.1463  0.0957
 9201TIP3   OH249017   2.433   0.569  16.923  0.6558  0.1960  0.2530
 9201TIP3    H149018   2.455   0.612  17.005 -3.1651  1.0312  1.0145
 9201TIP3    H249019   2.425   0.640  16.859  2.0355 -0.2834 -0.4902
 9202TIP3   OH249020   2.463   6.633   2.436  0.6242  0.5078  0.4888
 9202TIP3    H149021   2.477   6.588   2.520  0.9949  1.7469  1.1076
 9202TIP3    H249022   2.382   6.596   2.403  0.2972  0.2271  1.5521
 9203TIP3   OH249023   5.028   0.375  14.156  0.0554  0.0454 -0.2509
 9203TIP3    H149024   4.933   0.372  14.145 -0.2038 -0.8768  1.8072
 9203TIP3    H249025   5.048   0.468  14.163 -0.5617  0.2945 -1.4810
 9204TIP3   OH249026   4.269   4.080  12.909  0.0774 -0.2111 -0.6846
 9204TIP3    H149027   4.308   4.167  12.922 -0.2588  0.2568 -2.4561
 9204TIP3    H249028   4.298   4.029  12.984  0.1343  1.4810  0.5048
 9205TIP3   OH249029   1.645   1.713   1.610  0.0969 -0.1123  0.3302
 9205TIP3    H149030   1.661   1.691   1.519  0.3458 -1.2732  0.6334
 9205TIP3    H249031   1.571   1.774   1.608  1.6273  1.7935 -0.7811
 9206TIP3   OH249032   0.140   2.991  15.565 -0.4854 -0.1010 -0.7260
 9206TIP3    H149033   0.177   3.022  15.647 -0.1368  1.0485 -1.3041
 9206TIP3    H249034   0.215   2.961  15.514 -0.5715  0.3024 -1.0920
 9207TIP3   OH249035   2.070   4.851  16.739 -0.1157 -0.0364  0.2840
 9207TIP3    H149036   2.151   4.892  16.770 -0.4781 -0.2647  1.5826
 9207TIP3    H249037   2.091   4.758  16.734 -0.3016 -0.0960  0.6256
 9208TIP3   OH249038   6.489   1.474  16.922  0.4554  0.1454 -0.3104
 9208TIP3    H149039   6.583   1.491  16.935  0.8567 -0.7493 -1.8107
 9208TIP3    H249040   6.483   1.379  16.916 -0.8083  0.0835  1.3634
 9209TIP3   OH249041   1.977   0.046  16.505 -0.2218 -0.0964 -0.0323
 9209TIP3    H149042   1.920   0.012  16.573 -0.8083 -2.0321 -1.4340
 9209TIP3    H249043   1.920   0.063  16.430  0.6161  0.6616 -0.5335
 9210TIP3   OH249044   3.260   0.691  14.305 -0.3293 -0.6531 -0.2787
 9210TIP3    H149045   3.293   0.768  14.258 -0.3252 -1.6116 -1.9301
 9210TIP3    H249046   3.199   0.727  14.370 -0.2865  0.7422 -0.9687
 9211TIP3   OH249047   5.291   5.254  14.443 -1.2042  0.4378  0.0025
 9211TIP3    H149048   5.332   5.192  14.383 -1.6814  0.5509 -0.4436
 9211TIP3    H249049   5.249   5.199  14.509 -3.1283  0.1939 -1.3527
 9212TIP3   OH249050   6.657   1.607  13.999 -0.2396  0.4099  0.7306
 9212TIP3    H149051   6.645   1.518  13.966  1.9919 -0.5534  2.3009
 9212TIP3    H249052   6.717   1.647  13.936  1.6689 -0.4559  1.9341
 9213TIP3   OH249053   2.657   5.849  16.733  0.0698  0.0905  0.0783
 9213TIP3    H149054   2.576   5.894  16.758  1.1931  1.0214  2.3610
 9213TIP3    H249055   2.714   5.920  16.701 -0.1046 -0.6139 -1.9400
 9214TIP3   OH249056   0.897   4.729   2.375 -0.1814 -0.3382  0.4454
 9214TIP3    H149057   0.862   4.746   2.288 -1.6914 -1.1673  0.8484
 9214TIP3    H249058   0.821   4.737   2.433  0.6973 -0.2972  1.6204
 9215TIP3   OH249059   1.299   0.276   5.544  0.0862  0.4237 -0.1476
 9215TIP3    H149060   1.249   0.258   5.623 -0.4476 -3.8516 -1.2303
 9215TIP3    H249061   1.388   0.294   5.575  0.3145 -2.8969  1.5201
 9216TIP3   OH249062   0.705   6.227   1.827  0.8369  0.0239  0.0272
 9216TIP3    H149063   0.786   6.263   1.791  1.6024  1.1241  2.5821
 9216TIP3    H249064   0.635   6.267   1.776  1.8486  0.1705 -1.2897
 9217TIP3   OH249065   1.723   1.099   0.843  0.4817  0.2059  0.1723
 9217TIP3    H149066   1.700   1.177   0.792  0.5881  0.5795  0.6919
 9217TIP3    H249067   1.650   1.088   0.905  0.3108 -0.2962 -0.1061
 9218TIP3   OH249068   5.922   1.120  11.145 -0.2434  0.4155 -0.0435
 9218TIP3    H149069   5.828   1.102  11.136 -0.5599  1.0885  1.5945
 9218TIP3    H249070   5.951   1.063  11.216  1.1800 -1.6231 -2.1378
 9219TIP3   OH249071   0.825   5.008   5.243 -0.0858 -0.4591  0.3996
 9219TIP3    H149072   0.872   4.944   5.296 -0.1636  1.6661  3.2425
 9219TIP3    H249073   0.883   5.084   5.239 -1.2475  0.4219 -0.2479
 9220TIP3   OH249074   4.628   1.968  12.121  0.2042  0.5022  0.1255
 9220TIP3    H149075   4.564   1.906  12.156 -0.5775  0.2037 -1.7084
 9220TIP3    H249076   4.576   2.045  12.098  0.8219  0.9854  0.2964
 9221TIP3   OH249077   0.793   3.350  15.520 -0.3240 -0.7693  0.5554
 9221TIP3    H149078   0.847   3.283  15.478 -0.7098 -0.1249 -1.0857
 9221TIP3    H249079   0.761   3.404  15.447  1.1252  2.0849  1.8700
 9222TIP3   OH249080   1.663   5.743   1.462  0.0596 -0.2666  0.8461
 9222TIP3    H149081   1.608   5.697   1.399  1.5784 -0.0443 -0.7337
 9222TIP3    H249082   1.687   5.676   1.527  0.6018 -1.2219 -0.3070
 9223TIP3   OH249083   0.604   6.236  14.500  0.5505 -0.1840  0.8106
 9223TIP3    H149084   0.622   6.322  14.462 -0.2833 -0.5738 -0.5498
 9223TIP3    H249085   0.690   6.194  14.503  0.6543 -0.1811 -0.8614
 9224TIP3   OH249086   2.454   2.996   3.732  0.5479  0.1896 -0.4925
 9224TIP3    H149087   2.447   2.950   3.815 -1.7701 -1.5131 -1.5232
 9224TIP3    H249088   2.436   3.088   3.754 -0.3695 -0.2819  0.8354
 9225TIP3   OH249089   6.059   1.103  15.994 -0.5609  0.0377  0.6632
 9225TIP3    H149090   6.087   1.193  15.977 -1.1344  0.0386 -0.3295
 9225TIP3    H249091   6.084   1.055  15.915 -0.4054 -0.6500  1.1247
 9226TIP3   OH249092   4.542   0.169  14.639 -0.5943  0.4496 -0.3722
 9226TIP3    H149093   4.558   0.079  14.667 -0.3650  0.6611  0.1996
 9226TIP3    H249094   4.452   0.168  14.606 -0.5786  0.0011 -0.4137
 9227TIP3   OH249095   1.638   5.725  12.020 -0.9829  0.2384 -0.0306
 9227TIP3    H149096   1.664   5.805  12.066  0.3097  0.4487 -1.0834
 9227TIP3    H249097   1.625   5.752  11.929 -0.0452 -0.8254 -0.5096
 9228TIP3   OH249098   6.572   1.923   5.655  0.4730  0.1125 -0.4713
 9228TIP3    H149099   6.653   1.949   5.610 -0.7012  1.7902 -1.7417
 9228TIP3    H249100   6.601   1.861   5.722  2.7261  0.1782 -1.2922
 9229TIP3   OH249101   2.195   2.912   1.015 -0.1967 -0.0350 -0.4840
 9229TIP3    H149102   2.248   2.965   1.074  0.3122  0.3389 -1.2633
 9229TIP3    H249103   2.124   2.970   0.988  0.4250  0.2871 -1.4278
 9230TIP3   OH249104   1.899   0.393   1.086  0.6766 -1.0223  0.0266
 9230TIP3    H149105   1.938   0.349   1.009  0.8377 -1.0444  0.1199
 9230TIP3    H249106   1.818   0.430   1.053  0.5872 -1.3057 -0.0810
 9231TIP3   OH249107   5.168   1.327  16.979  0.3337  0.8231  0.7358
 9231TIP3    H149108   5.210   1.410  17.000  1.6449  0.3859 -0.0921
 9231TIP3    H249109   5.226   1.261  17.016  0.1191  0.2242  0.0241
 9232TIP3   OH249110   0.943   4.352   4.794  0.6526 -0.0070  0.1202
 9232TIP3    H149111   0.977   4.423   4.848  0.7169  0.7725 -0.9298
 9232TIP3    H249112   0.855   4.337   4.827  0.9377 -0.0140  0.8937
 9233TIP3   OH249113   5.994   2.025   4.676 -0.1129 -1.1147  0.6028
 9233TIP3    H149114   5.921   2.034   4.738 -1.2483 -0.2953 -0.7971
 9233TIP3    H249115   5.975   1.945   4.627 -0.9943 -0.0464 -0.8746
 9234TIP3   OH249116   3.430   2.949  11.495  0.1330  0.9352  0.1671
 9234TIP3    H149117   3.361   2.891  11.461  0.0914  1.2137 -0.2427
 9234TIP3    H249118   3.428   2.937  11.589 -0.7654  1.2400  0.2030
 9235TIP3   OH249119   2.528   6.481   2.677 -0.0260 -0.0524  0.4216
 9235TIP3    H149120   2.504   6.550   2.739  2.8041  0.9582  0.5103
 9235TIP3    H249121   2.622   6.470   2.688 -0.1107 -2.8610 -0.7389
 9236TIP3   OH249122   0.278   1.538   3.061  0.1565 -0.4933 -0.0846
 9236TIP3    H149123   0.372   1.557   3.055 -0.1032  0.7763 -0.2913
 9236TIP3    H249124   0.249   1.535   2.970  0.0595 -1.2503 -0.0317
 9237TIP3   OH249125   1.475   2.661   6.093 -0.0443 -0.1148  0.1855
 9237TIP3    H149126   1.429   2.727   6.041  2.2013  1.5448  0.1155
 9237TIP3    H249127   1.447   2.678   6.183 -0.7308 -0.1603 -0.0184
 9238TIP3   OH249128   2.760   6.321   0.612  0.0969 -0.4670  0.2867
 9238TIP3    H149129   2.719   6.299   0.696 -2.5559  1.7813 -0.2622
 9238TIP3    H249130   2.849   6.347   0.635 -1.0659  1.8325  2.7685
 9239TIP3   OH249131   4.579   1.644  15.428  0.1286 -0.3719  0.5373
 9239TIP3    H149132   4.560   1.564  15.477  0.6103 -1.1790 -0.5441
 9239TIP3    H249133   4.604   1.613  15.341  1.8655  0.8625  0.5505
 9240TIP3   OH249134   4.776   6.405  13.682  0.1451  0.6885  0.2838
 9240TIP3    H149135   4.715   6.403  13.756 -0.4599 -0.8370 -0.2115
 9240TIP3    H249136   4.850   6.351  13.709 -0.1901 -0.0814 -0.2859
 9241TIP3   OH249137   0.126   4.970   4.876  0.7202  0.0967  0.2853
 9241TIP3    H149138   0.071   4.976   4.954  1.2784 -0.7237  0.7726
 9241TIP3    H249139   0.079   5.018   4.808  0.5031  1.3369  1.2872
 9242TIP3   OH249140   3.003   0.211   0.777  0.2050 -0.4973 -0.5009
 9242TIP3    H149141   3.035   0.147   0.841 -0.3780 -0.9169 -0.6088
 9242TIP3    H249142   3.057   0.288   0.790  0.1295 -0.5931  0.4694
 9243TIP3   OH249143   3.709   0.034   2.977  0.3935 -0.1641 -0.1018
 9243TIP3    H149144   3.631   0.085   2.955  1.2396  0.7919 -0.9982
 9243TIP3    H249145   3.696   0.010   3.069 -2.1856 -2.3508 -0.9368
 9244TIP3   OH249146   2.318   4.019   1.874  0.8080  0.2480  0.4503
 9244TIP3    H149147   2.304   3.981   1.787  0.4443 -1.0610  1.0506
 9244TIP3    H249148   2.381   3.959   1.916  0.7037  0.6626  1.2183
 9245TIP3   OH249149   5.280   4.369   5.116  0.1440  0.4216  0.2678
 9245TIP3    H149150   5.269   4.274   5.111 -2.0085  0.6124  0.1515
 9245TIP3    H249151   5.297   4.387   5.208  0.6401 -0.0706  0.2775
 9246TIP3   OH249152   0.170   1.382  16.791  0.4994 -0.0375  0.3521
 9246TIP3    H149153   0.131   1.469  16.786  0.7545  0.1349  1.2998
 9246TIP3    H249154   0.237   1.382  16.723  0.1856  0.3421  0.0367
 9247TIP3   OH249155   0.865   6.310   4.256  0.0847  0.2917 -0.2512
 9247TIP3    H149156   0.922   6.284   4.329  2.5374  3.6183 -0.7175
 9247TIP3    H249157   0.801   6.369   4.296 -2.4461 -2.4435  0.0427
 9248TIP3   OH249158   5.318   1.494   5.635 -0.1793 -0.6485 -0.7786
 9248TIP3    H149159   5.227   1.514   5.656 -0.1003 -0.7684 -0.3001
 9248TIP3    H249160   5.315   1.453   5.549 -0.3813  1.0259 -1.5889
 9249TIP3   OH249161   3.640   6.324   0.654 -0.2197 -0.6303  0.0309
 9249TIP3    H149162   3.633   6.242   0.605  0.6338 -0.6919 -0.0014
 9249TIP3    H249163   3.697   6.379   0.601 -1.0519  0.1217 -0.1146
 9250TIP3   OH249164   6.028   0.496   0.989  0.3835  0.0852 -0.7016
 9250TIP3    H149165   5.962   0.426   0.991 -1.8865  2.0559 -0.9991
 9250TIP3    H249166   6.098   0.462   0.933 -0.7646 -1.8189 -1.0783
 9251TIP3   OH249167   3.590   1.310   3.592  0.8013  0.4067  0.5878
 9251TIP3    H149168   3.679   1.345   3.588  0.1726  1.9714 -2.3416
 9251TIP3    H249169   3.593   1.229   3.541  0.7321 -0.0512  1.3016
 9252TIP3   OH249170   0.599   6.359  14.940  0.2754 -0.3671 -0.2464
 9252TIP3    H149171   0.615   6.452  14.960  0.7489 -0.9332  2.2312
 9252TIP3    H249172   0.660   6.340  14.868  1.2059  0.8790  0.1734
 9253TIP3   OH249173   6.271   3.868  10.828 -0.0688  0.0429  0.1384
 9253TIP3    H149174   6.337   3.801  10.811 -0.4307 -0.6721  1.4042
 9253TIP3    H249175   6.282   3.930  10.756  2.4136  0.3045  0.6325
 9254TIP3   OH249176   5.887   2.200  12.725 -0.0137 -0.1035 -0.1581
 9254TIP3    H149177   5.961   2.257  12.746 -1.2423  1.0330  1.3142
 9254TIP3    H249178   5.812   2.259  12.720 -1.2057 -1.4854  0.6513
 9255TIP3   OH249179   3.369   6.027  13.027  0.2752  0.3492  0.4275
 9255TIP3    H149180   3.312   6.073  13.089  0.7637  1.1744  0.2807
 9255TIP3    H249181   3.445   6.084  13.019  1.1730 -0.7785  0.6963
 9256TIP3   OH249182   1.107   5.445   4.749 -0.3993 -0.7365  0.0560
 9256TIP3    H149183   1.029   5.455   4.695 -0.4346 -2.2914 -0.2338
 9256TIP3    H249184   1.172   5.404   4.691  0.0624 -1.0294  0.7572
 9257TIP3   OH249185   5.323   6.658  14.896 -0.1652 -0.3620 -0.0927
 9257TIP3    H149186   5.344   6.565  14.886 -1.1493 -0.4977 -1.0590
 9257TIP3    H249187   5.358   6.699  14.817  0.9158  0.2259  0.6695
 9258TIP3   OH249188   6.179   3.986  16.535 -0.2984 -0.4688  0.6080
 9258TIP3    H149189   6.151   3.935  16.612 -0.5103 -0.1970  0.7133
 9258TIP3    H249190   6.154   4.076  16.556  0.6770 -0.2137  0.7144
 9259TIP3   OH249191   0.585   1.022   2.497 -0.4050 -0.3089 -0.0537
 9259TIP3    H149192   0.576   0.929   2.480  0.6871 -0.5060  0.3397
 9259TIP3    H249193   0.516   1.041   2.561  0.2135 -1.1455  0.8905
 9260TIP3   OH249194   3.078   1.501   3.928 -0.0248 -0.4301  0.0693
 9260TIP3    H149195   3.014   1.533   3.865 -1.8109  0.9058  2.3808
 9260TIP3    H249196   3.065   1.407   3.930 -0.3799 -0.4154 -1.0720
 9261TIP3   OH249197   0.450   2.532   0.525  0.1229 -0.0304 -0.0678
 9261TIP3    H149198   0.531   2.544   0.575  0.5980  2.7067 -1.3049
 9261TIP3    H249199   0.471   2.566   0.438 -2.4189  1.1025 -0.3168
 9262TIP3   OH249200   1.103   0.999   0.037  0.0852 -0.1511  0.0354
 9262TIP3    H149201   1.108   1.088   0.072 -1.1341  1.7856 -4.1209
 9262TIP3    H249202   1.194   0.970   0.032  0.4843  0.6588  1.7709
 9263TIP3   OH249203   4.791   6.019   2.307  0.8865  0.5126  0.2599
 9263TIP3    H149204   4.810   5.928   2.284  1.0755  0.2554  1.3437
 9263TIP3    H249205   4.719   6.013   2.370 -1.1359  1.3298 -1.8485
 9264TIP3   OH249206   2.000   0.980  15.909 -0.5460  0.0665 -0.4003
 9264TIP3    H149207   2.070   0.987  15.844  1.1572  2.7806  1.5306
 9264TIP3    H249208   1.936   1.046  15.881 -1.9318 -1.6652 -1.5500
 9265TIP3   OH249209   6.200   3.697  12.821 -0.5048  0.0177  0.4920
 9265TIP3    H149210   6.257   3.760  12.776  0.0144 -1.9649 -1.8504
 9265TIP3    H249211   6.118   3.745  12.835  0.0536  1.3947 -0.7099
 9266TIP3   OH249212   3.992   1.299  14.894 -0.4076 -0.1324 -0.1302
 9266TIP3    H149213   3.909   1.336  14.865  0.3925  1.7887 -0.1694
 9266TIP3    H249214   4.042   1.375  14.925  1.7130 -1.0565 -1.0744
 9267TIP3   OH249215   0.802   0.939   2.654 -0.1125  0.7984 -0.5854
 9267TIP3    H149216   0.736   0.976   2.595 -0.1153 -0.2629 -1.2863
 9267TIP3    H249217   0.861   1.012   2.673 -0.9594  1.5279 -0.6960
 9268TIP3   OH249218   3.712   5.865  16.193 -0.3605  0.7286  0.4541
 9268TIP3    H149219   3.688   5.877  16.285 -1.2207  1.1683  0.1867
 9268TIP3    H249220   3.777   5.795  16.194  0.6509  1.6525  1.5285
 9269TIP3   OH249221   0.240   0.844  15.395 -0.6770 -0.0946 -0.1632
 9269TIP3    H149222   0.163   0.862  15.342 -1.7623  0.0490  1.3763
 9269TIP3    H249223   0.229   0.754  15.425 -0.2731 -0.0525  0.1252
 9270TIP3   OH249224   1.142   3.798  16.537  0.2712 -0.2727  0.3514
 9270TIP3    H149225   1.203   3.814  16.609  2.1361  1.7035 -1.5016
 9270TIP3    H249226   1.064   3.849  16.561 -0.7017 -2.6112  2.6246
 9271TIP3   OH249227   2.618   1.692   1.925 -0.2802 -0.4258  0.4171
 9271TIP3    H149228   2.634   1.716   2.016  0.0319  0.0387  0.2418
 9271TIP3    H249229   2.553   1.622   1.930 -0.2196 -0.4468  0.9985
 9272TIP3   OH249230   1.988   3.427  15.898 -0.2284  0.3127 -0.1172
 9272TIP3    H149231   1.953   3.515  15.884 -0.1925  0.4452  0.6156
 9272TIP3    H249232   2.060   3.439  15.960  0.2076 -0.1506 -0.5146
 9273TIP3   OH249233   5.085   6.622  15.081 -0.1325  0.0270 -0.0403
 9273TIP3    H149234   5.127   6.546  15.124  1.4552  0.8290 -0.0911
 9273TIP3    H249235   5.157   6.667  15.037 -0.8422  2.1622  0.8494
 9274TIP3   OH249236   1.553   1.920   2.873  0.8480 -0.3561  0.3409
 9274TIP3    H149237   1.522   1.947   2.787 -0.4007 -1.6369  0.3563
 9274TIP3    H249238   1.643   1.890   2.858  0.5324 -0.8635 -0.5652
 9275TIP3   OH249239   4.303   4.482   3.932 -0.9424  0.1366  0.3649
 9275TIP3    H149240   4.328   4.393   3.956  0.1294  0.1610 -0.5776
 9275TIP3    H249241   4.382   4.520   3.894 -1.4972  1.3623  0.3736
 9276TIP3   OH249242   2.106   1.495   0.539 -0.1890 -0.1262 -0.1665
 9276TIP3    H149243   2.048   1.550   0.593 -0.8152 -0.4462 -0.4941
 9276TIP3    H249244   2.186   1.547   0.529  0.3669 -0.4760  1.9146
 9277TIP3   OH249245   5.126   1.084   0.442 -0.7475  0.6311  0.4454
 9277TIP3    H149246   5.151   1.043   0.525  0.4684  1.5106  0.5237
 9277TIP3    H249247   5.123   1.011   0.380  0.2971  0.2454  0.8256
 9278TIP3   OH249248   3.076   5.024   3.049  0.0923 -0.3290 -0.1506
 9278TIP3    H149249   3.048   5.074   2.971 -2.4067 -0.4922  0.5638
 9278TIP3    H249250   3.163   5.059   3.069 -0.1120  1.2636 -1.7284
 9279TIP3   OH249251   4.689   0.815   2.013  0.1903  0.4480 -0.2805
 9279TIP3    H149252   4.612   0.774   2.053  1.4556 -1.4415  0.3528
 9279TIP3    H249253   4.761   0.793   2.072  1.2857  2.0068 -0.9518
 9280TIP3   OH249254   0.722   0.416   0.991  0.5517 -0.3058  0.1892
 9280TIP3    H149255   0.723   0.328   1.028  1.4906 -0.0820  0.7247
 9280TIP3    H249256   0.750   0.473   1.062 -1.7594  0.6782  0.3921
 9281TIP3   OH249257   4.761   5.460   2.044 -0.1759  0.5181  0.3877
 9281TIP3    H149258   4.738   5.387   2.101  0.8376 -0.7414 -0.7377
 9281TIP3    H249259   4.677   5.498   2.018 -0.7642 -0.7189  0.4196
 9282TIP3   OH249260   4.623   0.474  16.998  0.2319 -0.6254  0.3260
 9282TIP3    H149261   4.538   0.468  16.954 -0.6427  2.0830  1.4268
 9282TIP3    H249262   4.666   0.549  16.957  1.2255 -0.7376  1.1293
 9283TIP3   OH249263   4.176   6.672   3.940 -0.5666  0.3150  0.0003
 9283TIP3    H149264   4.133   6.751   3.973 -1.0343  1.5723 -3.2284
 9283TIP3    H249265   4.111   6.632   3.883  1.3985  0.5551 -2.5639
 9284TIP3   OH249266   4.523   6.201   3.397  0.3834  0.2839 -0.0530
 9284TIP3    H149267   4.618   6.195   3.398  0.4007 -0.0888 -1.2640
 9284TIP3    H249268   4.496   6.137   3.330 -0.8344 -0.9798  1.5546
 9285TIP3   OH249269   4.514   3.513   3.482 -0.5385  0.3554  0.2901
 9285TIP3    H149270   4.482   3.511   3.572  0.4011 -0.5830  0.6299
 9285TIP3    H249271   4.436   3.518   3.428 -1.1681 -0.1424  1.1375
 9286TIP3   OH249272   1.581   3.578   5.762 -0.6916 -0.2837  0.1859
 9286TIP3    H149273   1.653   3.553   5.820 -1.6416  0.8881  1.9512
 9286TIP3    H249274   1.584   3.673   5.759 -0.3235 -0.3154 -2.2218
 9287TIP3   OH249275   0.610   3.849  16.845  0.2718 -0.2245  0.3333
 9287TIP3    H149276   0.591   3.790  16.918  0.7814 -0.0441  0.6217
 9287TIP3    H249277   0.572   3.933  16.872 -1.1564 -0.5905 -0.4272
 9288TIP3   OH249278   0.850   2.396  15.970  0.0726  0.0701 -0.0611
 9288TIP3    H149279   0.907   2.334  16.015 -0.5517 -0.2004  0.3718
 9288TIP3    H249280   0.910   2.461  15.933  0.6085  0.3264  1.2006
 9289TIP3   OH249281   1.315   0.443  15.893 -0.2058  0.0927 -0.4713
 9289TIP3    H149282   1.366   0.415  15.968  2.0100  2.0019 -1.1577
 9289TIP3    H249283   1.331   0.376  15.826 -0.2415 -0.3557 -0.0349
 9290TIP3   OH249284   3.172   1.406   3.554 -0.2239 -0.7375  0.1807
 9290TIP3    H149285   3.234   1.374   3.620 -0.6200 -0.1677  0.8396
 9290TIP3    H249286   3.191   1.500   3.548 -0.9426 -0.5839  0.2974
 9291TIP3   OH249287   3.694   1.435   4.079 -0.0669  0.1407  0.5461
 9291TIP3    H149288   3.711   1.359   4.025  1.2326  0.5907  0.3000
 9291TIP3    H249289   3.600   1.431   4.097 -0.3197 -0.6189 -0.8148
 9292TIP3   OH249290   3.653   0.323   4.645  0.5765  0.3289 -0.3524
 9292TIP3    H149291   3.689   0.285   4.566 -1.2804 -1.9966 -0.1640
 9292TIP3    H249292   3.724   0.317   4.709  1.3385  0.1535 -1.1992
 9293TIP3   OH249293   2.482   5.784  15.855 -0.7334 -0.7473 -0.2381
 9293TIP3    H149294   2.524   5.700  15.869  0.5517 -0.3026 -1.2400
 9293TIP3    H249295   2.429   5.772  15.776 -0.4416 -0.5784 -0.4601
 9294TIP3   OH249296   4.709   2.841   2.517 -0.1423 -0.1156  0.2217
 9294TIP3    H149297   4.625   2.852   2.562 -0.2728 -0.6970  0.1332
 9294TIP3    H249298   4.708   2.907   2.448 -0.1716  0.4247  0.7235
 9295TIP3   OH249299   5.422   2.140  14.944 -0.5145  0.4084  0.0327
 9295TIP3    H149300   5.339   2.182  14.969 -0.2904  0.0967  1.4176
 9295TIP3    H249301   5.425   2.061  14.998 -0.3701 -0.7847 -1.6759
 9296TIP3   OH249302   0.697   3.456  14.904 -0.1457  1.0067  0.1842
 9296TIP3    H149303   0.641   3.534  14.900 -2.1946 -0.3068  1.3816
 9296TIP3    H249304   0.651   3.391  14.851  1.1800  0.3668 -0.2264
 9297TIP3   OH249305   3.885   4.875  13.567  0.4258 -0.3726 -0.1950
 9297TIP3    H149306   3.970   4.832  13.554  0.1019 -0.7884 -1.0434
 9297TIP3    H249307   3.830   4.839  13.497 -1.2695 -2.1911  1.9180
 9298TIP3   OH249308   4.390   3.374   3.128 -0.0202 -0.3398  1.0462
 9298TIP3    H149309   4.297   3.394   3.114  0.4120  1.1475  0.1308
 9298TIP3    H249310   4.389   3.298   3.187 -1.8192 -1.0619  0.1724
 9299TIP3   OH249311   0.506   0.051   0.048  0.3025  0.1001  0.4206
 9299TIP3    H149312   0.555   0.133   0.050 -0.8019  0.7692  1.3681
 9299TIP3    H249313   0.551  -0.002  -0.017  0.5965  1.7320 -0.7762
 9300TIP3   OH249314   0.285   0.867  16.654  0.6149 -0.0266  0.0684
 9300TIP3    H149315   0.294   0.891  16.746 -0.8286 -0.4652  0.3448
 9300TIP3    H249316   0.284   0.771  16.654  0.9206 -0.0331 -0.4397
 9301TIP3   OH249317   6.306   1.946   5.731  0.1584 -0.2040  0.3701
 9301TIP3    H149318   6.399   1.958   5.711  0.3426  1.8046  2.1281
 9301TIP3    H249319   6.306   1.903   5.817 -0.4962  0.8241  0.9012
 9302TIP3   OH249320   5.320   2.598   0.417  0.4350  0.0450  0.2393
 9302TIP3    H149321   5.335   2.654   0.340  1.0887  0.3779  0.5964
 9302TIP3    H249322   5.293   2.659   0.486  0.4351 -0.1727  0.4337
 9303TIP3   OH249323   1.311   1.812  16.220  0.6835  0.1710  0.5852
 9303TIP3    H149324   1.222   1.841  16.202  1.3834  1.3544 -1.2953
 9303TIP3    H249325   1.339   1.769  16.140  1.7196 -0.4385  1.2521
 9304TIP3   OH249326   6.671   6.610   3.124 -0.0955  0.4961 -0.4736
 9304TIP3    H149327   6.591   6.655   3.149 -1.5049 -1.5940 -0.9784
 9304TIP3    H249328   6.691   6.553   3.198  1.3530  1.4879 -0.0626
 9305TIP3   OH249329   1.278   4.864   1.825 -0.1957  0.1113  0.1416
 9305TIP3    H149330   1.209   4.807   1.792 -0.6313  0.0991  1.0564
 9305TIP3    H249331   1.248   4.953   1.806 -0.6071  0.1169  0.8082
 9306TIP3   OH249332   0.239   1.353   5.262  0.1227  0.0912 -0.0796
 9306TIP3    H149333   0.162   1.296   5.262  0.1400  0.0262  1.3968
 9306TIP3    H249334   0.228   1.408   5.339  1.7163 -0.1438  0.3420
 9307TIP3   OH249335   0.334   5.909  16.303 -0.1787  0.4802 -0.1896
 9307TIP3    H149336   0.247   5.874  16.322 -0.0519  0.1635 -0.1828
 9307TIP3    H249337   0.322   6.004  16.299 -0.6102  0.4074 -0.6328
 9308TIP3   OH249338   1.020   5.611   6.389 -0.0530  0.5663  0.2707
 9308TIP3    H149339   0.958   5.571   6.451  0.6309 -1.0052 -0.0264
 9308TIP3    H249340   1.106   5.588   6.423  0.3495  0.9831 -0.4469
 9309TIP3   OH249341   5.165   4.436  13.395 -0.1632  0.1417 -0.0148
 9309TIP3    H149342   5.207   4.433  13.309 -1.6722  1.4692 -0.8706
 9309TIP3    H249343   5.183   4.351  13.434  1.7593  0.0251 -1.0378
 9310TIP3   OH249344   1.415   0.451   4.116 -0.0326  0.3948 -0.2880
 9310TIP3    H149345   1.421   0.375   4.174  1.4416  1.0440  0.4569
 9310TIP3    H249346   1.461   0.521   4.163  0.0157  1.3097 -1.6419
 9311TIP3   OH249347   5.306   3.286  15.612 -0.3136  0.3625  0.0125
 9311TIP3    H149348   5.227   3.249  15.650  0.2836  1.0448  2.0335
 9311TIP3    H249349   5.284   3.300  15.520 -3.4752  2.9573  0.9946
 9312TIP3   OH249350   0.757   2.976  12.274 -0.3369 -0.1709 -0.4854
 9312TIP3    H149351   0.766   2.914  12.201 -0.1441  0.2967 -0.8631
 9312TIP3    H249352   0.821   3.045  12.254  0.5249 -0.6014  0.7000
 9313TIP3   OH249353   6.044   5.747  14.156  0.2183  0.1822  0.4091
 9313TIP3    H149354   5.955   5.714  14.149 -0.3837  1.5108  1.4024
 9313TIP3    H249355   6.099   5.675  14.125 -1.1545 -0.8606  0.3184
 9314TIP3   OH249356   2.899   2.156  16.867  0.0173  0.4194  0.6957
 9314TIP3    H149357   2.989   2.129  16.852  0.3231  1.8884 -0.2643
 9314TIP3    H249358   2.861   2.163  16.780 -0.2656  2.3011  0.9460
 9315TIP3   OH249359   2.031   6.062   6.636  0.1866 -0.1704 -0.0098
 9315TIP3    H149360   1.948   6.015   6.629 -0.2168  0.6565 -0.9201
 9315TIP3    H249361   2.040   6.109   6.554  1.2920  0.2031  0.2998
 9316TIP3   OH249362   1.436   1.605  16.629  0.0854 -0.3093 -0.2092
 9316TIP3    H149363   1.401   1.593  16.717  2.3032 -1.1146  0.6311
 9316TIP3    H249364   1.382   1.674  16.590  0.4252  1.6883  2.5877
 9317TIP3   OH249365   3.835   4.602  13.780 -0.2679  0.2896 -0.1557
 9317TIP3    H149366   3.823   4.679  13.836  1.2174  0.1281  0.4068
 9317TIP3    H249367   3.749   4.589  13.739 -1.1250  0.9791  1.3459
 9318TIP3   OH249368   5.919   5.514  11.817  0.1832 -0.1356  0.3570
 9318TIP3    H149369   5.849   5.519  11.752 -0.1775  0.5773  0.7888
 9318TIP3    H249370   5.890   5.570  11.888  1.2959  0.3564  0.4514
 9319TIP3   OH249371   1.451   4.226   4.710 -0.4082 -0.0179  0.2195
 9319TIP3    H149372   1.363   4.202   4.738 -0.0523 -0.9139  0.5833
 9319TIP3    H249373   1.504   4.148   4.724  0.0937 -0.0590 -1.5972
 9320TIP3   OH249374   6.386   5.246  14.116  0.4487  0.1673 -0.8764
 9320TIP3    H149375   6.457   5.292  14.070  0.0741  0.6673 -0.9652
 9320TIP3    H249376   6.376   5.293  14.199  0.7330 -0.3766 -0.5261
 9321TIP3   OH249377   4.327   4.152   1.061 -0.0814 -0.3530 -0.1856
 9321TIP3    H149378   4.317   4.058   1.050  0.1077 -0.1045 -3.4560
 9321TIP3    H249379   4.255   4.190   1.009  1.8826  1.2514 -1.9160
 9322TIP3   OH249380   1.720   6.255  17.231 -0.1167  0.6792 -0.0425
 9322TIP3    H149381   1.760   6.339  17.207 -1.2888  1.1220 -0.5098
 9322TIP3    H249382   1.629   6.277  17.252 -0.7275 -0.5990 -1.1797
 9323TIP3   OH249383   5.783   3.622   1.487 -0.2925 -0.3263 -0.4737
 9323TIP3    H149384   5.855   3.625   1.425  0.4941 -0.2837  0.4145
 9323TIP3    H249385   5.820   3.658   1.568 -1.9230  1.8596 -0.5948
 9324TIP3   OH249386   1.648   2.464   0.540 -0.3309  0.2462  0.0552
 9324TIP3    H149387   1.602   2.522   0.479 -0.5650 -0.6276 -0.6152
 9324TIP3    H249388   1.658   2.517   0.619 -1.1573  0.9694 -0.2980
 9325TIP3   OH249389   6.655   6.497  15.578  0.6500  0.3705  0.5370
 9325TIP3    H149390   6.586   6.439  15.546  0.7848  0.0460  0.8287
 9325TIP3    H249391   6.733   6.472  15.528  0.4800  0.9779 -0.0484
 9326TIP3   OH249392   4.603   4.272  12.089  0.4609 -0.1435 -0.1231
 9326TIP3    H149393   4.671   4.309  12.145 -0.9929 -0.0445  1.6698
 9326TIP3    H249394   4.543   4.345  12.072  0.1737 -0.5003 -0.6936
 9327TIP3   OH249395   3.211   1.796   0.095  0.3560  0.2843 -0.5303
 9327TIP3    H149396   3.144   1.793   0.163 -1.9400 -1.6616 -2.6978
 9327TIP3    H249397   3.261   1.715   0.106  0.8538  0.6017 -0.3871
 9328TIP3   OH249398   6.054   6.591   0.070  0.1801 -0.6461 -0.2109
 9328TIP3    H149399   6.042   6.670   0.018 -2.7204  0.7273  2.2455
 9328TIP3    H249400   6.024   6.520   0.014 -1.8605  0.6371 -0.8225
 9329TIP3   OH249401   6.381   1.336   0.831  0.3916  0.5806 -0.6756
 9329TIP3    H149402   6.452   1.400   0.828 -0.2106  1.3093  0.0990
 9329TIP3    H249403   6.379   1.299   0.743  2.4796 -0.3138 -0.3826
 9330TIP3   OH249404   2.930   6.172  17.233 -0.1319 -0.3318 -0.4715
 9330TIP3    H149405   2.934   6.266  17.249 -0.6947 -0.5502  1.0520
 9330TIP3    H249406   3.020   6.142  17.242 -0.0387 -0.0334 -0.4026
 9331TIP3   OH249407   3.534   6.591  10.866 -0.4961  0.3341 -0.7157
 9331TIP3    H149408   3.454   6.643  10.861 -1.0183 -0.2275  0.9325
 9331TIP3    H249409   3.504   6.501  10.870  0.1372  0.1459  0.6632
 9332TIP3   OH249410   0.602   3.606  16.076 -0.9575  0.3774  0.0577
 9332TIP3    H149411   0.632   3.597  16.167  0.0340 -2.5025 -0.4436
 9332TIP3    H249412   0.681   3.632  16.028 -0.8785 -0.5121 -0.3062
 9333TIP3   OH249413   0.643   4.142   1.401  0.1498 -0.5596  0.6256
 9333TIP3    H149414   0.633   4.120   1.308  0.7071 -2.0078  0.8794
 9333TIP3    H249415   0.677   4.231   1.401 -0.9979 -0.0771 -0.5150
 9334TIP3   OH249416   4.622   1.988   1.401 -0.2715 -0.3392  0.3983
 9334TIP3    H149417   4.664   1.924   1.344 -0.8330 -0.4473  0.1031
 9334TIP3    H249418   4.528   1.979   1.383 -0.4874 -0.6388  1.6038
 9335TIP3   OH249419   6.548   0.224  11.475 -0.2829 -0.2220 -0.7635
 9335TIP3    H149420   6.530   0.251  11.564 -2.5984  0.6420 -1.4263
 9335TIP3    H249421   6.643   0.237  11.464 -0.5156  3.4930  0.3624
 9336TIP3   OH249422   3.591   3.297   1.219 -0.0815  0.4207 -0.0524
 9336TIP3    H149423   3.596   3.273   1.126  0.0186  1.0433 -0.2076
 9336TIP3    H249424   3.497   3.301   1.237 -0.1009 -0.3984  0.0578
 9337TIP3   OH249425   3.505   0.635  16.125  0.5804  0.5523  0.7842
 9337TIP3    H149426   3.491   0.570  16.056 -1.1024  0.4975  1.1209
 9337TIP3    H249427   3.527   0.716  16.078 -4.2014  1.5546 -0.2568
 9338TIP3   OH249428   3.102   5.332  12.063  0.4369  0.3251  0.6000
 9338TIP3    H149429   3.197   5.321  12.060  0.5849  1.3788  1.1439
 9338TIP3    H249430   3.071   5.291  11.982  1.6492  2.5485 -1.0901
 9339TIP3   OH249431   5.716   0.515   5.751 -0.6525  0.2426 -0.0020
 9339TIP3    H149432   5.630   0.487   5.781  0.4694 -2.3353  1.1129
 9339TIP3    H249433   5.736   0.593   5.803 -1.4103 -0.4330  1.3454
 9340TIP3   OH249434   2.657   5.442   1.813 -0.2131  0.0435 -0.1042
 9340TIP3    H149435   2.676   5.423   1.904  0.2358  0.1615 -0.1731
 9340TIP3    H249436   2.738   5.421   1.766  0.8324  3.4158 -0.0386
 9341TIP3   OH249437   2.359   5.906  16.092  0.6124  0.4089  0.6375
 9341TIP3    H149438   2.401   5.862  16.018 -1.5312 -0.4401 -0.1438
 9341TIP3    H249439   2.268   5.920  16.063  0.4491  2.6809  2.0100
 9342TIP3   OH249440   0.703   3.960  15.575  0.6604 -0.5278 -0.1118
 9342TIP3    H149441   0.798   3.952  15.589  0.8172  0.0630 -0.7452
 9342TIP3    H249442   0.690   4.054  15.560  0.0231 -0.6558 -0.3609
 9343TIP3   OH249443   0.739   0.873   4.768  0.2183  0.0141  0.2504
 9343TIP3    H149444   0.650   0.900   4.745  0.0695 -0.2310  0.5330
 9343TIP3    H249445   0.736   0.856   4.862  0.2905 -1.0141  0.0794
 9344TIP3   OH249446   1.647   3.781  13.042  0.1529 -0.0629  0.2499
 9344TIP3    H149447   1.667   3.861  12.994  1.9408 -0.2711  0.5868
 9344TIP3    H249448   1.640   3.713  12.974 -0.7793  0.2463  0.0197
 9345TIP3   OH249449   5.973   0.710   5.322 -0.5412 -0.5695 -0.1263
 9345TIP3    H149450   5.894   0.731   5.371 -1.2772  0.9294 -1.8148
 9345TIP3    H249451   5.951   0.730   5.231  2.4402  2.3047 -0.4419
 9346TIP3   OH249452   2.327   3.914   6.460  0.0722 -0.5983 -0.3726
 9346TIP3    H149453   2.240   3.944   6.434  0.5744  0.8115 -0.4650
 9346TIP3    H249454   2.326   3.918   6.556  0.2259 -0.0285 -0.3943
 9347TIP3   OH249455   2.280   3.540   2.083  0.0434 -0.6083  0.7467
 9347TIP3    H149456   2.261   3.449   2.106 -0.5888 -0.1544  2.1643
 9347TIP3    H249457   2.342   3.569   2.150  1.2501 -0.3513 -0.4514
 9348TIP3   OH249458   2.962   2.320   2.240 -0.1455 -0.2413  0.2225
 9348TIP3    H149459   3.051   2.328   2.205  0.1144  3.0809  1.2153
 9348TIP3    H249460   2.974   2.299   2.333 -0.1942  1.9989  0.8007
 9349TIP3   OH249461   6.071   5.025   0.977 -0.0095 -0.1349  0.4153
 9349TIP3    H149462   5.989   5.074   0.976  0.8589  1.4633  2.4336
 9349TIP3    H249463   6.127   5.071   0.914 -0.9208 -1.8986 -1.8380
 9350TIP3   OH249464   6.174   3.270  11.666  0.3660 -0.3073 -0.2155
 9350TIP3    H149465   6.146   3.231  11.583 -0.0644 -0.3672 -0.0432
 9350TIP3    H249466   6.224   3.348  11.640 -0.2450 -0.0086 -0.5254
 9351TIP3   OH249467   4.549   4.920  16.317 -0.2396  0.4999 -0.0023
 9351TIP3    H149468   4.464   4.958  16.293 -0.3672 -0.3189 -0.9132
 9351TIP3    H249469   4.581   4.879  16.236  1.3901  1.4349  0.1255
 9352TIP3   OH249470   1.580   6.729   5.552  0.7248  0.1124  0.4327
 9352TIP3    H149471   1.648   6.775   5.601  1.6943 -0.7561 -0.0524
 9352TIP3    H249472   1.627   6.660   5.505 -0.5407 -0.7009  0.3178
 9353TIP3   OH249473   0.421   2.391   3.346 -0.0836  0.0531 -0.4540
 9353TIP3    H149474   0.338   2.353   3.318  0.0435 -1.4472  1.0763
 9353TIP3    H249475   0.424   2.375   3.441  2.0082 -0.0659 -0.4993
 9354TIP3   OH249476   4.408   4.698  10.470 -0.1027 -0.4032  0.2717
 9354TIP3    H149477   4.433   4.773  10.524  1.3445 -0.7276  0.0886
 9354TIP3    H249478   4.336   4.656  10.517  1.1469 -0.7004  1.9728
 9355TIP3   OH249479   1.539   6.597   2.749  0.0353 -0.1562  0.4842
 9355TIP3    H149480   1.538   6.687   2.716  1.2886 -0.0666  0.6419
 9355TIP3    H249481   1.631   6.581   2.771  0.1842 -2.1003 -1.2718
 9356TIP3   OH249482   6.007   5.739   5.349  0.6174  0.6184  0.8615
 9356TIP3    H149483   5.948   5.695   5.411  0.7112 -0.1674  0.4144
 9356TIP3    H249484   6.065   5.791   5.404  0.1419  0.6194  1.3759
 9357TIP3   OH249485   2.050   6.055   0.204  0.0925 -0.0156  0.1353
 9357TIP3    H149486   2.140   6.060   0.174  0.4085 -0.5454  0.9587
 9357TIP3    H249487   1.998   6.091   0.132  1.0514  1.4925  0.1573
 9358TIP3   OH249488   3.399   4.986  12.195 -0.1036  0.0380  0.4975
 9358TIP3    H149489   3.461   4.963  12.125  1.5330  2.2363  1.1081
 9358TIP3    H249490   3.326   4.925  12.184  1.4548 -1.6285 -1.2541
 9359TIP3   OH249491   6.371   5.286   2.419  0.4612  0.2158  0.1650
 9359TIP3    H149492   6.421   5.367   2.409  3.6084 -1.7260 -1.4001
 9359TIP3    H249493   6.336   5.269   2.332 -2.4938  1.1220  1.0636
 9360TIP3   OH249494   3.898   0.511  13.526  0.1841 -0.0968 -0.4466
 9360TIP3    H149495   3.886   0.441  13.461 -1.7264 -1.1130  0.9085
 9360TIP3    H249496   3.851   0.585  13.489  0.3309 -0.2094 -0.8702
 9361TIP3   OH249497   1.258   5.533   6.491 -0.3102  0.3312 -0.5648
 9361TIP3    H149498   1.311   5.466   6.449 -1.6782 -1.1747  0.0178
 9361TIP3    H249499   1.321   5.599   6.519  1.1686 -1.0384 -0.5431
 9362TIP3   OH249500   3.338   5.993  14.571 -0.1073 -0.4233 -0.3101
 9362TIP3    H149501   3.315   5.900  14.577 -0.2236 -0.3916 -0.2481
 9362TIP3    H249502   3.305   6.020  14.485 -0.9048 -0.2187  0.0455
 9363TIP3   OH249503   1.095   4.855   4.506 -0.0868  0.6752  0.9789
 9363TIP3    H149504   1.134   4.807   4.580 -1.6530 -1.0628  0.7622
 9363TIP3    H249505   1.004   4.826   4.505  0.4446 -1.5723 -3.3151
 9364TIP3   OH249506   0.622   2.684   3.067  0.3817 -0.8866  0.1541
 9364TIP3    H149507   0.582   2.597   3.075  0.4488 -0.8055  1.8106
 9364TIP3    H249508   0.569   2.740   3.124  2.3601 -0.6201  1.8701
 9365TIP3   OH249509   6.746   1.992  14.586 -0.0601  0.4676  0.0017
 9365TIP3    H149510   6.702   2.072  14.614  0.2931  0.6890 -0.0625
 9365TIP3    H249511   6.678   1.924  14.588 -0.1182  0.5351  1.1344
 9366TIP3   OH249512   1.625   0.886  14.422 -0.1819  0.3996  0.5639
 9366TIP3    H149513   1.708   0.924  14.449 -0.1503  0.0392  0.9915
 9366TIP3    H249514   1.606   0.820  14.489 -1.0590  0.8189  0.7455
 9367TIP3   OH249515   4.439   0.388   4.822  0.6505 -0.1691 -0.1372
 9367TIP3    H149516   4.365   0.331   4.800 -0.9652  1.2684  1.3547
 9367TIP3    H249517   4.453   0.374   4.916  1.0228  1.0101 -0.0077
 9368TIP3   OH249518   3.865   0.694  16.890 -0.3466 -0.2254  0.8236
 9368TIP3    H149519   3.861   0.774  16.837 -1.9533 -2.1345 -2.1981
 9368TIP3    H249520   3.950   0.699  16.934  0.9044  1.7577 -1.5648
 9369TIP3   OH249521   5.058   1.346   0.394  0.1365  0.0419 -0.1951
 9369TIP3    H149522   5.075   1.267   0.445 -4.2943 -0.5309  0.7369
 9369TIP3    H249523   5.012   1.404   0.454 -0.5087  1.5566 -2.0629
 9370TIP3   OH249524   2.317   4.329   6.776 -0.4659 -0.3996  0.2377
 9370TIP3    H149525   2.310   4.395   6.844 -2.1634  0.4742 -0.7191
 9370TIP3    H249526   2.411   4.313   6.767 -0.0603  1.4309  0.9167
 9371TIP3   OH249527   4.269   6.274   5.906 -0.0101 -0.7502 -0.2795
 9371TIP3    H149528   4.327   6.205   5.873 -0.6542 -2.3016  1.6467
 9371TIP3    H249529   4.286   6.276   6.000  0.6877  2.4589 -0.3880
 9372TIP3   OH249530   6.062   5.129   5.908  0.5782 -0.2001  0.5708
 9372TIP3    H149531   6.040   5.210   5.953  0.5181  0.1660 -0.1051
 9372TIP3    H249532   6.085   5.156   5.819 -1.3335 -1.0837 -0.2547
 9373TIP3   OH249533   4.937   0.814   5.643 -0.1723 -0.1503 -0.0835
 9373TIP3    H149534   4.876   0.851   5.580 -0.0917  0.1518  0.0133
 9373TIP3    H249535   4.896   0.733   5.673 -0.2000 -0.3046 -0.5390
 9374TIP3   OH249536   4.584   3.149   1.904  0.2823 -0.0543  0.2999
 9374TIP3    H149537   4.663   3.104   1.934 -0.3812 -1.2666  0.2518
 9374TIP3    H249538   4.559   3.103   1.824 -1.0788 -0.3930  0.8927
 9375TIP3   OH249539   6.709   6.466  12.567 -0.5870 -0.9379 -0.0312
 9375TIP3    H149540   6.718   6.561  12.553 -0.1742 -1.1930 -1.7077
 9375TIP3    H249541   6.620   6.445  12.538 -0.5352 -1.1187 -0.0615
 9376TIP3   OH249542   4.228   6.149   3.212  0.4900  0.0913 -0.0637
 9376TIP3    H149543   4.239   6.244   3.212 -0.1844  0.2005  1.3031
 9376TIP3    H249544   4.166   6.133   3.284  0.0377 -1.3166 -0.7447
 9377TIP3   OH249545   5.324   0.127  15.290  0.2439 -0.1582  0.6678
 9377TIP3    H149546   5.312   0.049  15.345 -0.6492  0.3797  1.2616
 9377TIP3    H249547   5.255   0.120  15.224 -0.1531  0.3695  1.0185
 9378TIP3   OH249548   1.464   1.786   2.217  0.7085 -0.0695  0.3057
 9378TIP3    H149549   1.392   1.771   2.279  0.9679  1.0157  0.8934
 9378TIP3    H249550   1.422   1.830   2.143  0.9426  1.6913  1.1795
 9379TIP3   OH249551   2.421   0.484   6.599  0.4957  0.2156 -0.5333
 9379TIP3    H149552   2.403   0.390   6.604  0.9782 -0.0673 -3.0166
 9379TIP3    H249553   2.338   0.525   6.624 -0.2901 -0.9146 -1.1729
 9380TIP3   OH249554   4.795   0.432  14.703 -0.6761  0.0685 -0.1612
 9380TIP3    H149555   4.873   0.381  14.726 -0.9930 -0.2676  0.1871
 9380TIP3    H249556   4.772   0.478  14.783 -1.3772 -0.5606  0.0045
 9381TIP3   OH249557   5.642   2.370   3.851 -0.3023 -1.0419 -0.0391
 9381TIP3    H149558   5.707   2.311   3.889  0.1037 -0.2302  0.5820
 9381TIP3    H249559   5.561   2.351   3.899 -0.1064 -0.9133  0.3484
 9382TIP3   OH249560   2.049   6.217  16.874  0.1388 -0.1052  0.3099
 9382TIP3    H149561   2.143   6.204  16.880  0.2444  0.0963 -0.7761
 9382TIP3    H249562   2.016   6.136  16.834 -0.0649  0.1041  0.0541
 9383TIP3   OH249563   5.110   4.390  14.688  0.6903  0.0433  0.0377
 9383TIP3    H149564   5.076   4.364  14.774  3.6888 -0.0817  1.2897
 9383TIP3    H249565   5.111   4.485  14.690 -0.4015  0.0891 -0.4186
 9384TIP3   OH249566   3.969   1.827   1.487  0.3817  0.2544 -0.5632
 9384TIP3    H149567   3.900   1.893   1.487  1.0244  0.9479 -1.4714
 9384TIP3    H249568   3.960   1.782   1.571 -2.0637 -0.6285 -1.2157
 9385TIP3   OH249569   3.328   5.816   2.424  0.3144  0.1832  0.3169
 9385TIP3    H149570   3.363   5.822   2.335  2.0153 -2.9498  0.6242
 9385TIP3    H249571   3.385   5.873   2.476 -1.4443  3.0097 -0.6651
 9386TIP3   OH249572   5.617   1.454  13.126  0.0920  0.7473 -0.2262
 9386TIP3    H149573   5.579   1.458  13.214 -0.8888  2.7585 -0.6766
 9386TIP3    H249574   5.632   1.545  13.102  0.8392  0.2180 -1.9458
 9387TIP3   OH249575   1.470   6.636  11.290  0.1454 -0.5074  0.0645
 9387TIP3    H149576   1.502   6.619  11.201 -0.0934  0.2917 -0.1911
 9387TIP3    H249577   1.546   6.621  11.346  0.7097  0.3954 -0.4330
 9388TIP3   OH249578   5.221   2.950  16.114 -0.2836 -0.2658  0.0239
 9388TIP3    H149579   5.129   2.949  16.140 -0.1875 -0.6403  0.3615
 9388TIP3    H249580   5.224   3.007  16.037 -0.8128 -0.3388 -0.0523
 9389TIP3   OH249581   1.175   2.889   3.312  0.4734 -0.5655 -0.5280
 9389TIP3    H149582   1.112   2.817   3.319 -4.0187  3.0325  2.4743
 9389TIP3    H249583   1.162   2.923   3.224 -1.9138 -0.0515 -0.0614
 9390TIP3   OH249584   5.681   0.183   0.205  0.3905  0.2269 -0.2579
 9390TIP3    H149585   5.675   0.251   0.272 -1.3502  0.6139 -0.7363
 9390TIP3    H249586   5.625   0.215   0.134 -1.5577 -2.2565  0.0252
 9391TIP3   OH249587   5.935   6.506  12.687 -0.7012  0.9343  0.2178
 9391TIP3    H149588   5.913   6.597  12.666 -1.6875  0.3240 -1.6956
 9391TIP3    H249589   6.031   6.503  12.683 -0.7056  1.2974 -2.9991
 9392TIP3   OH249590   1.393   1.573  14.082  0.4203  0.0780  0.4289
 9392TIP3    H149591   1.332   1.629  14.128 -1.7759  0.0187 -2.1405
 9392TIP3    H249592   1.436   1.630  14.019  2.7096 -0.0099  1.7938
 9393TIP3   OH249593   1.709   2.745   1.804  0.2135  0.5573  1.0565
 9393TIP3    H149594   1.771   2.679   1.772 -2.7049 -2.5795  1.3798
 9393TIP3    H249595   1.723   2.820   1.747  1.5267 -1.4790 -1.5253
 9394TIP3   OH249596   0.679   6.622  15.588 -0.5800  0.2339 -0.3724
 9394TIP3    H149597   0.714   6.681  15.522 -0.4564  0.6718  0.0712
 9394TIP3    H249598   0.716   6.654  15.671 -1.1954  0.0587 -0.0204
 9395TIP3   OH249599   4.056   4.879  12.319  0.4152 -0.3854  0.7462
 9395TIP3    H149600   4.040   4.789  12.290  0.0117  0.0453 -0.4494
 9395TIP3    H249601   3.969   4.916  12.331  0.5492  0.2014  0.0122
 9396TIP3   OH249602   5.684   0.433   2.243  0.1757 -0.3975  0.4168
 9396TIP3    H149603   5.720   0.484   2.171  1.4188  1.4566  2.2534
 9396TIP3    H249604   5.758   0.383   2.277  0.4437  1.1914  2.3608
 9397TIP3   OH249605   3.468   3.067   2.060 -0.0258 -0.3627 -0.2813
 9397TIP3    H149606   3.463   3.113   1.976 -0.7906  0.3159  0.1222
 9397TIP3    H249607   3.405   2.996   2.053  0.5530 -0.8503 -0.6002
 9398TIP3   OH249608   5.015   5.979   3.275  0.2807 -0.2685 -0.6470
 9398TIP3    H149609   5.081   5.918   3.306  1.2949  0.4471 -1.3175
 9398TIP3    H249610   5.059   6.028   3.205 -0.2279  1.7315  0.3523
 9399TIP3   OH249611   4.954   4.513   4.431 -0.2992  0.4729 -0.3694
 9399TIP3    H149612   5.018   4.489   4.498  0.9619  1.6142 -1.1118
 9399TIP3    H249613   4.870   4.514   4.477 -0.0153 -2.2931  0.3543
 9400TIP3   OH249614   2.579   4.453  16.546 -0.2449 -0.5457  0.1800
 9400TIP3    H149615   2.621   4.506  16.614  0.9646 -1.2184 -0.0287
 9400TIP3    H249616   2.536   4.382  16.594  1.0642 -1.3288  0.2312
 9401TIP3   OH249617   6.594   1.165  15.918  0.8760 -0.3145  0.0083
 9401TIP3    H149618   6.512   1.127  15.886  1.3814 -0.1392 -1.6223
 9401TIP3    H249619   6.645   1.181  15.838  2.0359  0.6374  0.9040
 9402TIP3   OH249620   4.018   6.070  13.978  0.2116 -0.0681  0.0089
 9402TIP3    H149621   3.924   6.060  13.996 -0.0979  1.0086 -0.9126
 9402TIP3    H249622   4.041   5.992  13.928 -0.5676  0.4219 -1.1382
 9403TIP3   OH249623   2.154   5.246  13.342  0.1765 -0.2523 -0.1480
 9403TIP3    H149624   2.070   5.242  13.297  0.1284  2.6679 -0.5279
 9403TIP3    H249625   2.218   5.261  13.272  0.5745  0.5775  0.3666
 9404TIP3   OH249626   1.154   4.331   6.054 -0.0052  0.2459 -0.2370
 9404TIP3    H149627   1.209   4.353   6.130  0.9378 -0.3106 -0.7482
 9404TIP3    H249628   1.067   4.364   6.078 -0.0309 -1.0556  1.6416
 9405TIP3   OH249629   2.220   2.688   2.672  0.0680  0.3861  0.1738
 9405TIP3    H149630   2.281   2.652   2.607 -1.6566 -1.9341 -0.2921
 9405TIP3    H249631   2.267   2.681   2.755  0.1256 -2.5006  0.0132
 9406TIP3   OH249632   2.770   5.329   5.323 -0.2765  0.3438 -0.5219
 9406TIP3    H149633   2.684   5.362   5.349 -0.2995  0.0247 -0.1731
 9406TIP3    H249634   2.828   5.354   5.395 -0.1215  0.3773 -0.6586
 9407TIP3   OH249635   4.156   5.792  13.211  0.0604 -0.0730  0.5826
 9407TIP3    H149636   4.120   5.749  13.288 -0.2405 -0.4299  0.2526
 9407TIP3    H249637   4.227   5.734  13.182  0.3191  0.1731  0.7170
 9408TIP3   OH249638   0.505   0.866   0.732  0.0490 -0.2608  0.1102
 9408TIP3    H149639   0.551   0.846   0.814  1.1202 -1.8260 -0.8372
 9408TIP3    H249640   0.450   0.790   0.716 -1.1084  0.5797 -0.0002
 9409TIP3   OH249641   4.931   2.956  14.168 -0.6134  0.2723 -0.2230
 9409TIP3    H149642   4.844   2.969  14.206 -0.6562  1.3772 -0.6682
 9409TIP3    H249643   4.919   2.969  14.074  0.1002  0.8661 -0.2428
 9410TIP3   OH249644   4.739   0.138  15.765 -0.0269 -0.1587 -0.2133
 9410TIP3    H149645   4.797   0.148  15.689 -0.4605 -0.3150 -0.5691
 9410TIP3    H249646   4.794   0.098  15.832  1.0104  1.9971  0.3248
 9411TIP3   OH249647   5.316   4.575   3.768 -0.0587 -0.1315  0.1138
 9411TIP3    H149648   5.230   4.607   3.797 -0.0981 -1.1615  1.2103
 9411TIP3    H249649   5.336   4.628   3.691 -1.0865  1.0265  0.5984
 9412TIP3   OH249650   0.108   6.060  11.905 -0.7152  0.3763 -0.4875
 9412TIP3    H149651   0.176   6.127  11.900  0.4806 -0.5815  1.5517
 9412TIP3    H249652   0.126   6.002  11.832  0.0232  0.7211 -0.5935
 9413TIP3   OH249653   2.001   1.465   3.261 -0.2352  0.0012  0.5108
 9413TIP3    H149654   1.935   1.452   3.328  0.2782  1.1627  1.2601
 9413TIP3    H249655   1.952   1.493   3.184 -0.7857 -0.9784  0.4865
 9414TIP3   OH249656   4.541   0.949   5.255 -0.5747  0.4609 -0.2757
 9414TIP3    H149657   4.553   0.863   5.215  1.0459 -0.7968  2.5868
 9414TIP3    H249658   4.447   0.952   5.276 -0.6176 -0.7338 -0.2214
 9415TIP3   OH249659   4.670   5.898  14.150 -0.1686  0.3871 -0.2871
 9415TIP3    H149660   4.700   5.913  14.239  0.2803  0.3178 -0.4243
 9415TIP3    H249661   4.619   5.977  14.128  1.4209  1.3452 -0.6874
 9416TIP3   OH249662   0.729   2.943   6.087  0.2301 -0.0539 -0.0905
 9416TIP3    H149663   0.743   3.034   6.112  0.0744 -0.3553  1.1133
 9416TIP3    H249664   0.739   2.893   6.168  0.1444 -1.0953 -0.7011
 9417TIP3   OH249665   5.557   3.986   2.149 -0.1581 -0.5877  0.1012
 9417TIP3    H149666   5.623   4.050   2.121 -1.5755  1.4034  1.0496
 9417TIP3    H249667   5.561   3.917   2.082  2.0332  0.0336 -0.4993
 9418TIP3   OH249668   2.203   2.960  12.282  0.0787  0.2014 -0.5262
 9418TIP3    H149669   2.283   2.908  12.296  0.0267 -0.0194 -1.0247
 9418TIP3    H249670   2.220   3.043  12.327  0.3480 -0.0737 -0.1188
 9419TIP3   OH249671   1.351   0.703  15.145 -0.0523  0.0111  0.3236
 9419TIP3    H149672   1.353   0.797  15.125 -1.5086 -0.2262 -1.1636
 9419TIP3    H249673   1.274   0.692  15.200  0.5427 -0.2207  1.1185
 9420TIP3   OH249674   5.669   1.351  11.542  0.0256 -0.4096 -0.3738
 9420TIP3    H149675   5.625   1.322  11.622  0.3812  0.6039  0.2105
 9420TIP3    H249676   5.735   1.284  11.524 -0.2924 -0.8199 -0.0202
 9421TIP3   OH249677   2.257   1.694   5.366  0.6047 -0.1964  0.0698
 9421TIP3    H149678   2.278   1.601   5.353  0.3912 -0.2540  0.1374
 9421TIP3    H249679   2.224   1.724   5.282 -0.8212 -0.5798  0.4655
 9422TIP3   OH249680   4.593   1.943   0.511 -0.1773 -0.2094 -0.0120
 9422TIP3    H149681   4.535   1.932   0.436 -0.3180  0.8310 -0.0711
 9422TIP3    H249682   4.663   1.880   0.496  0.1980  0.4897 -1.4254
 9423TIP3   OH249683   6.060   4.263  11.461  0.3111 -0.2330  0.5271
 9423TIP3    H149684   6.119   4.323  11.416  0.1241 -1.0787 -0.9099
 9423TIP3    H249685   6.035   4.199  11.394 -2.4157  0.2358  0.9795
 9424TIP3   OH249686   2.762   3.318  11.486  0.8081  0.1481 -0.5933
 9424TIP3    H149687   2.795   3.408  11.478 -0.2344  0.5583 -0.3858
 9424TIP3    H249688   2.703   3.307  11.411 -1.9077  0.9144  1.2722
 9425TIP3   OH249689   2.947   0.324  16.626  0.1508 -0.2112  0.1641
 9425TIP3    H149690   2.863   0.334  16.581  0.1991 -1.4335 -0.2332
 9425TIP3    H249691   2.999   0.269  16.568  0.6322 -0.8538  1.1832
 9426TIP3   OH249692   4.236   5.608  14.556  0.7050  0.2811 -0.3649
 9426TIP3    H149693   4.200   5.695  14.575  0.2836  0.3527 -1.3985
 9426TIP3    H249694   4.280   5.618  14.472  0.1696 -0.6329 -0.7731
 9427TIP3   OH249695   5.722   3.838  11.927 -0.0893 -0.8775 -0.1609
 9427TIP3    H149696   5.714   3.791  11.844 -1.2967 -0.6937 -0.1559
 9427TIP3    H249697   5.715   3.930  11.903  1.5073 -0.6979 -0.0748
 9428TIP3   OH249698   0.675   2.311   2.823 -0.3125 -0.2731 -0.2772
 9428TIP3    H149699   0.733   2.329   2.897 -1.6307  0.8556  0.5358
 9428TIP3    H249700   0.588   2.299   2.863 -1.2355  1.3096 -1.6907
 9429TIP3   OH249701   1.157   5.655   1.658  0.0974  0.3747 -0.8079
 9429TIP3    H149702   1.090   5.605   1.703  1.6109  0.7015  2.0551
 9429TIP3    H249703   1.234   5.597   1.659  0.9830  1.5284 -0.2667
 9430TIP3   OH249704   3.641   1.731   0.131 -0.2208  0.5286  0.4437
 9430TIP3    H149705   3.646   1.645   0.089  2.2347  0.8527 -0.0885
 9430TIP3    H249706   3.593   1.786   0.069  1.0005  0.3200 -0.7267
 9431TIP3   OH249707   2.034   0.243  15.921 -0.6048 -0.4303 -0.1723
 9431TIP3    H149708   2.098   0.216  15.855 -0.3136 -1.2899  0.4377
 9431TIP3    H249709   2.011   0.333  15.897  2.9281  0.9824  1.1678
 9432TIP3   OH249710   3.677   2.798  16.690 -0.1940 -0.3801 -0.7694
 9432TIP3    H149711   3.689   2.847  16.608 -0.5594 -0.5707 -0.9370
 9432TIP3    H249712   3.608   2.735  16.670 -0.4963 -0.2291 -0.2247
 9433TIP3   OH249713   3.422   5.336  14.534 -0.3767  0.2871 -0.0274
 9433TIP3    H149714   3.340   5.368  14.497 -1.1635 -0.2827  1.1515
 9433TIP3    H249715   3.485   5.406  14.517 -1.3048  1.0973 -0.2193
 9434TIP3   OH249716   6.489   4.113  13.875  0.1772 -0.0376 -0.0345
 9434TIP3    H149717   6.555   4.047  13.897  0.5398  0.4149  0.2370
 9434TIP3    H249718   6.539   4.192  13.856 -0.3044  0.3705  0.3881
 9435TIP3   OH249719   3.387   4.537  15.173 -0.2638  0.1564  0.0198
 9435TIP3    H149720   3.319   4.481  15.211  0.0575  0.9812  1.9686
 9435TIP3    H249721   3.338   4.601  15.122 -0.7645 -0.7122 -0.6152
 9436TIP3   OH249722   2.433   6.730   2.769  0.3981  0.1950  0.4966
 9436TIP3    H149723   2.410   6.816   2.735  0.8880 -0.4559 -1.6427
 9436TIP3    H249724   2.527   6.736   2.788  0.4074  0.1699  0.4598
 9437TIP3   OH249725   3.913   4.885   5.770  0.1011 -0.0196 -0.2126
 9437TIP3    H149726   3.889   4.801   5.731  2.1482 -0.5562 -0.4100
 9437TIP3    H249727   4.005   4.898   5.746  0.6961  0.8723  2.2240
 9438TIP3   OH249728   0.007   0.055   3.930  0.1454 -0.0077 -0.4425
 9438TIP3    H149729   0.081   0.102   3.969  0.2873 -0.5612 -0.0414
 9438TIP3    H249730  -0.047   0.124   3.891  1.5006  0.3317 -1.8554
 9439TIP3   OH249731   4.243   3.749   3.210 -0.6435 -0.3255 -0.5486
 9439TIP3    H149732   4.223   3.834   3.250  0.5166  0.3353 -1.3154
 9439TIP3    H249733   4.337   3.737   3.225 -0.6751 -1.1909 -0.9948
 9440TIP3   OH249734   4.491   3.318   0.107  0.4048 -0.5362 -0.1004
 9440TIP3    H149735   4.523   3.291   0.021 -0.2752 -1.4462 -0.0804
 9440TIP3    H249736   4.453   3.405   0.092  0.6947 -0.4994 -0.6269
 9441TIP3   OH249737   1.242   3.015   1.525  0.3480 -0.1756 -0.0519
 9441TIP3    H149738   1.178   3.060   1.579  0.4080 -1.1228  0.8448
 9441TIP3    H249739   1.207   2.926   1.515  0.1517  0.0627 -1.8927
 9442TIP3   OH249740   6.568   2.977  17.158  0.2075  0.1880  0.0252
 9442TIP3    H149741   6.632   2.907  17.147 -1.6770 -1.3200 -2.1456
 9442TIP3    H249742   6.584   3.009  17.247  2.3601 -1.7095  0.4348
 9443TIP3   OH249743   1.685   2.045  16.727 -0.3793 -0.1141 -0.1996
 9443TIP3    H149744   1.598   2.005  16.721  0.0274 -1.3064  1.1955
 9443TIP3    H249745   1.684   2.092  16.810 -0.2931  1.4660 -1.0612
 9444TIP3   OH249746   5.368   5.808  12.049  0.3956  0.8229 -0.4292
 9444TIP3    H149747   5.337   5.773  11.966 -0.9818  1.5404 -0.2491
 9444TIP3    H249748   5.388   5.730  12.102 -0.8221  0.3031 -0.6886
 9445TIP3   OH249749   3.599   5.561  14.576  0.0759 -0.7795 -0.4180
 9445TIP3    H149750   3.694   5.568  14.577  0.0351 -0.0592  1.1723
 9445TIP3    H249751   3.571   5.596  14.661 -1.6197 -0.8145 -0.9203
 9446TIP3   OH249752   1.128   0.182   4.502 -0.4966  0.1716  0.1718
 9446TIP3    H149753   1.063   0.239   4.461  1.7489  1.8978 -1.2847
 9446TIP3    H249754   1.189   0.242   4.545  0.6505 -1.2801  0.6770
 9447TIP3   OH249755   6.758   6.357   2.209  0.0972  0.4267  0.2667
 9447TIP3    H149756   6.667   6.334   2.228  0.3415  0.4701  1.5617
 9447TIP3    H249757   6.796   6.276   2.176  0.0666 -0.1310  1.5387
 9448TIP3   OH249758   2.414   3.640  15.912  0.7727  0.1905  0.0834
 9448TIP3    H149759   2.364   3.579  15.858  1.5143  0.2770 -0.7198
 9448TIP3    H249760   2.365   3.645  15.994  1.1360 -2.1894  0.5480
 9449TIP3   OH249761   5.577   2.373  15.714 -0.4110  0.2163  0.1090
 9449TIP3    H149762   5.642   2.304  15.701 -1.7313 -1.0347 -0.1659
 9449TIP3    H249763   5.572   2.417  15.629 -1.1844 -0.8550 -0.4274
 9450TIP3   OH249764   4.262   4.002   2.074 -0.2994  0.0670 -0.7209
 9450TIP3    H149765   4.337   4.050   2.109  1.1714 -1.4210 -1.7162
 9450TIP3    H249766   4.186   4.045   2.113  1.0752  1.2609  0.7676
 9451TIP3   OH249767   4.693   0.885  16.479 -0.3520  0.5217 -0.1278
 9451TIP3    H149768   4.738   0.811  16.439 -0.2505  0.9934 -0.9115
 9451TIP3    H249769   4.719   0.960  16.426 -0.9357  1.0289  0.2842
 9452TIP3   OH249770   6.372   4.471  13.256  0.0555 -0.5407 -0.0660
 9452TIP3    H149771   6.410   4.517  13.331  1.0474  1.2760 -1.5970
 9452TIP3    H249772   6.446   4.425  13.217 -0.2368 -0.6294 -0.5150
 9453TIP3   OH249773   1.001   4.118   3.286  0.5282  0.4599 -0.2463
 9453TIP3    H149774   1.009   4.147   3.377 -0.2531 -1.5815  0.5424
 9453TIP3    H249775   1.091   4.118   3.253  0.9558  0.2477  0.8648
 9454TIP3   OH249776   0.402   2.260   0.348  0.2032  0.3847  0.2058
 9454TIP3    H149777   0.442   2.218   0.272 -2.1356 -0.6699 -0.5316
 9454TIP3    H249778   0.397   2.352   0.325  0.8639  0.3018 -0.2826
 9455TIP3   OH249779   5.264   1.725   3.227  0.1879 -0.1705  0.4064
 9455TIP3    H149780   5.188   1.682   3.266 -0.2244 -0.1827 -0.3902
 9455TIP3    H249781   5.270   1.687   3.139  0.6923  0.3486  0.2144
 9456TIP3   OH249782   5.398   0.419   2.186  0.1353 -0.3982 -0.2770
 9456TIP3    H149783   5.491   0.427   2.164 -0.2779 -0.4230 -2.2709
 9456TIP3    H249784   5.363   0.508   2.174 -0.1653 -0.4688  0.0641
 9457TIP3   OH249785   2.202   0.105  11.832 -0.1595 -1.0167 -0.3780
 9457TIP3    H149786   2.248   0.021  11.835 -0.7347 -1.4395 -2.1185
 9457TIP3    H249787   2.193   0.124  11.738  2.5724  2.4708 -0.1455
 9458TIP3   OH249788   4.636   2.177   0.206  0.0344  0.7612 -0.6809
 9458TIP3    H149789   4.640   2.272   0.205  1.8883  0.7823  0.7440
 9458TIP3    H249790   4.677   2.153   0.290  1.0170 -1.3016 -1.6778
 9459TIP3   OH249791   6.308   0.356   3.302  0.3602 -0.0328 -0.2351
 9459TIP3    H149792   6.387   0.411   3.303  1.3519 -1.3791  0.7613
 9459TIP3    H249793   6.303   0.322   3.391 -1.4374  0.0926 -0.2585
 9460TIP3   OH249794   4.676   1.254  11.218 -0.1707 -0.4377 -0.2031
 9460TIP3    H149795   4.630   1.334  11.243  1.0018  0.4672 -0.8506
 9460TIP3    H249796   4.606   1.191  11.200 -1.1331  0.5939 -0.2071
 9461TIP3   OH249797   2.756   1.948  16.144 -0.0570  0.0710 -0.2935
 9461TIP3    H149798   2.771   1.864  16.187  1.3431 -0.1993 -1.2311
 9461TIP3    H249799   2.843   1.983  16.129 -0.5149  0.5957 -1.9962
 9462TIP3   OH249800   2.221   5.520  13.116  0.1519  0.3966 -0.3011
 9462TIP3    H149801   2.211   5.427  13.096  0.8939  0.1983  0.1947
 9462TIP3    H249802   2.157   5.564  13.060  0.0850 -0.3779 -0.8515
 9463TIP3   OH249803   0.651   0.689   3.348  0.1635 -0.5462 -0.3390
 9463TIP3    H149804   0.581   0.700   3.283 -2.0909 -0.0884  1.9747
 9463TIP3    H249805   0.647   0.597   3.372 -0.6972 -0.2589  0.7719
 9464TIP3   OH249806   5.719   1.288  16.226  0.0613  0.3369 -0.3962
 9464TIP3    H149807   5.802   1.306  16.271 -0.5056  0.2479  0.7118
 9464TIP3    H249808   5.673   1.227  16.284 -0.7347  0.2963 -1.0559
 9465TIP3   OH249809   6.227   4.551  16.421 -0.3462  0.2794  0.6464
 9465TIP3    H149810   6.296   4.588  16.476 -1.0127  2.4619  0.1121
 9465TIP3    H249811   6.230   4.602  16.340 -0.4628 -1.7748 -0.7571
 9466TIP3   OH249812   2.811   4.800   2.740 -0.1006  0.2456  0.4046
 9466TIP3    H149813   2.872   4.811   2.813 -2.3365  1.4560  2.2345
 9466TIP3    H249814   2.809   4.886   2.697 -0.6656  0.2946  0.5154
 9467TIP3   OH249815   3.102   2.105   5.787  0.0634 -0.1131  0.5727
 9467TIP3    H149816   3.189   2.108   5.748  0.0180 -1.9183  0.2490
 9467TIP3    H249817   3.061   2.028   5.748 -0.8908 -0.5417  2.3294
 9468TIP3   OH249818   0.314   6.222   5.375  0.3882 -0.2512 -0.0775
 9468TIP3    H149819   0.312   6.133   5.410  2.5415 -0.3728 -0.0897
 9468TIP3    H249820   0.249   6.270   5.426 -0.7911 -1.8100 -0.0615
 9469TIP3   OH249821   1.531   6.626  15.312  0.4743  0.0544 -0.6121
 9469TIP3    H149822   1.463   6.680  15.353  0.8051 -0.2126  0.3324
 9469TIP3    H249823   1.596   6.689  15.281  0.4668  0.2508 -0.2426
 9470TIP3   OH249824   5.111   5.949   4.700 -0.1821 -0.1156 -0.4854
 9470TIP3    H149825   5.020   5.974   4.714  0.1022  0.4832  0.3622
 9470TIP3    H249826   5.119   5.863   4.742  0.1217  0.7104  1.2307
 9471TIP3   OH249827   2.875   0.465   2.455  0.3998  0.1452  0.0179
 9471TIP3    H149828   2.923   0.513   2.522 -2.1944  2.1122  0.6424
 9471TIP3    H249829   2.803   0.424   2.502 -0.1347 -0.4140 -1.2371
 9472TIP3   OH249830   1.338   3.976   2.942  0.0995  0.4971 -0.0903
 9472TIP3    H149831   1.338   3.897   2.888  2.6250  0.8712 -0.7480
 9472TIP3    H249832   1.257   4.021   2.917 -0.4294 -0.9292 -1.1259
 9473TIP3   OH249833   6.351   6.743   0.505  0.6487 -0.0833  0.2708
 9473TIP3    H149834   6.395   6.813   0.458 -0.8280  0.9485  0.3651
 9473TIP3    H249835   6.272   6.726   0.455  0.2648 -0.6730  1.0484
 9474TIP3   OH249836   1.165   4.843  14.953 -0.1020  0.1644 -0.3580
 9474TIP3    H149837   1.120   4.879  15.029  1.6174 -0.1696  0.8745
 9474TIP3    H249838   1.220   4.773  14.988  3.2063  2.0601 -1.3182
 9475TIP3   OH249839   4.066   2.312  15.065  0.3325 -0.1330  0.0734
 9475TIP3    H149840   4.086   2.227  15.103  3.8451  0.6171  0.2278
 9475TIP3    H249841   3.978   2.333  15.098 -1.8765 -4.6702 -2.0822
 9476TIP3   OH249842   3.438   2.845   1.715  0.2853  0.2024  0.1300
 9476TIP3    H149843   3.484   2.866   1.634  0.7250  0.4731  0.4403
 9476TIP3    H249844   3.402   2.929   1.744 -2.2410 -0.3213 -1.1824
 9477TIP3   OH249845   4.605   1.745   3.391  0.3166  0.0860 -0.0492
 9477TIP3    H149846   4.613   1.792   3.474 -2.1722  0.2938  0.1719
 9477TIP3    H249847   4.538   1.793   3.343 -0.6559 -1.8743 -0.7877
 9478TIP3   OH249848   3.634   5.129   2.520  0.3039  0.4361  0.6309
 9478TIP3    H149849   3.553   5.173   2.546 -0.4271  0.2893 -1.1810
 9478TIP3    H249850   3.606   5.065   2.454  1.8590  0.1909  0.1627
 9479TIP3   OH249851   1.002   0.335   2.494  0.3644  0.0673  0.1787
 9479TIP3    H149852   0.971   0.253   2.454  1.9803 -1.2406  1.4566
 9479TIP3    H249853   1.093   0.342   2.467 -0.0205  2.0518 -0.7522
 9480TIP3   OH249854   2.249   6.504   2.309 -0.2109  0.6374 -0.4633
 9480TIP3    H149855   2.214   6.426   2.352  0.0043  0.2446 -0.9876
 9480TIP3    H249856   2.186   6.525   2.240 -1.4924  2.3213  1.1305
 9481TIP3   OH249857   5.721   3.239   0.145  0.2108  0.2088  0.4123
 9481TIP3    H149858   5.712   3.178   0.071  2.5281 -2.4148  2.0928
 9481TIP3    H249859   5.632   3.245   0.181 -0.1817 -1.9304 -0.0578
 9482TIP3   OH249860   4.408   2.316   0.422 -0.2250 -0.0311 -0.2489
 9482TIP3    H149861   4.500   2.298   0.442  0.3282  2.2257 -0.5055
 9482TIP3    H249862   4.391   2.268   0.341  0.2597 -1.6516  0.5585
 9483TIP3   OH249863   0.500   5.073   0.502  0.9120  0.4340  0.2169
 9483TIP3    H149864   0.433   5.097   0.565  1.2790  0.6553  0.5271
 9483TIP3    H249865   0.484   5.129   0.426 -1.0507 -1.4966 -0.9125
 9484TIP3   OH249866   1.751   4.343  12.724  0.1744  0.3569  0.2877
 9484TIP3    H149867   1.805   4.391  12.661  0.6205 -0.2416  0.1996
 9484TIP3    H249868   1.740   4.256  12.684 -0.4365  0.3124  0.5402
 9485TIP3   OH249869   5.418   5.482   1.131  0.1524 -0.4575  0.0771
 9485TIP3    H149870   5.425   5.472   1.226  0.2696 -2.5484 -0.1074
 9485TIP3    H249871   5.490   5.429   1.096  0.2863  0.5082 -1.1789
 9486TIP3   OH249872   2.262   1.856  15.297 -0.0508  0.5602 -0.0497
 9486TIP3    H149873   2.217   1.940  15.290 -1.6486 -0.3274 -1.1913
 9486TIP3    H249874   2.192   1.794  15.319  1.2381 -0.3641  1.6580
 9487TIP3   OH249875   0.679   1.765  15.566 -0.3404  0.6648 -0.1823
 9487TIP3    H149876   0.600   1.817  15.556 -0.9126 -0.1983 -0.2296
 9487TIP3    H249877   0.652   1.689  15.617  0.3428  0.1194 -0.6122
 9488TIP3   OH249878   1.233   2.224  16.795  0.0020  0.2856  0.2253
 9488TIP3    H149879   1.191   2.308  16.775 -2.0670 -0.8843 -0.6705
 9488TIP3    H249880   1.217   2.170  16.718  0.8704 -1.0857  0.9635
 9489TIP3   OH249881   2.853   3.710   0.539 -0.4259  0.3574 -0.8801
 9489TIP3    H149882   2.862   3.803   0.559  2.0057  0.5364 -2.4081
 9489TIP3    H249883   2.854   3.706   0.443 -3.2999 -1.0848 -0.9598
 9490TIP3   OH249884   0.440   5.559  15.058 -0.3646  0.6065  0.2756
 9490TIP3    H149885   0.411   5.506  14.984  0.1856  0.0752  0.4236
 9490TIP3    H249886   0.364   5.611  15.083 -0.4769  0.9899 -0.8300
 9491TIP3   OH249887   0.122   0.130  12.425  0.8012  0.9121  0.1635
 9491TIP3    H149888   0.123   0.045  12.382 -0.4975  0.9961 -0.0699
 9491TIP3    H249889   0.067   0.118  12.502  2.1387  1.0747  1.1908
 9492TIP3   OH249890   5.448   0.969   2.959 -0.1645 -0.3263  0.3278
 9492TIP3    H149891   5.407   1.054   2.973 -0.2533 -0.5941  1.8498
 9492TIP3    H249892   5.452   0.929   3.046  3.0033 -0.4778  0.2211
 9493TIP3   OH249893   2.621   4.503   0.528  0.2992 -0.0279  0.5754
 9493TIP3    H149894   2.641   4.585   0.482 -1.0578  0.0046 -0.0230
 9493TIP3    H249895   2.526   4.498   0.527  0.2744 -0.5154  2.6057
 9494TIP3   OH249896   1.419   0.259  12.349  0.0088  0.5830  0.0957
 9494TIP3    H149897   1.377   0.203  12.414 -0.6761  0.8384 -0.1140
 9494TIP3    H249898   1.450   0.198  12.282  0.2215  0.3668  0.3887
 9495TIP3   OH249899   6.648   1.629   4.477  0.2657 -0.1788 -0.0176
 9495TIP3    H149900   6.562   1.645   4.515  0.2429  1.9472 -0.8753
 9495TIP3    H249901   6.709   1.650   4.548  0.1423 -2.6699  0.9352
 9496TIP3   OH249902   0.022   1.635  16.184  0.0249 -0.0078  0.2703
 9496TIP3    H149903   0.053   1.560  16.235  0.7477 -0.9203 -1.4222
 9496TIP3    H249904   0.070   1.629  16.102 -0.0818  2.2056 -0.0118
 9497TIP3   OH249905   3.902   0.601   1.735 -0.3456  0.4037  0.3055
 9497TIP3    H149906   3.859   0.516   1.726  0.2043 -0.0640  1.7810
 9497TIP3    H249907   3.881   0.628   1.825  1.2123  0.8381  0.5596
 9498TIP3   OH249908   4.788   1.035   2.233 -0.1449  0.0724 -0.1396
 9498TIP3    H149909   4.706   1.080   2.253 -0.4775 -0.1887 -0.8547
 9498TIP3    H249910   4.854   1.083   2.282 -0.7558  0.1360  0.6476
 9499TIP3   OH249911   2.197   4.758   3.177 -0.6386  0.1231  0.0089
 9499TIP3    H149912   2.270   4.799   3.131 -0.2265  2.3204  2.4245
 9499TIP3    H249913   2.192   4.669   3.140  1.8252  0.6260 -1.7440
 9500TIP3   OH249914   3.887   4.421  15.397 -0.1779 -0.0001  0.2733
 9500TIP3    H149915   3.859   4.478  15.468  1.0158  0.5338  0.3468
 9500TIP3    H249916   3.881   4.475  15.318 -0.4480 -0.2409  0.1270
 9501TIP3   OH249917   6.429   2.309   1.746  0.1909 -0.4417 -0.0150
 9501TIP3    H149918   6.352   2.252   1.744  0.1839 -0.4148 -0.7873
 9501TIP3    H249919   6.474   2.292   1.663  1.2617 -0.7799  0.6202
 9502TIP3   OH249920   3.625   1.458  15.951 -0.1785  0.1129 -0.1294
 9502TIP3    H149921   3.580   1.386  15.908  0.8979 -0.5319 -0.1975
 9502TIP3    H249922   3.559   1.496  16.010 -0.6262 -1.2182  0.2666
 9503TIP3   OH249923   0.230   3.973   4.707  0.8470  0.1668  0.0274
 9503TIP3    H149924   0.290   4.043   4.732  0.4283 -0.0267  1.6622
 9503TIP3    H249925   0.261   3.896   4.754  0.1944 -0.2896 -0.2633
 9504TIP3   OH249926   0.945   2.940  12.464  0.1516  0.0620  0.0691
 9504TIP3    H149927   0.987   2.857  12.442  1.9386  0.8766  0.1872
 9504TIP3    H249928   0.872   2.947  12.403  1.9998 -0.0504 -2.3188
 9505TIP3   OH249929   6.341   1.033   2.670 -0.5923  0.8426  0.4914
 9505TIP3    H149930   6.340   1.096   2.598 -1.6447  3.2486  2.4266
 9505TIP3    H249931   6.291   1.077   2.740  0.5079 -1.2564  2.7368
 9506TIP3   OH249932   3.723   1.325  12.189 -0.8125 -0.3831  0.2372
 9506TIP3    H149933   3.720   1.245  12.243 -0.5261 -0.1239  0.6423
 9506TIP3    H249934   3.714   1.396  12.252  0.5466 -0.0303  0.0659
 9507TIP3   OH249935   5.878   6.391   4.603 -0.0051 -0.1258  0.1773
 9507TIP3    H149936   5.782   6.383   4.608  0.0546 -0.1379  1.7839
 9507TIP3    H249937   5.901   6.343   4.524 -1.1865 -1.7772  0.7546
 9508TIP3   OH249938   3.228   5.124   3.400  0.1160  0.0202  0.0506
 9508TIP3    H149939   3.260   5.109   3.311  0.2227 -1.4569  0.3234
 9508TIP3    H249940   3.306   5.118   3.454 -0.2243 -1.0497  0.4437
 9509TIP3   OH249941   4.511   6.075  14.361  0.5684 -0.3443 -0.0529
 9509TIP3    H149942   4.513   6.110  14.272  1.8339 -0.9445 -0.2884
 9509TIP3    H249943   4.495   6.151  14.416 -0.4876 -0.0010 -0.7969
 9510TIP3   OH249944   3.282   3.782  10.503  0.5527 -0.0697 -0.1492
 9510TIP3    H149945   3.309   3.868  10.534 -2.4421  1.7993 -2.1842
 9510TIP3    H249946   3.334   3.766  10.425  1.5121 -0.4205  0.5459
 9511TIP3   OH249947   1.923   0.172  11.046  0.6376 -0.0204 -0.1747
 9511TIP3    H149948   1.856   0.232  11.014  1.7739  0.6743 -1.3255
 9511TIP3    H249949   1.877   0.116  11.109 -1.3721 -0.5593 -2.0033
 9512TIP3   OH249950   4.853   5.570  17.271 -0.3575  0.6686 -0.0730
 9512TIP3    H149951   4.781   5.625  17.301 -1.1026 -0.7580  0.8565
 9512TIP3    H249952   4.931   5.609  17.311 -0.9205  0.8181  0.9127
 9513TIP3   OH249953   6.286   1.444  13.123 -0.2069  0.1468 -0.2299
 9513TIP3    H149954   6.294   1.351  13.101 -0.6591  0.0138  0.1503
 9513TIP3    H249955   6.194   1.464  13.107 -0.2457  0.3784  0.2661
 9514TIP3   OH249956   5.004   5.069  13.515  0.4116  0.4618  0.4989
 9514TIP3    H149957   4.967   5.106  13.596 -0.1544 -0.1419  0.5248
 9514TIP3    H249958   4.929   5.031  13.470  0.7329  0.7824 -0.3093
 9515TIP3   OH249959   3.386   0.496  13.327  0.1938  0.6180  0.1149
 9515TIP3    H149960   3.406   0.549  13.250 -1.5120 -1.4412 -1.8612
 9515TIP3    H249961   3.309   0.539  13.366  0.5056  1.1381  0.1682
 9516TIP3   OH249962   5.537   6.294  11.464 -0.0034  0.0439 -0.5911
 9516TIP3    H149963   5.464   6.234  11.449 -1.0422  0.9907  0.4079
 9516TIP3    H249964   5.521   6.330  11.551  1.9905 -0.1418 -0.0925
 9517TIP3   OH249965   2.310   5.772   5.935 -0.1870  0.0535  0.3170
 9517TIP3    H149966   2.288   5.791   6.027 -0.5058 -1.5188  0.5994
 9517TIP3    H249967   2.394   5.816   5.921  0.9313 -1.3608  2.0257
 9518TIP3   OH249968   2.517   2.204  11.499  0.0570  0.2682  0.0480
 9518TIP3    H149969   2.461   2.142  11.453  1.8056 -1.9140  0.6712
 9518TIP3    H249970   2.590   2.220  11.439  0.5103  0.2895  0.5977
 9519TIP3   OH249971   2.904   6.593   5.631 -0.6386 -0.3493  0.6076
 9519TIP3    H149972   2.927   6.595   5.538  0.5716  0.3720  0.9031
 9519TIP3    H249973   2.976   6.545   5.672 -0.4806  0.4993  1.3413
 9520TIP3   OH249974   3.545   5.775  14.109  0.1364 -0.4399 -0.3768
 9520TIP3    H149975   3.520   5.723  14.032 -1.4009 -0.1398 -0.1064
 9520TIP3    H249976   3.638   5.757  14.119  0.3427 -0.6515 -2.1851
 9521TIP3   OH249977   0.313   5.753  14.714 -0.8778 -0.2143  0.0470
 9521TIP3    H149978   0.240   5.797  14.670 -0.9778 -0.5600 -0.1353
 9521TIP3    H249979   0.343   5.817  14.779 -0.4838  0.4584 -0.7749
 9522TIP3   OH249980   4.571   1.380   1.430 -0.4916  0.2464  0.3282
 9522TIP3    H149981   4.606   1.292   1.443 -0.0379  0.4490  0.5147
 9522TIP3    H249982   4.623   1.414   1.357 -0.9774  0.1960 -0.0434
 9523TIP3   OH249983   3.448   3.470  17.019  0.2674  0.7828  0.1932
 9523TIP3    H149984   3.366   3.472  17.069  0.2964  0.5211  0.2519
 9523TIP3    H249985   3.423   3.500  16.931 -0.3773 -1.5484 -0.4894
 9524TIP3   OH249986   3.703   1.428  16.890  0.8491 -0.2358  0.4659
 9524TIP3    H149987   3.660   1.365  16.949  0.7316 -0.7071 -0.1158
 9524TIP3    H249988   3.795   1.401  16.890  0.5853 -1.2828 -0.8299
 9525TIP3   OH249989   5.256   0.228  14.907  0.8034 -0.3895  0.5626
 9525TIP3    H149990   5.278   0.141  14.873  2.1142 -0.1342  0.6912
 9525TIP3    H249991   5.224   0.212  14.995 -0.9189 -0.8985 -0.1161
 9526TIP3   OH249992   2.453   5.439   3.556 -0.2293  0.2165 -0.3366
 9526TIP3    H149993   2.478   5.525   3.521 -1.1241  0.6232 -0.0157
 9526TIP3    H249994   2.489   5.376   3.493  1.1644  0.7773 -0.1316
 9527TIP3   OH249995   2.414   0.149   6.606  0.4709  0.5866 -0.4664
 9527TIP3    H149996   2.428   0.169   6.698 -1.1171 -0.2069 -0.0256
 9527TIP3    H249997   2.497   0.112   6.577  0.8253  0.3759  0.7703
 9528TIP3   OH249998   0.507   4.370  14.606 -0.1756  0.4004 -0.1865
 9528TIP3    H149999   0.549   4.346  14.688  0.4669 -0.0820 -0.6495
 9528TIP3    H250000   0.442   4.301  14.591  1.4142 -0.9277 -1.3258
 9529TIP3   OH250001   3.498   3.043  14.892 -0.3133  0.0072 -0.0957
 9529TIP3    H150002   3.437   3.110  14.924 -0.8374 -0.7107  0.4482
 9529TIP3    H250003   3.471   3.028  14.802 -0.4325  0.2561 -0.1041
 9530TIP3   OH250004   0.771   1.924  14.998  0.5620 -0.0845  0.2343
 9530TIP3    H150005   0.739   2.005  14.959  0.7474 -0.0283  0.1997
 9530TIP3    H250006   0.859   1.945  15.029  1.6734 -0.9650 -2.0939
 9531TIP3   OH250007   6.406   0.032   2.138  0.1937 -0.3826 -0.1007
 9531TIP3    H150008   6.411   0.125   2.113 -2.5341 -0.6359 -2.0732
 9531TIP3    H250009   6.346   0.031   2.213  0.9542 -0.4917  0.5139
 9532TIP3   OH250010   2.043   6.169  10.979  0.2062  0.1187 -0.6000
 9532TIP3    H150011   2.064   6.110  11.052 -1.7389  1.3398  1.0869
 9532TIP3    H250012   2.127   6.194  10.943  1.3352  0.2110  1.9059
 9533TIP3   OH250013   4.035   1.470   0.045  0.3423 -0.3776 -0.4867
 9533TIP3    H150014   3.977   1.530   0.091  1.3537 -1.0073  1.7681
 9533TIP3    H250015   4.002   1.383   0.069  0.0957 -0.7477 -2.0850
 9534TIP3   OH250016   6.216   3.215  13.982  0.3122  0.0617  0.5044
 9534TIP3    H150017   6.232   3.193  14.074 -0.8651  1.2008  1.0184
 9534TIP3    H250018   6.147   3.282  13.986  0.4386  0.3182 -1.1986
 9535TIP3   OH250019   4.359   2.078   0.800 -0.8286 -0.1928  0.3061
 9535TIP3    H150020   4.405   2.147   0.848  0.6998 -0.5052 -0.6556
 9535TIP3    H250021   4.402   1.997   0.827 -1.3482 -0.5797 -0.0070
 9536TIP3   OH250022   4.749   2.794  15.024  0.0748 -0.7225  0.5091
 9536TIP3    H150023   4.783   2.719  14.975  0.3294  0.0791 -0.5533
 9536TIP3    H250024   4.769   2.870  14.970  1.0550  0.2835  2.1757
 9537TIP3   OH250025   4.519   0.144  13.485 -0.2744 -0.6536  0.1654
 9537TIP3    H150026   4.554   0.218  13.535  0.0004 -1.2595  0.9068
 9537TIP3    H250027   4.510   0.074  13.550 -1.9490 -0.8197 -0.2160
 9538TIP3   OH250028   6.217   2.783   1.494  0.6525 -0.0663  0.1526
 9538TIP3    H150029   6.240   2.795   1.586 -0.2704  0.9847  0.2670
 9538TIP3    H250030   6.203   2.689   1.484  0.8283 -0.1954  1.0674
 9539TIP3   OH250031   0.302   0.123   1.690  0.1000 -0.4161  0.0619
 9539TIP3    H150032   0.356   0.179   1.746  0.9335 -1.1986  0.0618
 9539TIP3    H250033   0.293   0.172   1.608  2.3117 -1.0088 -0.5938
 9540TIP3   OH250034   2.145   6.237  13.799  0.2968 -0.8393 -0.4550
 9540TIP3    H150035   2.220   6.230  13.857 -0.6486 -1.8623  0.7013
 9540TIP3    H250036   2.178   6.284  13.722  1.7912 -0.1984  0.5311
 9541TIP3   OH250037   6.114   2.333   4.154 -0.4091 -0.4456 -0.1311
 9541TIP3    H150038   6.154   2.288   4.229 -0.7323 -1.8085 -0.7430
 9541TIP3    H250039   6.022   2.307   4.157 -0.2712 -1.1981 -1.4509
 9542TIP3   OH250040   6.259   2.677  10.483 -0.1498 -0.5475 -0.5079
 9542TIP3    H150041   6.317   2.747  10.513 -1.2828 -0.1880  0.9763
 9542TIP3    H250042   6.184   2.723  10.444  0.2908 -0.9970 -1.9239
 9543TIP3   OH250043   5.635   5.802  12.211 -0.3023  0.0039 -0.1416
 9543TIP3    H150044   5.638   5.878  12.152  2.7887  1.0265  1.1001
 9543TIP3    H250045   5.604   5.838  12.294  0.8143 -0.1097  0.3487
 9544TIP3   OH250046   1.562   2.600  13.741  0.2901  0.0814 -0.4092
 9544TIP3    H150047   1.470   2.624  13.745  0.6015  1.1708  1.2964
 9544TIP3    H250048   1.608   2.684  13.735  1.2185 -0.3965 -0.1857
 9545TIP3   OH250049   5.632   1.552   6.460  0.1159 -0.4029 -0.0264
 9545TIP3    H150050   5.684   1.485   6.504  0.8753  0.7940  0.9663
 9545TIP3    H250051   5.548   1.551   6.504  1.0618  1.1895  1.9398
 9546TIP3   OH250052   1.237   1.735  16.489 -0.2356  0.2332 -0.9804
 9546TIP3    H150053   1.245   1.794  16.414  1.7391  0.7752 -0.4098
 9546TIP3    H250054   1.157   1.763  16.533 -0.8688  0.5811 -2.2926
 9547TIP3   OH250055   0.179   2.429   5.842  0.4428 -0.3617  0.4896
 9547TIP3    H150056   0.092   2.395   5.824  0.5615 -0.9699  1.0681
 9547TIP3    H250057   0.165   2.522   5.862  0.2505  0.3089 -2.3298
 9548TIP3   OH250058   1.883   0.434  15.163 -0.0464 -0.1429  0.1851
 9548TIP3    H150059   1.874   0.524  15.132  0.8908 -0.2644 -0.4726
 9548TIP3    H250060   1.793   0.403  15.170 -0.3632  0.6613 -0.1314
 9549TIP3   OH250061   1.915   5.592  11.428 -0.8896  0.8356  0.0232
 9549TIP3    H150062   2.007   5.586  11.455 -0.8794  2.8562  0.6363
 9549TIP3    H250063   1.887   5.501  11.418  0.9863  0.1576  0.4616
 9550TIP3   OH250064   1.745   0.396   4.301  0.5909  0.6306 -0.3379
 9550TIP3    H150065   1.696   0.478   4.295  0.6153  0.5411 -2.0281
 9550TIP3    H250066   1.684   0.329   4.271  0.5684 -0.0016  1.0361
 9551TIP3   OH250067   1.012   1.921   5.532  0.3813 -0.0019 -0.1555
 9551TIP3    H150068   0.921   1.900   5.510 -0.2269  1.4990  0.7933
 9551TIP3    H250069   1.033   1.861   5.604  0.3139 -0.6364 -0.6461
 9552TIP3   OH250070   0.686   1.558  15.979 -0.2562  0.4464 -0.4967
 9552TIP3    H150071   0.702   1.645  15.942  0.4154  0.4259 -0.2821
 9552TIP3    H250072   0.663   1.576  16.071 -1.2615  0.4593 -0.7424
 9553TIP3   OH250073   5.074   6.117   2.445  0.3919 -0.8519 -0.4344
 9553TIP3    H150074   5.026   6.175   2.504  1.8632 -0.0066 -0.0126
 9553TIP3    H250075   5.011   6.048   2.422 -0.0011 -1.7385  2.8428
 9554TIP3   OH250076   3.165   3.300   1.568  0.2976  0.8494 -0.0589
 9554TIP3    H150077   3.103   3.266   1.503 -2.4272 -0.0109  2.7425
 9554TIP3    H250078   3.110   3.336   1.637  2.9118 -0.0710  2.7083
 9555TIP3   OH250079   4.545   3.526  11.950  0.4409  0.4601 -0.3795
 9555TIP3    H150080   4.546   3.575  11.868  1.4323 -0.3395 -0.8781
 9555TIP3    H250081   4.608   3.571  12.006  1.2065 -0.0992 -0.7680
 9556TIP3   OH250082   4.162   5.667   0.088 -0.4430 -0.2726 -0.2500
 9556TIP3    H150083   4.244   5.620   0.105  0.5540  1.8647  1.4055
 9556TIP3    H250084   4.127   5.626   0.009  1.5691 -2.1075 -0.2999
 9557TIP3   OH250085   1.473   5.554   0.200  0.1473 -0.8457 -0.0074
 9557TIP3    H150086   1.447   5.568   0.291  0.8448 -0.9178  0.2061
 9557TIP3    H250087   1.554   5.503   0.205  1.7881  1.5681 -0.5849
 9558TIP3   OH250088   3.390   6.125   1.143 -0.0307  0.3190 -0.1965
 9558TIP3    H150089   3.443   6.048   1.125 -2.9925 -1.9624  0.0050
 9558TIP3    H250090   3.374   6.164   1.058 -1.3422 -1.4279 -0.8226
 9559TIP3   OH250091   2.863   3.322   6.230 -0.4846 -0.6702 -0.0384
 9559TIP3    H150092   2.823   3.275   6.303 -0.6038 -0.0877  0.2791
 9559TIP3    H250093   2.949   3.281   6.219  0.4219  0.5589  1.8169
 9560TIP3   OH250094   1.457   3.772   1.729  0.0569 -0.1484  0.1701
 9560TIP3    H150095   1.441   3.846   1.670  1.3004 -0.1079 -0.1330
 9560TIP3    H250096   1.539   3.734   1.699  0.2154 -0.7243  1.2769
 9561TIP3   OH250097   5.094   5.323  11.955 -0.5671 -0.0329 -0.1516
 9561TIP3    H150098   5.178   5.282  11.974 -0.6653 -0.4134 -0.5226
 9561TIP3    H250099   5.050   5.262  11.896 -0.3587  1.0151 -1.4310
 9562TIP3   OH250100   0.707   1.026  10.747  0.3704 -1.0167  0.3436
 9562TIP3    H150101   0.701   0.959  10.679 -1.6908 -0.7651  0.2202
 9562TIP3    H250102   0.695   1.109  10.701  0.0225 -0.7670  0.8775
 9563TIP3   OH250103   6.543   0.529  11.986 -0.1037  0.1872  0.5827
 9563TIP3    H150104   6.576   0.500  11.901 -0.4481 -2.4252  1.2622
 9563TIP3    H250105   6.506   0.616  11.969  2.3769  0.9884 -1.2936
 9564TIP3   OH250106   3.439   2.707  15.077  0.4878 -0.3024  0.1095
 9564TIP3    H150107   3.529   2.726  15.103  0.1044  0.6002  0.8207
 9564TIP3    H250108   3.385   2.744  15.146 -0.4260 -1.2897 -0.0506
 9565TIP3   OH250109   6.343   0.802   6.454  0.9470  0.3058 -0.3276
 9565TIP3    H150110   6.338   0.863   6.527 -0.6082  0.7707 -0.7968
 9565TIP3    H250111   6.329   0.855   6.376  2.2957 -0.2301 -0.9881
 9566TIP3   OH250112   6.316   1.973   4.951 -0.0641 -0.3204 -0.0060
 9566TIP3    H150113   6.380   2.040   4.972  0.1270 -0.2322 -0.8268
 9566TIP3    H250114   6.237   1.998   5.000  0.4371 -0.2816  0.7922
 9567TIP3   OH250115   4.798   4.935  10.915  0.7500 -0.1407 -0.5289
 9567TIP3    H150116   4.830   4.943  10.825 -0.8603  0.2964 -1.1034
 9567TIP3    H250117   4.877   4.932  10.969  1.7881  2.9815 -1.6480
 9568TIP3   OH250118   2.327   1.877  16.284 -0.0521  0.2484 -0.7083
 9568TIP3    H150119   2.279   1.809  16.238  0.6355  0.1527 -1.3025
 9568TIP3    H250120   2.283   1.884  16.369 -0.5675 -0.4356 -0.9111
 9569TIP3   OH250121   1.516   4.074   1.071  0.1613  0.0625  0.1381
 9569TIP3    H150122   1.506   4.140   1.140 -0.1779  0.2326 -0.0757
 9569TIP3    H250123   1.507   4.122   0.989 -1.0633 -0.3895 -0.0181
 9570TIP3   OH250124   2.529   3.050  17.351 -0.1342  0.0424  0.1750
 9570TIP3    H150125   2.439   3.019  17.357 -0.3812  0.4964 -1.0247
 9570TIP3    H250126   2.527   3.117  17.283  0.8897  0.8792  0.9400
 9571TIP3   OH250127   0.914   5.915  11.962 -0.4197  0.0827 -0.3511
 9571TIP3    H150128   1.000   5.919  12.003 -1.6252 -0.0695  2.3980
 9571TIP3    H250129   0.877   6.002  11.974 -0.6637  0.1562 -1.5256
 9572TIP3   OH250130   0.585   5.724  13.419 -0.1355  0.2968  1.1156
 9572TIP3    H150131   0.600   5.638  13.379 -1.0648  1.4280 -1.9920
 9572TIP3    H250132   0.490   5.733  13.422 -0.1346  2.0892 -1.0359
 9573TIP3   OH250133   0.036   2.403  15.649 -0.0462  0.0576 -0.0783
 9573TIP3    H150134   0.100   2.352  15.600  0.4361  1.0247 -0.4977
 9573TIP3    H250135  -0.043   2.402  15.594  0.3724  0.8183 -0.7245
 9574TIP3   OH250136   3.688   2.808   4.384  0.4462  0.3984 -0.2780
 9574TIP3    H150137   3.783   2.819   4.374  0.7724 -0.4079  1.5191
 9574TIP3    H250138   3.668   2.728   4.336  0.9419 -0.2268  0.5368
 9575TIP3   OH250139   0.737   0.889  14.234  0.2381  0.1199 -0.0022
 9575TIP3    H150140   0.709   0.935  14.313  2.6526  0.0388  0.9715
 9575TIP3    H250141   0.804   0.945  14.196  0.7068 -0.9186 -0.7509
 9576TIP3   OH250142   1.725   5.260  15.693 -0.6144  0.4281  0.2698
 9576TIP3    H150143   1.696   5.168  15.694  1.1324 -0.1580  0.3714
 9576TIP3    H250144   1.726   5.283  15.600  2.1326 -0.7894 -0.1013
 9577TIP3   OH250145   6.356   6.319  12.894  0.2700 -0.0045 -0.3424
 9577TIP3    H150146   6.404   6.349  12.817  0.6064  0.8900  0.2065
 9577TIP3    H250147   6.288   6.385  12.908  1.4060  0.9269  1.2411
 9578TIP3   OH250148   3.109   4.378  13.010 -0.8511  0.0632  0.2943
 9578TIP3    H150149   3.128   4.407  12.921 -0.6920 -0.7327  0.0602
 9578TIP3    H250150   3.128   4.454  13.065 -0.8808  0.5385 -0.3403
 9579TIP3   OH250151   3.707   5.992  12.508  0.4756 -0.1708  0.5693
 9579TIP3    H150152   3.674   6.025  12.591 -0.4935 -1.1992  0.6149
 9579TIP3    H250153   3.653   5.916  12.489 -0.0927  0.6880 -1.5639
 9580TIP3   OH250154   2.021   6.564  13.745 -0.2983  0.2079 -0.2078
 9580TIP3    H150155   2.078   6.559  13.823 -0.3706  0.7955 -0.1102
 9580TIP3    H250156   2.081   6.551  13.671 -0.0074  0.9145 -0.1102
 9581TIP3   OH250157   3.924   5.610  13.618 -0.0012  0.2992 -0.5015
 9581TIP3    H150158   3.955   5.642  13.703  0.4577  1.3103 -1.0235
 9581TIP3    H250159   3.829   5.605  13.628 -0.0786  1.6864 -0.3208
 9582TIP3   OH250160   2.317   2.252   3.479  0.3440 -0.0173  0.1276
 9582TIP3    H150161   2.267   2.242   3.560 -0.7533 -1.9337 -0.6961
 9582TIP3    H250162   2.408   2.247   3.507 -0.0036 -2.3200  1.1716
 9583TIP3   OH250163   1.405   5.587   4.170 -0.2890  0.0967  0.0262
 9583TIP3    H150164   1.321   5.632   4.158 -0.9001 -0.9568  0.2208
 9583TIP3    H250165   1.411   5.527   4.095 -0.1843 -0.5344  0.5257
 9584TIP3   OH250166   3.634   3.199  13.537  0.2838 -0.7330  0.3503
 9584TIP3    H150167   3.539   3.207  13.529  0.3273 -0.7519 -0.2718
 9584TIP3    H250168   3.658   3.127  13.478  0.6814 -0.7408  0.5128
 9585TIP3   OH250169   3.082   5.744  16.611 -0.0025  0.1893 -0.1592
 9585TIP3    H150170   3.168   5.783  16.621 -0.4425  0.7672  1.6966
 9585TIP3    H250171   3.030   5.811  16.567  0.5043 -0.2352 -1.4648
 9586TIP3   OH250172   4.493   2.133  11.745  0.5355 -0.2710  0.0736
 9586TIP3    H150173   4.541   2.201  11.698  1.1425  0.1137  1.1953
 9586TIP3    H250174   4.499   2.056  11.690 -0.8674  0.7525 -1.6311
 9587TIP3   OH250175   0.670   3.627   5.586 -0.2670  0.0155  0.4141
 9587TIP3    H150176   0.618   3.680   5.526  1.2931 -0.6512 -1.6306
 9587TIP3    H250177   0.617   3.548   5.600 -0.4621 -0.0270 -0.4891
 9588TIP3   OH250178   6.496   4.211  15.165  0.0996 -0.0569 -0.2170
 9588TIP3    H150179   6.580   4.172  15.189  0.9881  1.7002 -0.2739
 9588TIP3    H250180   6.517   4.302  15.144 -1.6467  0.1386 -1.3861
 9589TIP3   OH250181   0.124   3.624   4.455 -0.3810  0.3223 -0.1294
 9589TIP3    H150182   0.195   3.589   4.400  1.6519  2.3564  1.0095
 9589TIP3    H250183   0.121   3.566   4.531 -1.8143 -1.3074 -1.3633
 9590TIP3   OH250184   2.514   3.919   2.049 -0.8989 -0.0524  0.3627
 9590TIP3    H150185   2.481   3.957   2.131 -0.3446  0.1856  0.4816
 9590TIP3    H250186   2.527   3.826   2.070 -2.7831 -0.4694 -0.0887
 9591TIP3   OH250187   6.528   4.288  14.224  0.2434 -0.1832  0.5143
 9591TIP3    H150188   6.499   4.310  14.135 -0.2932 -0.4844  0.6049
 9591TIP3    H250189   6.620   4.263  14.215  0.4030  0.5272  0.1658
 9592TIP3   OH250190   1.025   4.275   4.183 -0.1794  0.4120  0.2538
 9592TIP3    H150191   1.012   4.218   4.259  0.7476  0.6052  0.5747
 9592TIP3    H250192   0.937   4.294   4.152 -0.5020 -1.3845 -0.0132
 9593TIP3   OH250193   3.925   0.173  13.616  0.6933 -0.5980  0.2207
 9593TIP3    H150194   4.015   0.204  13.629  0.2224  0.4965  1.1182
 9593TIP3    H250195   3.926   0.131  13.530  1.9203 -0.0553 -0.0530
 9594TIP3   OH250196   5.607   4.864  12.233 -0.3468  0.3347 -0.0503
 9594TIP3    H150197   5.577   4.858  12.142  2.1639  0.0148 -0.9348
 9594TIP3    H250198   5.606   4.774  12.265  1.8589 -0.0422 -0.9006
 9595TIP3   OH250199   4.501   1.554  11.150 -0.4652  0.1465 -0.5543
 9595TIP3    H150200   4.457   1.539  11.066 -2.6060  0.7225  0.3884
 9595TIP3    H250201   4.476   1.643  11.175 -0.2228 -0.1595  0.8869
 9596TIP3   OH250202   5.646   2.577  16.122  0.5004  0.0343 -0.1049
 9596TIP3    H150203   5.688   2.631  16.055 -0.0578  0.9692  0.2695
 9596TIP3    H250204   5.646   2.489  16.086 -0.5647  0.6532 -1.7287
 9597TIP3   OH250205   2.336   5.240  16.497 -0.2113  0.2143  0.2597
 9597TIP3    H150206   2.409   5.286  16.539 -0.5835 -0.1541  1.3488
 9597TIP3    H250207   2.349   5.254  16.403  1.6216 -0.3784  0.3920
 9598TIP3   OH250208   6.356   5.317  11.956  0.3586 -0.5281  0.3254
 9598TIP3    H150209   6.358   5.252  11.886  0.6481 -1.8315  1.4957
 9598TIP3    H250210   6.416   5.386  11.926 -2.2910  0.8247 -2.3512
 9599TIP3   OH250211   5.699   4.075   1.429 -1.0059 -0.0080  0.4520
 9599TIP3    H150212   5.780   4.059   1.478 -2.1761  0.3228  2.6297
 9599TIP3    H250213   5.685   3.995   1.379  0.8724  0.1034 -0.3472
 9600TIP3   OH250214   6.116   0.936  14.159  0.1216  0.5767 -0.1370
 9600TIP3    H150215   6.198   0.886  14.161  0.8404  1.7260  0.0168
 9600TIP3    H250216   6.059   0.890  14.220  1.5883  1.2667  1.8768
 9601TIP3   OH250217   6.407   2.308  13.208  0.6499  0.1593 -0.3089
 9601TIP3    H150218   6.432   2.223  13.244 -1.4621 -0.9848 -1.3323
 9601TIP3    H250219   6.412   2.296  13.113  0.6974  1.3243 -0.4721
 9602TIP3   OH250220   2.234   4.705  13.366  0.1764  0.0134  0.2231
 9602TIP3    H150221   2.186   4.785  13.386 -0.5267 -0.3971  0.2229
 9602TIP3    H250222   2.239   4.703  13.270 -0.4335 -0.2899  0.1894
 9603TIP3   OH250223   5.174   5.657   4.918 -0.2619 -0.1962  0.0893
 9603TIP3    H150224   5.200   5.569   4.946  1.1558  0.3355  0.5399
 9603TIP3    H250225   5.202   5.714   4.989  1.0141  0.8709 -1.1991
 9604TIP3   OH250226   4.664   3.122  17.342 -0.4437  0.3497 -0.7421
 9604TIP3    H150227   4.673   3.068  17.264 -2.1350 -0.6294 -0.3230
 9604TIP3    H250228   4.635   3.061  17.410  0.7436  1.2210  0.5954
 9605TIP3   OH250229   0.992   2.711   1.332  0.2928 -0.9054 -0.4431
 9605TIP3    H150230   0.996   2.775   1.261  0.1442 -1.6406 -1.1212
 9605TIP3    H250231   0.903   2.716   1.365  1.0454  1.3893  1.5505
 9606TIP3   OH250232   3.277   5.841   6.530  0.2229 -0.4952 -0.3548
 9606TIP3    H150233   3.251   5.792   6.608 -1.4958 -1.5110 -1.4801
 9606TIP3    H250234   3.323   5.776   6.476  1.5620  0.2441 -0.1470
 9607TIP3   OH250235   1.952   4.474   4.200 -0.1464  0.7828 -0.0102
 9607TIP3    H150236   1.874   4.502   4.152 -0.3765  0.2773  0.0656
 9607TIP3    H250237   1.988   4.401   4.150 -0.2752  0.3826  0.4675
 9608TIP3   OH250238   5.543   0.301  17.395  0.2109  0.0155 -0.0697
 9608TIP3    H150239   5.450   0.318  17.412  0.4273  0.8018  0.3315
 9608TIP3    H250240   5.573   0.378  17.348  0.5102 -0.5344 -0.8062
 9609TIP3   OH250241   4.300   3.243  16.208 -0.6205 -0.3072  0.2285
 9609TIP3    H150242   4.280   3.317  16.149  1.6829 -0.8353 -1.3210
 9609TIP3    H250243   4.373   3.274  16.261 -0.9828 -0.7902  1.0279
 9610TIP3   OH250244   6.567   6.694   5.285 -0.1452  0.3066  0.2593
 9610TIP3    H150245   6.474   6.675   5.295  0.2115 -1.6470  0.3071
 9610TIP3    H250246   6.596   6.722   5.372 -0.3775 -0.7197  0.6861
 9611TIP3   OH250247   0.009   5.622  16.102  0.1724  0.0868 -0.6362
 9611TIP3    H150248  -0.040   5.567  16.042 -0.0803 -0.2130 -0.1633
 9611TIP3    H250249   0.084   5.569  16.129  2.0810  1.3223 -3.0777
 9612TIP3   OH250250   6.329   1.872  16.125  0.2542 -0.3563 -0.2333
 9612TIP3    H150251   6.273   1.861  16.048  0.0119 -3.5060  0.2804
 9612TIP3    H250252   6.398   1.808  16.113  1.0681  0.1591  1.4871
 9613TIP3   OH250253   4.269   3.232  11.582 -0.7665  0.0734 -0.6886
 9613TIP3    H150254   4.212   3.232  11.659 -0.8679 -1.6689 -0.7172
 9613TIP3    H250255   4.347   3.280  11.610 -0.4566 -1.2043  0.8092
 9614TIP3   OH250256   3.980   2.320   4.900  0.6691 -0.0523  0.0467
 9614TIP3    H150257   3.927   2.334   4.978  1.6728  0.5722  0.6355
 9614TIP3    H250258   4.070   2.335   4.928  1.3634 -2.5431 -0.5654
 9615TIP3   OH250259   5.310   4.802  11.308  0.1818 -0.4279  0.2871
 9615TIP3    H150260   5.381   4.747  11.340  0.8970 -0.5312 -1.3732
 9615TIP3    H250261   5.287   4.765  11.223  1.1949  2.1940 -1.2487
 9616TIP3   OH250262   4.310   6.275  16.195 -0.0101 -0.0370  0.3188
 9616TIP3    H150263   4.233   6.219  16.192 -1.1386  1.3256  2.0687
 9616TIP3    H250264   4.324   6.292  16.288  3.3131 -1.3790  0.2109
 9617TIP3   OH250265   6.437   5.368   0.994 -0.3946 -0.1147 -0.0383
 9617TIP3    H150266   6.378   5.296   0.970 -0.1912  0.0264 -0.9951
 9617TIP3    H250267   6.456   5.354   1.087 -0.9037 -0.8989 -0.0470
 9618TIP3   OH250268   0.698   3.185  12.707  0.0761 -0.2359  0.2792
 9618TIP3    H150269   0.654   3.124  12.650  1.3207 -2.0077  1.1196
 9618TIP3    H250270   0.631   3.249  12.731 -1.4226 -1.5813 -0.1855
 9619TIP3   OH250271   0.325   4.132   5.417 -0.1626 -0.7870  0.0525
 9619TIP3    H150272   0.321   4.097   5.506  1.0641 -2.8034 -0.6189
 9619TIP3    H250273   0.411   4.107   5.385 -0.3670  0.3965 -1.5162
 9620TIP3   OH250274   6.463   6.365   2.270  0.3426 -0.3062 -0.1610
 9620TIP3    H150275   6.435   6.431   2.333 -0.6974  0.9304 -1.7950
 9620TIP3    H250276   6.491   6.291   2.322  1.2396  1.3051  1.7551
 9621TIP3   OH250277   3.847   5.011  17.204  0.4403 -0.1991 -0.0046
 9621TIP3    H150278   3.751   5.008  17.199  0.3340  1.3182  0.5742
 9621TIP3    H250279   3.865   5.063  17.283  1.7292  0.1173 -0.4912
 9622TIP3   OH250280   0.271   3.513  16.001  0.4035 -0.1324 -0.1877
 9622TIP3    H150281   0.201   3.575  16.023  0.2177 -0.1967 -0.5851
 9622TIP3    H250282   0.348   3.546  16.047  0.4233  0.6688 -0.7782
 9623TIP3   OH250283   6.105   1.181  17.282 -0.2406 -0.7900  0.1237
 9623TIP3    H150284   6.060   1.170  17.365 -1.5087 -0.0401 -0.4406
 9623TIP3    H250285   6.046   1.235  17.229  0.2517 -1.7410 -1.4813
 9624TIP3   OH250286   0.919   5.239   3.108  0.3394 -0.2358  0.4179
 9624TIP3    H150287   0.960   5.278   3.030  0.9959 -1.2876  0.2261
 9624TIP3    H250288   0.881   5.314   3.154 -0.1102  0.3971 -0.9379
 9625TIP3   OH250289   6.579   4.718  11.702 -0.6700  0.2897  0.0535
 9625TIP3    H150290   6.567   4.629  11.735 -0.4411  0.8420  1.6906
 9625TIP3    H250291   6.634   4.707  11.624  1.1643 -0.8312  1.4338
 9626TIP3   OH250292   1.005   4.336  11.995  0.1300  0.2956  0.0633
 9626TIP3    H150293   0.950   4.388  11.937  1.2807  1.2955 -0.1717
 9626TIP3    H250294   0.950   4.317  12.071 -0.7529  0.6592 -0.4756
 9627TIP3   OH250295   5.645   2.111   0.885 -0.1720  0.5120  0.0532
 9627TIP3    H150296   5.640   2.120   0.790  0.3184  0.2984  0.0013
 9627TIP3    H250297   5.676   2.022   0.899  2.5006  1.3976  0.3179
 9628TIP3   OH250298   6.618   6.689   0.604 -0.2297  0.1926  0.3046
 9628TIP3    H150299   6.527   6.702   0.578 -0.2910 -0.9320 -0.0859
 9628TIP3    H250300   6.613   6.638   0.685  0.0554  0.4636  0.4979
 9629TIP3   OH250301   0.822   0.895  12.849  0.4255  0.3946  0.0067
 9629TIP3    H150302   0.804   0.884  12.943  3.3840 -0.8877  0.5600
 9629TIP3    H250303   0.785   0.817  12.808  1.3671 -0.3742  0.5611
 9630TIP3   OH250304   5.964   6.341  16.656  0.2754  0.5134  0.6887
 9630TIP3    H150305   6.034   6.301  16.604 -0.7776 -0.7112  0.1728
 9630TIP3    H250306   5.899   6.368  16.592 -0.2201  0.6419  1.2407
 9631TIP3   OH250307   3.288   6.181  11.873  0.4766 -0.5535 -0.4541
 9631TIP3    H150308   3.294   6.087  11.852  1.4504 -0.2392 -1.6697
 9631TIP3    H250309   3.359   6.197  11.934  0.3640 -0.5844 -0.3140
 9632TIP3   OH250310   3.219   3.253   1.885  0.3531 -0.4247 -0.1300
 9632TIP3    H150311   3.163   3.321   1.847 -0.9473 -1.4192 -0.0768
 9632TIP3    H250312   3.276   3.299   1.947  0.3262  0.7625 -0.9679
 9633TIP3   OH250313   2.679   3.275   5.349 -0.5699 -0.0326 -0.1998
 9633TIP3    H150314   2.742   3.274   5.421 -1.2742 -1.4850  0.4416
 9633TIP3    H250315   2.732   3.255   5.272  0.0117  0.4155  0.0731
 9634TIP3   OH250316   6.735   5.349   4.618 -0.4442 -0.4033 -0.0896
 9634TIP3    H150317   6.825   5.377   4.601 -0.7475  0.1618 -0.8667
 9634TIP3    H250318   6.742   5.282   4.686  0.3497  1.4459  1.7481
 9635TIP3   OH250319   6.723   1.791  11.161 -0.1327 -0.3194 -0.0464
 9635TIP3    H150320   6.810   1.802  11.123 -1.2369 -1.8653 -3.4440
 9635TIP3    H250321   6.667   1.853  11.114 -1.2166 -0.6631  0.7234
 9636TIP3   OH250322   5.058   5.521   2.805 -0.2445  0.1129  0.1738
 9636TIP3    H150323   5.090   5.438   2.839  1.0527  0.5797  0.1456
 9636TIP3    H250324   5.069   5.514   2.710 -1.4165 -0.1881  0.0418
 9637TIP3   OH250325   1.799   0.088   5.299  0.0814 -0.1496  0.0761
 9637TIP3    H150326   1.830   0.091   5.389  0.5080 -1.9569  0.0252
 9637TIP3    H250327   1.772   0.178   5.280  0.3453  0.3450  1.8621
 9638TIP3   OH250328   1.761   3.494   5.948  0.4954 -0.3238 -0.9514
 9638TIP3    H150329   1.827   3.554   5.914  1.1402 -0.0847  0.6319
 9638TIP3    H250330   1.809   3.414   5.968  0.5526  0.1613  1.0977
 9639TIP3   OH250331   1.958   5.500  17.128  0.6087 -0.0460 -0.2953
 9639TIP3    H150332   2.031   5.543  17.085  1.6112 -1.4155 -0.0126
 9639TIP3    H250333   1.941   5.421  17.076 -1.3075  0.6930 -0.9044
 9640TIP3   OH250334   2.287   4.694  13.083 -0.1816 -0.2155  0.0242
 9640TIP3    H150335   2.269   4.784  13.058  0.6322  0.4929  1.8580
 9640TIP3    H250336   2.365   4.670  13.033  1.3772  1.1557  1.6472
 9641TIP3   OH250337   3.741   3.099  13.826 -0.5497 -0.3357  0.5862
 9641TIP3    H150338   3.824   3.104  13.873 -1.1501 -2.4898  2.0291
 9641TIP3    H250339   3.725   3.188  13.795  1.2185  0.5788  2.1336
 9642TIP3   OH250340   0.743   2.248   4.106  0.3979 -0.3189 -1.0681
 9642TIP3    H150341   0.679   2.312   4.136 -0.1083 -1.5163  0.4886
 9642TIP3    H250342   0.828   2.287   4.129  0.1795  0.4608 -1.5320
 9643TIP3   OH250343   0.465   6.710  13.013  0.2766 -0.5077  0.2801
 9643TIP3    H150344   0.374   6.724  13.042  0.1061  0.9922 -0.8871
 9643TIP3    H250345   0.456   6.663  12.930  0.6583 -1.9602  1.0308
 9644TIP3   OH250346   5.498   2.344  15.300 -0.2802 -0.7339 -0.0737
 9644TIP3    H150347   5.513   2.438  15.303  0.1340 -0.8128  2.1686
 9644TIP3    H250348   5.585   2.305  15.306 -0.4421 -1.2897 -1.0585
 9645TIP3   OH250349   5.985   1.711   1.251 -0.4831  0.1444 -0.0084
 9645TIP3    H150350   5.929   1.639   1.223 -1.5580  0.6520  0.7648
 9645TIP3    H250351   6.073   1.673   1.256 -0.8894 -0.8774 -0.4385
 9646TIP3   OH250352   1.942   6.259  16.132 -0.0454  0.2999  0.3826
 9646TIP3    H150353   1.995   6.184  16.159  1.9552  2.1386  1.8929
 9646TIP3    H250354   1.866   6.257  16.190  1.1428  0.6759  2.0101
 9647TIP3   OH250355   2.306   0.563   2.694  0.0321  0.0994 -0.2338
 9647TIP3    H150356   2.212   0.576   2.707  0.1003 -0.3750  0.7480
 9647TIP3    H250357   2.315   0.471   2.670  0.1864  0.3216 -1.1012
 9648TIP3   OH250358   6.367   4.788   1.147 -0.1286 -0.1233 -0.7291
 9648TIP3    H150359   6.410   4.742   1.220 -1.2493  0.7920  0.5654
 9648TIP3    H250360   6.438   4.807   1.086  0.4126 -3.4840 -1.3471
 9649TIP3   OH250361   2.194   1.190   5.467 -0.1409  0.5086 -0.0241
 9649TIP3    H150362   2.185   1.101   5.434 -0.1200  1.1838 -2.0174
 9649TIP3    H250363   2.286   1.200   5.489  0.3550  0.6883 -1.9883
 9650TIP3   OH250364   5.935   2.944  11.040  0.1488  0.1568  0.0771
 9650TIP3    H150365   5.915   3.008  11.108 -1.1605 -1.7010  1.5326
 9650TIP3    H250366   5.851   2.906  11.017  0.8131 -0.5957 -1.2295
 9651TIP3   OH250367   4.845   2.263   3.674 -0.4161  0.5691 -0.1363
 9651TIP3    H150368   4.858   2.285   3.766 -1.8751  1.4966 -0.1140
 9651TIP3    H250369   4.918   2.304   3.629 -0.1924  0.9030  0.5090
 9652TIP3   OH250370   1.103   2.385  11.646  0.0550  0.3637  0.2610
 9652TIP3    H150371   1.080   2.301  11.608 -0.5977 -0.7584  2.8618
 9652TIP3    H250372   1.187   2.369  11.691 -0.5253  0.7720  1.5531
 9653TIP3   OH250373   6.306   5.544   1.323 -0.1933 -0.3592  0.4074
 9653TIP3    H150374   6.240   5.607   1.293  0.9211  0.2407 -0.8732
 9653TIP3    H250375   6.267   5.505   1.401 -1.2886  1.3196  0.7719
 9654TIP3   OH250376   1.013   2.817  11.256  0.7504  0.4979  0.0216
 9654TIP3    H150377   1.053   2.758  11.193  0.5683  0.2077  0.1765
 9654TIP3    H250378   1.078   2.886  11.269  1.4004 -0.2031  0.6130
 9655TIP3   OH250379   3.994   1.088   5.405  0.0549 -0.3359 -0.2131
 9655TIP3    H150380   3.996   1.157   5.339  0.8905 -0.3612 -0.2298
 9655TIP3    H250381   4.069   1.107   5.461 -1.4755  0.5160  1.6182
 9656TIP3   OH250382   2.727   2.178   0.950  0.8940  0.2026  0.4298
 9656TIP3    H150383   2.690   2.128   0.877 -1.5621  1.2975  0.8155
 9656TIP3    H250384   2.752   2.262   0.911 -0.1337  0.6719  0.7355
 9657TIP3   OH250385   0.788   4.588   1.208 -0.2132  0.2554  0.2093
 9657TIP3    H150386   0.874   4.628   1.214  0.5144 -1.3036  0.8310
 9657TIP3    H250387   0.795   4.508   1.260 -0.7354 -2.0783 -3.0153
 9658TIP3   OH250388   0.546   5.706   2.586  0.2585  0.0870 -0.1464
 9658TIP3    H150389   0.636   5.738   2.584  0.1995  0.5502  1.9897
 9658TIP3    H250390   0.496   5.772   2.539  0.8051  0.7097  0.1237
 9659TIP3   OH250391   5.302   5.978   2.553  0.0901 -0.6304 -0.4304
 9659TIP3    H150392   5.215   6.013   2.537  1.5154  3.1112 -1.0119
 9659TIP3    H250393   5.317   5.917   2.481 -2.0806 -1.6096 -0.1409
 9660TIP3   OH250394   0.168   4.360   2.622  0.2934 -0.3814  0.1484
 9660TIP3    H150395   0.093   4.367   2.680  1.2881  0.4909  1.3833
 9660TIP3    H250396   0.212   4.445   2.628  1.2558 -0.7905 -0.7135
 9661TIP3   OH250397   5.539   4.606  15.720  0.1805 -0.2091  0.8356
 9661TIP3    H150398   5.523   4.698  15.699 -0.5884 -0.3318  0.8657
 9661TIP3    H250399   5.597   4.575  15.650  1.6167  0.6482  1.5813
 9662TIP3   OH250400   2.160   0.600   3.350  0.2871 -0.0386  0.2211
 9662TIP3    H150401   2.102   0.562   3.416 -0.0536  0.2024  0.0653
 9662TIP3    H250402   2.245   0.605   3.393  0.0443  0.2176  0.6846
 9663TIP3   OH250403   0.892   0.479   3.399 -0.4875 -0.2801 -0.6804
 9663TIP3    H150404   0.936   0.516   3.323 -0.5963 -1.6192 -1.4207
 9663TIP3    H250405   0.961   0.471   3.465 -0.1063 -0.3212 -1.0790
 9664TIP3   OH250406   1.460   1.918  14.181 -0.2707  0.0424  0.5011
 9664TIP3    H150407   1.519   1.843  14.196  1.2339  1.2678  1.0122
 9664TIP3    H250408   1.382   1.897  14.233  1.0895 -0.1194  2.6205
 9665TIP3   OH250409   3.233   0.433   4.075 -0.1279 -0.4708  0.1919
 9665TIP3    H150410   3.323   0.434   4.107 -0.4528  0.9895  1.1452
 9665TIP3    H250411   3.237   0.381   3.995  1.5272 -0.5812  0.3074
 9666TIP3   OH250412   1.816   3.076  15.625  0.2292 -0.1336 -0.3522
 9666TIP3    H150413   1.814   3.143  15.693 -0.8439  2.7688 -3.0112
 9666TIP3    H250414   1.906   3.042  15.627  0.4303  0.3703  1.9428
 9667TIP3   OH250415   5.912   5.552   4.710  0.6064 -0.0374 -0.2040
 9667TIP3    H150416   5.850   5.616   4.677 -0.3317 -1.2869 -0.9437
 9667TIP3    H250417   5.976   5.603   4.760 -0.1747  1.4338 -0.6778
 9668TIP3   OH250418   0.890   5.861   6.719  0.6278  0.3422  0.3339
 9668TIP3    H150419   0.806   5.896   6.751  0.9341  0.8777  0.5563
 9668TIP3    H250420   0.917   5.923   6.651 -0.8906 -1.7050 -2.3375
 9669TIP3   OH250421   2.960   0.007   6.399 -0.8890 -0.7511 -0.1002
 9669TIP3    H150422   2.932  -0.006   6.309  0.2097 -1.1035 -0.3989
 9669TIP3    H250423   2.976  -0.081   6.433 -0.9274 -0.5975  0.3297
 9670TIP3   OH250424   3.237   3.149   3.504  0.1805  0.1409 -0.1640
 9670TIP3    H150425   3.306   3.143   3.439  0.7068 -0.0594  0.4007
 9670TIP3    H250426   3.266   3.092   3.575 -0.2277  0.5968  0.3790
 9671TIP3   OH250427   0.163   4.400   4.706  0.0446 -0.4251  0.4792
 9671TIP3    H150428   0.085   4.345   4.705 -0.0514 -0.2842 -0.0731
 9671TIP3    H250429   0.232   4.347   4.666 -0.0160 -0.2047  0.0665
 9672TIP3   OH250430   2.133   5.649   4.853 -0.4525  0.5599 -0.6894
 9672TIP3    H150431   2.037   5.647   4.853 -0.4428 -0.2112 -0.5805
 9672TIP3    H250432   2.156   5.726   4.801 -1.1364  1.2177 -0.0322
 9673TIP3   OH250433   0.958   3.559  15.193  0.8862 -0.3900 -0.1410
 9673TIP3    H150434   0.909   3.479  15.172  0.6481 -0.7884  1.7694
 9673TIP3    H250435   1.046   3.528  15.214  0.5108 -0.3383  1.7002
 9674TIP3   OH250436   0.653   5.143   0.250  0.0710  0.0182  0.1868
 9674TIP3    H150437   0.739   5.183   0.238 -0.8766  1.7514 -1.5384
 9674TIP3    H250438   0.592   5.216   0.237 -1.7387 -1.7712 -1.9784
 9675TIP3   OH250439   5.490   2.355   4.457 -0.6404  0.8189 -0.2509
 9675TIP3    H150440   5.552   2.384   4.390 -1.2262  1.4462 -0.5313
 9675TIP3    H250441   5.476   2.431   4.513 -0.4523  0.4103  0.3649
 9676TIP3   OH250442   2.913   3.073  14.851  0.5165 -0.9470 -0.0482
 9676TIP3    H150443   2.921   3.003  14.915 -3.6574 -0.5779  1.2284
 9676TIP3    H250444   2.923   3.153  14.902 -0.4484 -0.6645 -0.2728
 9677TIP3   OH250445   5.060   5.755   2.965  0.1859 -0.3484  0.4054
 9677TIP3    H150446   5.079   5.833   2.913 -0.0467 -1.4113 -1.3626
 9677TIP3    H250447   5.075   5.682   2.905  0.0449 -1.6567  1.9014
 9678TIP3   OH250448   3.921   5.893  14.434 -1.0926 -0.2147 -0.3698
 9678TIP3    H150449   3.873   5.956  14.488  0.2700  0.3473  0.2071
 9678TIP3    H250450   3.996   5.942  14.400  2.2147 -2.3255  3.1043
 9679TIP3   OH250451   4.827   6.228  11.642  0.2144 -0.1616  0.5164
 9679TIP3    H150452   4.767   6.295  11.609 -2.5718 -0.7822  3.6970
 9679TIP3    H250453   4.914   6.266  11.633 -0.8762  2.1208 -1.5033
 9680TIP3   OH250454   0.739   4.026  12.920 -0.1682  0.7336  0.7708
 9680TIP3    H150455   0.708   3.956  12.863 -0.0390 -0.5780  2.2586
 9680TIP3    H250456   0.700   4.106  12.884 -1.4409 -0.2797 -0.1518
 9681TIP3   OH250457   6.687   1.677   2.037  0.3828 -0.4854  0.2845
 9681TIP3    H150458   6.767   1.638   2.072  2.2133  3.2597  0.7960
 9681TIP3    H250459   6.704   1.771   2.038 -3.5450  0.4227 -0.9615
 9682TIP3   OH250460   4.162   1.884   3.832  0.2314  0.2957 -0.1737
 9682TIP3    H150461   4.231   1.820   3.817 -1.1346 -1.3276  0.1123
 9682TIP3    H250462   4.160   1.897   3.927  0.7971  1.1409 -0.2642
 9683TIP3   OH250463   6.164   5.723  10.740 -0.2019 -0.5752 -0.3308
 9683TIP3    H150464   6.226   5.765  10.681 -2.2691  0.2463 -2.0372
 9683TIP3    H250465   6.107   5.794  10.770 -0.4318 -1.3205  1.0899
 9684TIP3   OH250466   1.437   4.861   6.151  0.0148 -0.0463  0.1544
 9684TIP3    H150467   1.430   4.919   6.226 -0.7643 -1.1708  0.9776
 9684TIP3    H250468   1.505   4.798   6.175 -0.2724 -0.4425 -0.0641
 9685TIP3   OH250469   6.751   4.972   5.748  0.2350 -0.0085 -0.9782
 9685TIP3    H150470   6.678   4.971   5.687 -1.2421  0.4439  0.7035
 9685TIP3    H250471   6.710   4.976   5.834  2.1545 -2.2948  0.1810
 9686TIP3   OH250472   4.268   1.036  13.347 -0.0753  0.3321  0.4492
 9686TIP3    H150473   4.174   1.030  13.330  0.2808 -1.0343 -1.3589
 9686TIP3    H250474   4.297   0.945  13.349  1.3933  0.7553 -0.2702
 9687TIP3   OH250475   3.273   3.681  13.465 -0.0925 -0.4101 -0.5467
 9687TIP3    H150476   3.257   3.764  13.509  0.4377 -0.7083  0.2224
 9687TIP3    H250477   3.333   3.703  13.394  3.5456 -0.7036  2.1523
 9688TIP3   OH250478   1.779   4.844  11.889  0.7379  0.8963 -0.3508
 9688TIP3    H150479   1.781   4.875  11.980  1.2125  0.3217 -0.1573
 9688TIP3    H250480   1.871   4.842  11.863  0.7539 -0.4982 -0.2910
 9689TIP3   OH250481   3.328   2.360  12.932  0.4932  0.1204  0.2921
 9689TIP3    H150482   3.280   2.424  12.984 -0.9081  0.4835 -1.3452
 9689TIP3    H250483   3.370   2.411  12.863  0.1388 -0.5981 -0.4834
 9690TIP3   OH250484   6.515   2.729   0.720 -0.0066  0.1253  0.0319
 9690TIP3    H150485   6.522   2.794   0.650 -1.1956  0.3398  0.1061
 9690TIP3    H250486   6.491   2.778   0.798 -2.1294 -0.4987 -0.1670
 9691TIP3   OH250487   3.343   2.338   5.454 -0.0470 -0.3721  0.4136
 9691TIP3    H150488   3.309   2.320   5.541  1.0940 -2.0372  0.5647
 9691TIP3    H250489   3.290   2.284   5.395 -1.4279  1.4343 -0.0976
 9692TIP3   OH250490   0.777   1.258   1.185  0.5594 -0.0164 -0.0794
 9692TIP3    H150491   0.790   1.255   1.279  0.8553  0.0731 -0.1149
 9692TIP3    H250492   0.694   1.305   1.173 -0.2667 -1.3796  0.1827
 9693TIP3   OH250493   2.928   3.812  14.056  0.3895 -0.3957  0.1632
 9693TIP3    H150494   2.963   3.724  14.049  0.4665 -0.3230 -0.4138
 9693TIP3    H250495   2.890   3.830  13.970 -0.4648 -0.2228  0.5618
 9694TIP3   OH250496   1.782   2.437  11.533 -0.5095 -0.8632 -0.5834
 9694TIP3    H150497   1.803   2.452  11.441  0.9972 -0.6296 -0.2196
 9694TIP3    H250498   1.725   2.510  11.557  0.9822  0.3945 -0.7287
 9695TIP3   OH250499   2.113   4.720  14.139  0.2927 -0.0678 -0.0716
 9695TIP3    H150500   2.088   4.762  14.221  2.4503  0.5602  0.3229
 9695TIP3    H250501   2.107   4.790  14.074  3.0710  0.7444  0.4373
 9696TIP3   OH250502   6.530   5.485  13.172 -0.2074 -0.4112  0.4545
 9696TIP3    H150503   6.553   5.398  13.140 -0.0009  0.0549 -0.6903
 9696TIP3    H250504   6.500   5.532  13.095  0.6372  0.8555  0.8630
 9697TIP3   OH250505   2.898   4.467  11.308  0.3882  0.2464 -0.0816
 9697TIP3    H150506   2.803   4.452  11.308 -0.1254  2.9623 -0.6884
 9697TIP3    H250507   2.933   4.399  11.365 -2.2824  0.8989  2.6018
 9698TIP3   OH250508   5.865   0.013   3.131 -0.3656  0.4235  0.4782
 9698TIP3    H150509   5.911  -0.053   3.078  1.9727  0.1339  2.6575
 9698TIP3    H250510   5.868   0.092   3.077 -1.2288 -0.6656 -1.2589
 9699TIP3   OH250511   1.710   1.294  14.734  0.4680  0.2344 -0.1887
 9699TIP3    H150512   1.761   1.370  14.762  0.3243  0.2075  0.1508
 9699TIP3    H250513   1.706   1.302  14.639  1.0155  0.2906 -0.2128
 9700TIP3   OH250514   6.548   1.311   1.080 -0.0894 -0.1448  0.9344
 9700TIP3    H150515   6.492   1.333   1.154  0.6456 -0.0264  1.4683
 9700TIP3    H250516   6.490   1.316   1.004 -0.9575 -0.6757  1.5368
 9701TIP3   OH250517   3.807   1.543   3.810  0.0967 -0.1136  0.5964
 9701TIP3    H150518   3.772   1.473   3.865  2.0662 -1.2657  0.4599
 9701TIP3    H250519   3.800   1.509   3.721 -0.8378  0.7531  0.3147
 9702TIP3   OH250520   4.064   6.674  16.005  0.1036 -0.4008  0.5705
 9702TIP3    H150521   4.119   6.718  15.940 -0.3477 -1.0478 -0.2714
 9702TIP3    H250522   4.125   6.647  16.074  0.3134  2.0393  1.4137
 9703TIP3   OH250523   2.205   0.920   2.561 -0.1712 -0.0770  0.1882
 9703TIP3    H150524   2.127   0.866   2.570 -0.5026  0.4289  0.4411
 9703TIP3    H250525   2.217   0.930   2.466  0.3684 -1.2463  0.1165
 9704TIP3   OH250526   5.200   5.478   4.443 -1.0449  0.2359 -0.2776
 9704TIP3    H150527   5.279   5.425   4.455 -2.0816 -0.8984  2.0348
 9704TIP3    H250528   5.134   5.415   4.413 -1.4410  0.9281 -0.8964
 9705TIP3   OH250529   6.268   1.745   0.313 -0.6992 -0.0887  0.1826
 9705TIP3    H150530   6.284   1.703   0.229 -3.0109  0.6162 -0.7017
 9705TIP3    H250531   6.188   1.796   0.299 -1.2525 -0.0697  2.8432
 9706TIP3   OH250532   3.429   2.320   4.330  0.1853 -0.2579  0.5108
 9706TIP3    H150533   3.368   2.261   4.375  0.3156  0.4863  1.7308
 9706TIP3    H250534   3.508   2.320   4.385  1.2103 -1.0033 -0.9049
 9707TIP3   OH250535   6.107   3.565   5.622  0.1652 -0.3001 -0.0953
 9707TIP3    H150536   6.105   3.491   5.561 -1.9122 -0.4295  0.0578
 9707TIP3    H250537   6.128   3.526   5.707  1.1405 -0.3984 -0.3756
 9708TIP3   OH250538   3.014   4.987  13.339 -0.2822  0.4752 -0.0810
 9708TIP3    H150539   3.076   5.056  13.316  0.0020  0.4846  0.6634
 9708TIP3    H250540   2.959   4.977  13.262 -0.9816  2.2485  0.1430
 9709TIP3   OH250541   1.425   1.206   0.882 -0.0823  0.0228  0.1581
 9709TIP3    H150542   1.372   1.265   0.935 -1.1527  0.4307 -1.3143
 9709TIP3    H250543   1.448   1.257   0.804  1.8320 -0.4123  0.3920
 9710TIP3   OH250544   1.711   6.525  12.628 -0.3256  0.6707 -0.0975
 9710TIP3    H150545   1.803   6.500  12.625 -0.5080 -0.4669  2.0698
 9710TIP3    H250546   1.684   6.527  12.537  0.6362 -3.7047 -0.6989
 9711TIP3   OH250547   3.378   6.079   0.025  0.5989 -0.3737  0.1442
 9711TIP3    H150548   3.381   5.999   0.076 -0.4887 -1.0259 -0.7825
 9711TIP3    H250549   3.292   6.079  -0.016  1.2189  0.3935 -1.2455
 9712TIP3   OH250550   5.887   4.268   5.293  0.0728 -0.2971  0.5811
 9712TIP3    H150551   5.879   4.255   5.198  0.0895 -0.1709  0.5615
 9712TIP3    H250552   5.907   4.361   5.302 -1.9836  0.1853  0.8145
 9713TIP3   OH250553   3.828   3.192  15.893 -0.0541 -0.1065  0.1221
 9713TIP3    H150554   3.785   3.107  15.886 -0.6663  0.2435 -0.4693
 9713TIP3    H250555   3.831   3.209  15.987 -1.5234  0.0055  0.1712
 9714TIP3   OH250556   3.244   2.171   1.430  0.1968  0.3672  0.0467
 9714TIP3    H150557   3.254   2.120   1.510 -0.1300 -2.1046 -1.3862
 9714TIP3    H250558   3.171   2.130   1.384  1.8691  0.0838 -2.5973
 9715TIP3   OH250559   3.407   5.638  15.096  0.3580 -0.2218 -0.2015
 9715TIP3    H150560   3.440   5.717  15.054  1.7130 -0.0791  1.0508
 9715TIP3    H250561   3.332   5.667  15.147  0.0043 -0.0191 -0.8182
 9716TIP3   OH250562   4.996   3.729  16.931  0.0593 -0.7818  0.2953
 9716TIP3    H150563   5.052   3.792  16.975 -0.7571  0.1792 -0.0095
 9716TIP3    H250564   4.987   3.762  16.842  1.3406 -2.4747 -0.5231
 9717TIP3   OH250565   5.142   0.316  12.171  0.1425  0.3479  0.4656
 9717TIP3    H150566   5.114   0.405  12.191  0.0403  0.1596  1.1726
 9717TIP3    H250567   5.176   0.321  12.082 -2.0426  0.6063 -0.4103
 9718TIP3   OH250568   1.085   1.660  14.621  0.3153 -0.1873  0.0080
 9718TIP3    H150569   1.146   1.724  14.585 -0.2737 -0.1530 -0.9618
 9718TIP3    H250570   1.008   1.665  14.564 -0.3050 -0.7500  0.7673
 9719TIP3   OH250571   5.185   1.618   3.917 -0.5002 -0.2983 -0.3116
 9719TIP3    H150572   5.227   1.601   4.002 -1.5485  0.8022  0.4623
 9719TIP3    H250573   5.227   1.556   3.857  1.0884 -0.3138  0.7463
 9720TIP3   OH250574   3.799   2.808   2.253 -0.1868 -0.6631 -0.1133
 9720TIP3    H150575   3.743   2.841   2.182  0.9607 -0.7274 -1.0866
 9720TIP3    H250576   3.744   2.813   2.331 -1.6325 -0.9756 -1.0692
 9721TIP3   OH250577   3.661   6.009  16.699  0.5268  0.7320 -0.3780
 9721TIP3    H150578   3.694   6.077  16.757 -0.3282 -1.1446  2.5347
 9721TIP3    H250579   3.728   5.941  16.701 -0.3529 -0.1560  0.0078
 9722TIP3   OH250580   6.124   1.328  12.638  0.2231  0.3617  0.0905
 9722TIP3    H150581   6.036   1.331  12.677  0.7894  0.5424  1.4254
 9722TIP3    H250582   6.183   1.327  12.713  1.3623 -0.2113 -0.7832
 9723TIP3   OH250583   6.692   2.193  15.078 -0.3977 -0.1245  0.1873
 9723TIP3    H150584   6.717   2.210  14.987 -1.8952  1.1334 -0.0353
 9723TIP3    H250585   6.596   2.184  15.075 -0.5532  0.7160  1.7422
 9724TIP3   OH250586   1.994   1.146  11.395  0.0200 -0.1410  0.2729
 9724TIP3    H150587   2.016   1.111  11.309  1.8493  0.7741  0.3257
 9724TIP3    H250588   1.904   1.176  11.387 -0.4688 -1.7583 -0.7453
 9725TIP3   OH250589   4.464   1.185  12.777  0.0471  0.7023 -0.3493
 9725TIP3    H150590   4.530   1.177  12.707 -0.5786  0.0411 -0.8834
 9725TIP3    H250591   4.439   1.277  12.776  1.7466  1.2214  0.6082
 9726TIP3   OH250592   2.954   3.357  17.074  0.2568  0.0223 -0.1208
 9726TIP3    H150593   2.952   3.376  16.981  0.0206 -1.9372 -0.5683
 9726TIP3    H250594   2.862   3.347  17.099  0.3621 -2.2518 -0.3850
 9727TIP3   OH250595   6.275   1.048  13.796  0.0209  0.8021 -0.4606
 9727TIP3    H150596   6.314   1.095  13.870  1.5371 -1.4131  0.2458
 9727TIP3    H250597   6.181   1.054  13.811  0.1972  2.6245  0.1788
 9728TIP3   OH250598   3.064   0.270  11.853  0.3730  0.4341 -0.1710
 9728TIP3    H150599   3.077   0.290  11.760  1.0140 -0.2421 -0.2285
 9728TIP3    H250600   2.981   0.314  11.875  1.8187  3.4665 -0.2105
 9729TIP3   OH250601   1.883   0.067  12.628  0.1479  0.1563  1.3100
 9729TIP3    H150602   1.837   0.057  12.544  2.3692  0.3157 -0.0242
 9729TIP3    H250603   1.828   0.021  12.691 -1.7299  0.2150 -0.1782
 9730TIP3   OH250604   5.468   3.736  10.818 -0.2803  0.4395 -0.1859
 9730TIP3    H150605   5.400   3.801  10.798 -0.1899  0.2477 -1.1978
 9730TIP3    H250606   5.464   3.725  10.913 -2.4134 -0.3634 -0.3226
 9731TIP3   OH250607   1.305   5.167   0.485  0.0126  0.3750  0.4876
 9731TIP3    H150608   1.327   5.225   0.558  3.0247 -1.7438  1.4867
 9731TIP3    H250609   1.384   5.168   0.430 -0.0222 -2.2465  0.2681
 9732TIP3   OH250610   3.780   2.481  16.096 -0.5122  0.4461  0.0333
 9732TIP3    H150611   3.835   2.419  16.145  2.9703  2.2679 -1.1848
 9732TIP3    H250612   3.690   2.454  16.115  0.6902 -1.9030  3.4552
 9733TIP3   OH250613   4.096   3.388  15.107 -0.3592  0.0138 -0.5259
 9733TIP3    H150614   4.086   3.429  15.021  0.4013 -1.4588 -1.3451
 9733TIP3    H250615   4.022   3.328  15.115 -1.4169  1.3969  0.6328
 9734TIP3   OH250616   6.495   5.170  15.359 -0.1352  0.6634  0.3166
 9734TIP3    H150617   6.480   5.102  15.425 -1.3768  0.5164 -0.0891
 9734TIP3    H250618   6.423   5.159  15.297  1.1452  0.6405 -1.2029
 9735TIP3   OH250619   2.599   2.764   1.066 -0.1549 -0.1428  0.2557
 9735TIP3    H150620   2.637   2.816   1.137 -0.9945 -1.1654  1.5044
 9735TIP3    H250621   2.671   2.749   1.006  0.8484 -0.1076  1.4161
 9736TIP3   OH250622   2.628   6.198  11.951 -0.2176 -0.4068 -0.0125
 9736TIP3    H150623   2.638   6.103  11.956 -1.1980 -0.4983  0.4532
 9736TIP3    H250624   2.542   6.211  11.912 -0.0942  0.2954 -0.0639
 9737TIP3   OH250625   6.722   2.601   5.500  0.4529  0.3088 -0.9534
 9737TIP3    H150626   6.687   2.518   5.465  0.8371 -1.7158  2.9506
 9737TIP3    H250627   6.644   2.652   5.523  0.0919 -0.7186  0.2227
 9738TIP3   OH250628   5.227   3.735   6.435  0.1203  0.5416  0.9891
 9738TIP3    H150629   5.143   3.780   6.426 -0.4920 -0.6290  0.6413
 9738TIP3    H250630   5.206   3.643   6.422  1.3261  0.1324  1.7764
 9739TIP3   OH250631   1.356   5.904   6.096  0.0201  0.4415  0.5142
 9739TIP3    H150632   1.367   5.810   6.108  0.9620  0.1850 -1.9020
 9739TIP3    H250633   1.272   5.912   6.050  0.7631  0.6241 -0.8324
 9740TIP3   OH250634   6.303   4.363   2.924 -0.4588 -0.6578  0.2498
 9740TIP3    H150635   6.218   4.400   2.901 -0.1492 -0.1286 -0.0873
 9740TIP3    H250636   6.362   4.439   2.925  0.3933 -1.2446 -1.4036
 9741TIP3   OH250637   2.057   6.609   2.120  0.2462  0.0184  0.5275
 9741TIP3    H150638   1.970   6.602   2.081 -0.0607  0.2968  1.1419
 9741TIP3    H250639   2.116   6.626   2.046 -0.0917 -1.0024  0.0070
 9742TIP3   OH250640   0.281   6.264   6.772 -0.3439 -0.3292 -0.0267
 9742TIP3    H150641   0.195   6.304   6.760 -0.8209 -1.0797  0.7837
 9742TIP3    H250642   0.264   6.170   6.774  0.8329 -0.6776 -2.4974
 9743TIP3   OH250643   3.504   1.371   0.513 -0.0957 -0.4327  0.0171
 9743TIP3    H150644   3.446   1.338   0.581  2.0628  1.1655  2.8438
 9743TIP3    H250645   3.466   1.454   0.487 -1.5295 -1.5460 -1.6954
 9744TIP3   OH250646   2.382   1.996  13.447  0.6955  0.6446 -0.0006
 9744TIP3    H150647   2.309   2.016  13.506  0.7734  1.0367 -0.0328
 9744TIP3    H250648   2.342   1.984  13.361  0.3783 -1.5562  0.4005
 9745TIP3   OH250649   3.332   6.404  14.755 -0.8283 -0.1009 -0.1315
 9745TIP3    H150650   3.302   6.361  14.834  0.5969 -1.1339 -0.1100
 9745TIP3    H250651   3.341   6.496  14.779 -2.1258 -0.0906  0.3683
 9746TIP3   OH250652   5.846   4.405   0.190 -0.0221 -0.3774  0.1086
 9746TIP3    H150653   5.824   4.389   0.282  2.5180 -3.6596  0.3518
 9746TIP3    H250654   5.905   4.480   0.192 -0.1745 -0.2642  1.1332
 9747TIP3   OH250655   1.124   5.516   0.252 -0.6110  0.4557  0.0671
 9747TIP3    H150656   1.139   5.460   0.328 -0.2110  1.8783  1.0747
 9747TIP3    H250657   1.103   5.455   0.181 -3.1231 -0.8609  1.7587
 9748TIP3   OH250658   3.177   2.795   1.419  0.5102  0.1452  0.1188
 9748TIP3    H150659   3.088   2.830   1.421  0.5798  0.3156  0.7037
 9748TIP3    H250660   3.232   2.871   1.399  0.5316  0.0567 -0.1614
 9749TIP3   OH250661   6.305   3.477  15.560  0.0994 -0.7402  0.0877
 9749TIP3    H150662   6.389   3.506  15.525  1.5862 -1.7543  2.5944
 9749TIP3    H250663   6.265   3.428  15.487  1.2278  0.4837 -1.4264
 9750TIP3   OH250664   4.877   1.172   1.762 -0.5891  0.0049  0.9713
 9750TIP3    H150665   4.919   1.086   1.753  0.1527  0.4847 -0.2974
 9750TIP3    H250666   4.806   1.157   1.825  0.2286 -1.2761  1.6394
 9751TIP3   OH250667   3.174   2.425  14.867  0.1561 -0.6066 -0.0457
 9751TIP3    H150668   3.091   2.431  14.820  0.9259  0.3950 -1.3517
 9751TIP3    H250669   3.239   2.458  14.805  1.3638 -0.2157  1.3649
 9752TIP3   OH250670   6.335   5.989  16.781 -0.0091  0.0257 -0.4974
 9752TIP3    H150671   6.414   5.954  16.822 -0.2277 -0.2827 -0.3355
 9752TIP3    H250672   6.367   6.045  16.710  0.3463 -0.3747 -0.6541
 9753TIP3   OH250673   3.664   6.426   2.848 -0.1802 -0.3555 -0.1360
 9753TIP3    H150674   3.677   6.496   2.784 -0.3693 -0.7074 -0.5620
 9753TIP3    H250675   3.732   6.362   2.829 -0.1135 -0.3735  0.1475
 9754TIP3   OH250676   2.117   3.973  13.055 -0.0136  0.3862  0.4603
 9754TIP3    H150677   2.070   3.902  13.097  0.1820  0.2884  0.5154
 9754TIP3    H250678   2.056   4.046  13.056  0.1749  0.5492  1.3991
 9755TIP3   OH250679   3.122   3.521   5.894  0.0296 -0.4911  0.0728
 9755TIP3    H150680   3.209   3.485   5.912 -0.8503 -1.4243  2.8806
 9755TIP3    H250681   3.061   3.460   5.934 -1.8606  1.0639 -0.2598
 9756TIP3   OH250682   5.641   4.355  13.954 -0.4798 -0.2362 -0.0058
 9756TIP3    H150683   5.734   4.359  13.933 -0.7689 -0.1130 -1.3370
 9756TIP3    H250684   5.597   4.354  13.869 -1.6946 -0.3148  0.6036
 9757TIP3   OH250685   4.615   1.248  14.106 -0.8026  0.0158 -0.2899
 9757TIP3    H150686   4.581   1.321  14.157 -1.7937 -0.7693  0.2122
 9757TIP3    H250687   4.662   1.289  14.033  2.5002  1.2446  2.2749
 9758TIP3   OH250688   3.689   1.297   5.994 -0.0476  0.0125 -0.1062
 9758TIP3    H150689   3.613   1.283   5.937 -0.4013  0.2187  0.3088
 9758TIP3    H250690   3.651   1.309   6.081  0.6319 -4.0889  0.9531
 9759TIP3   OH250691   2.490   1.795  11.464 -0.3256 -0.3018  0.2815
 9759TIP3    H150692   2.504   1.827  11.553 -1.0800  0.7278  0.0504
 9759TIP3    H250693   2.533   1.859  11.408  0.5093 -1.1693 -0.0901
 9760TIP3   OH250694   0.047   2.556   0.866  0.7401 -0.5069 -0.3709
 9760TIP3    H150695   0.139   2.533   0.875  0.7410  0.2466  2.0402
 9760TIP3    H250696   0.033   2.629   0.927 -0.7515  1.5997 -2.9944
 9761TIP3   OH250697   5.120   5.791   5.167 -0.2813  0.0990  0.0477
 9761TIP3    H150698   5.189   5.741   5.211 -1.0425 -1.3228 -0.2926
 9761TIP3    H250699   5.101   5.863   5.227 -0.5738 -1.2009  1.5944
 9762TIP3   OH250700   3.624   0.679   1.302 -0.1939  0.0302  0.6788
 9762TIP3    H150701   3.675   0.709   1.377 -0.2036  0.2267  0.6075
 9762TIP3    H250702   3.576   0.757   1.272  1.6816  0.6127 -1.0468
 9763TIP3   OH250703   2.385   4.285  12.348 -0.0421  0.1162  0.0597
 9763TIP3    H150704   2.462   4.340  12.362 -0.2525  0.3912  0.1572
 9763TIP3    H250705   2.337   4.328  12.278 -0.8325  0.7517  0.9528
 9764TIP3   OH250706   5.154   3.681   0.093  0.8909  0.0509 -0.4633
 9764TIP3    H150707   5.090   3.653   0.027  0.7588  0.6640 -0.5991
 9764TIP3    H250708   5.213   3.606   0.102  0.6027 -0.2332 -0.8981
 9765TIP3   OH250709   2.041   6.007  15.295 -0.7269 -0.0388  0.1398
 9765TIP3    H150710   2.020   5.952  15.219  1.5828  1.3766 -1.6746
 9765TIP3    H250711   2.006   5.959  15.370 -2.1591 -2.0646 -1.6902
 9766TIP3   OH250712   3.827   2.407   4.393  0.0408 -0.5103 -0.0550
 9766TIP3    H150713   3.922   2.418   4.397  0.0181  0.4894 -1.4857
 9766TIP3    H250714   3.813   2.314   4.408  1.4750 -1.1529 -2.2649
 9767TIP3   OH250715   3.635   0.400  13.986  0.4172 -0.2447 -0.0401
 9767TIP3    H150716   3.631   0.330  13.921  0.1159  1.1323 -1.5606
 9767TIP3    H250717   3.576   0.371  14.055 -1.7785 -0.3463 -1.8413
 9768TIP3   OH250718   2.302   5.957  14.553 -0.1930 -0.0759  0.2084
 9768TIP3    H150719   2.333   6.013  14.625  4.0021  0.0861 -1.4714
 9768TIP3    H250720   2.305   5.868  14.589 -0.0480  0.1582  0.7910
 9769TIP3   OH250721   2.266   5.274   3.894 -0.4680  0.5897  0.5047
 9769TIP3    H150722   2.191   5.241   3.845 -1.6384  0.6072  2.1832
 9769TIP3    H250723   2.286   5.204   3.957  0.3102  0.9766  0.7001
 9770TIP3   OH250724   4.783   1.768   0.198  0.9785  0.1660  0.3142
 9770TIP3    H150725   4.803   1.853   0.159 -0.7922  0.7834  0.6440
 9770TIP3    H250726   4.868   1.734   0.227  1.9353  1.0433 -1.3275
 9771TIP3   OH250727   2.162   5.373   4.837  0.4482  0.4256 -0.7144
 9771TIP3    H150728   2.256   5.352   4.830  0.3358 -0.5170  0.3470
 9771TIP3    H250729   2.160   5.468   4.845  1.3522  0.4290 -0.3532
 9772TIP3   OH250730   5.648   0.617  16.237  0.1175 -0.0279 -0.1339
 9772TIP3    H150731   5.553   0.626  16.223 -0.1416 -1.3229  0.6624
 9772TIP3    H250732   5.687   0.662  16.162 -1.1218  0.0548 -0.7650
 9773TIP3   OH250733   1.523   5.666  16.742  0.2614 -0.1558 -0.1994
 9773TIP3    H150734   1.535   5.628  16.829  1.6041 -1.9416 -1.0839
 9773TIP3    H250735   1.473   5.746  16.757  1.2823  0.1089  2.3080
 9774TIP3   OH250736   2.059   3.487  15.078 -0.3607  0.4007  0.2868
 9774TIP3    H150737   2.132   3.504  15.138  1.3113 -2.8493 -0.6028
 9774TIP3    H250738   1.991   3.449  15.133  0.7665 -1.5946  0.3958
 9775TIP3   OH250739   0.481   2.419   1.671 -0.3807 -0.2756 -0.0656
 9775TIP3    H150740   0.409   2.381   1.721  0.7802 -1.4753  0.7852
 9775TIP3    H250741   0.547   2.441   1.737 -0.1648  1.3361 -0.7594
 9776TIP3   OH250742   1.837   4.175   5.539 -0.0148 -0.1271 -0.1311
 9776TIP3    H150743   1.763   4.121   5.511 -1.7085  1.3986  1.1446
 9776TIP3    H250744   1.839   4.247   5.476 -0.5788  0.5898  0.6393
 9777TIP3   OH250745   3.205   2.708  13.657  0.2637 -0.4394  0.2443
 9777TIP3    H150746   3.119   2.685  13.622  0.5350 -0.5801 -0.3317
 9777TIP3    H250747   3.246   2.623  13.677  0.8979 -0.4410 -1.0003
 9778TIP3   OH250748   1.089   1.366  10.829  0.5779 -0.2356  0.1719
 9778TIP3    H150749   1.010   1.353  10.776  1.0461 -1.3757 -0.2702
 9778TIP3    H250750   1.057   1.410  10.908 -0.3911 -0.0670 -0.2864
 9779TIP3   OH250751   3.802   4.581   6.153  0.0673  0.5051  0.3032
 9779TIP3    H150752   3.771   4.593   6.243  1.3703  0.7016  0.7545
 9779TIP3    H250753   3.781   4.664   6.109 -0.3440  0.5052  0.5027
 9780TIP3   OH250754   0.333   0.942  15.064  0.0035  0.0212  0.0058
 9780TIP3    H150755   0.428   0.946  15.079 -0.0263  1.7460 -0.0475
 9780TIP3    H250756   0.305   1.034  15.065 -1.1062 -0.1492 -3.5867
 9781TIP3   OH250757   2.726   2.777  16.697 -0.0087  0.6201  0.0296
 9781TIP3    H150758   2.706   2.809  16.784 -0.9596  0.3500 -0.0784
 9781TIP3    H250759   2.658   2.816  16.641  0.0038  0.0169 -0.4191
 9782TIP3   OH250760   2.377   3.997  12.409 -0.2415  0.0220 -0.1208
 9782TIP3    H150761   2.373   4.089  12.381 -1.5539  0.5025  1.4657
 9782TIP3    H250762   2.358   3.947  12.330 -0.1526  1.1529 -0.8789
 9783TIP3   OH250763   4.723   6.003  14.933  0.6194 -0.4352  0.0299
 9783TIP3    H150764   4.752   5.970  14.848  3.8573 -1.1019  1.2404
 9783TIP3    H250765   4.712   5.925  14.987 -0.5666  0.0246  0.4753
 9784TIP3   OH250766   3.635   4.641   0.506  0.4069 -0.2244  0.2169
 9784TIP3    H150767   3.556   4.672   0.549 -0.0357 -0.1517 -0.6378
 9784TIP3    H250768   3.643   4.695   0.428  0.7444 -0.8986 -0.2231
 9785TIP3   OH250769   1.903   2.475  17.115  0.2566  0.7645  0.6412
 9785TIP3    H150770   1.900   2.443  17.205 -1.2620  0.1595  0.3942
 9785TIP3    H250771   1.812   2.482  17.088  0.6357  2.2076 -0.4340
 9786TIP3   OH250772   4.119   6.254  15.403  0.1219  0.0195  0.6749
 9786TIP3    H150773   4.078   6.299  15.477 -0.7708 -1.4447  1.1038
 9786TIP3    H250774   4.173   6.186  15.443 -0.9844 -1.3024 -0.0058
 9787TIP3   OH250775   5.091   1.121  13.000  0.5666  0.2852 -0.4732
 9787TIP3    H150776   5.134   1.139  13.084  0.4076  0.6930 -0.4799
 9787TIP3    H250777   5.064   1.207  12.968  0.3661  0.0987 -0.8041
 9788TIP3   OH250778   4.544   5.150   1.867 -0.0681 -0.2927  0.1116
 9788TIP3    H150779   4.637   5.173   1.857  0.6844 -1.6868  2.7944
 9788TIP3    H250780   4.535   5.128   1.959 -3.4292  1.0321  0.2325
 9789TIP3   OH250781   5.247   4.996  12.315  0.2760 -0.0210  0.2019
 9789TIP3    H150782   5.268   5.087  12.336  1.0210  0.0557 -0.8162
 9789TIP3    H250783   5.265   4.948  12.397  1.3574  0.5298  0.3028
 9790TIP3   OH250784   1.897   6.264   3.911 -0.4140 -0.0407  0.2217
 9790TIP3    H150785   1.952   6.213   3.971  2.3472  2.3303 -0.0657
 9790TIP3    H250786   1.929   6.240   3.824 -1.6536 -0.5041 -0.1229
 9791TIP3   OH250787   5.431   1.179  15.791 -0.0858  0.1288 -0.6152
 9791TIP3    H150788   5.434   1.267  15.829  0.3464 -0.5147  0.9018
 9791TIP3    H250789   5.355   1.181  15.733 -1.4953  0.7989  1.1917
 9792TIP3   OH250790   6.537   5.073   1.169 -0.7832  0.3027 -0.5637
 9792TIP3    H150791   6.448   5.040   1.177 -0.4257 -0.3043  2.0635
 9792TIP3    H250792   6.534   5.161   1.206 -0.2047 -0.0042  0.2711
 9793TIP3   OH250793   3.250   0.372   2.006 -0.0584  0.0459 -0.3903
 9793TIP3    H150794   3.276   0.362   2.098  2.1988  0.0948 -0.9724
 9793TIP3    H250795   3.236   0.466   1.995  0.9549  0.1999 -0.4046
 9794TIP3   OH250796   1.261   4.606   0.709  0.3539  0.1183 -0.5832
 9794TIP3    H150797   1.181   4.568   0.673 -0.8960  2.0103  0.0773
 9794TIP3    H250798   1.278   4.555   0.788  1.2270 -1.8648 -1.9643
 9795TIP3   OH250799   3.561   4.743  16.773  0.3631  0.3967 -0.5318
 9795TIP3    H150800   3.641   4.778  16.735  1.2732 -0.1359  0.8257
 9795TIP3    H250801   3.590   4.691  16.848 -1.1205 -1.2023 -0.9915
 9796TIP3   OH250802   4.547   1.173   3.469  0.0476 -0.3991 -0.2475
 9796TIP3    H150803   4.512   1.262   3.465 -0.4616 -0.5469  0.5386
 9796TIP3    H250804   4.494   1.123   3.407 -1.5041 -0.7171  1.2460
 9797TIP3   OH250805   4.528   3.128   4.141  0.3070 -0.5290 -0.3639
 9797TIP3    H150806   4.584   3.188   4.191 -0.1130  0.9463 -1.5918
 9797TIP3    H250807   4.446   3.175   4.129  0.9257 -0.1004 -3.7753
 9798TIP3   OH250808   6.224   3.837   5.773 -0.3831  0.4012  1.0519
 9798TIP3    H150809   6.290   3.776   5.739 -0.9841  0.3255 -0.0286
 9798TIP3    H250810   6.209   3.808   5.863  0.6680  0.0937  1.1421
 9799TIP3   OH250811   1.051   3.463  12.017 -0.2535 -0.2826  0.5507
 9799TIP3    H150812   1.112   3.415  11.961  0.9509  1.8304 -0.0872
 9799TIP3    H250813   0.995   3.511  11.956 -0.3808  0.3339  1.1413
 9800TIP3   OH250814   1.931   3.697  13.444 -0.2317 -0.2076  0.7751
 9800TIP3    H150815   1.944   3.772  13.502 -0.3151  0.0108  0.5119
 9800TIP3    H250816   1.954   3.621  13.498  0.8578  0.0762  0.7171
 9801TIP3   OH250817   5.409   6.150   4.750 -0.2760 -0.4686  0.4220
 9801TIP3    H150818   5.457   6.074   4.781  1.4257  0.4526  0.1962
 9801TIP3    H250819   5.420   6.215   4.819  2.2383  1.0725 -1.2373
 9802TIP3   OH250820   0.774   0.851  14.925 -0.5619  0.7149 -0.3484
 9802TIP3    H150821   0.770   0.827  15.018 -1.1167  2.7937  0.2113
 9802TIP3    H250822   0.780   0.947  14.925 -0.6088  0.7644 -2.4693
 9803TIP3   OH250823   6.376   5.214  15.039 -0.1419 -0.4309 -0.8562
 9803TIP3    H150824   6.324   5.167  15.104  0.4389 -0.0870 -0.1287
 9803TIP3    H250825   6.437   5.149  15.005  2.4026  0.2367  1.9608
 9804TIP3   OH250826   0.560   6.324   4.337 -0.1773 -0.6016  0.1345
 9804TIP3    H150827   0.574   6.418   4.325 -1.7878 -0.5524 -2.0827
 9804TIP3    H250828   0.550   6.313   4.431 -0.6605  1.5638  0.3888
 9805TIP3   OH250829   0.138   3.948  11.356  0.3110  0.1882 -0.0242
 9805TIP3    H150830   0.091   4.028  11.331 -2.5761 -1.6136 -0.7962
 9805TIP3    H250831   0.229   3.966  11.332 -0.1341  3.3396  0.1823
 9806TIP3   OH250832   0.644   0.563  16.692  0.8362 -0.2111 -0.1068
 9806TIP3    H150833   0.717   0.603  16.740  2.5207 -1.5043 -1.4325
 9806TIP3    H250834   0.656   0.469  16.705 -1.0111 -0.4390  0.1496
 9807TIP3   OH250835   1.167   2.126  14.265 -0.2316  0.4474  0.2007
 9807TIP3    H150836   1.190   2.065  14.195  2.5788  2.1533 -0.5490
 9807TIP3    H250837   1.074   2.111  14.281 -0.0284 -2.8094 -1.0434
 9808TIP3   OH250838   1.509   6.141  13.956 -0.2532  0.2889  0.4520
 9808TIP3    H150839   1.598   6.105  13.956 -0.4534 -0.2621 -0.8497
 9808TIP3    H250840   1.507   6.198  13.879 -1.7227 -1.5654 -0.9837
 9809TIP3   OH250841   1.741   0.271   2.254  0.3116  0.0981 -0.1090
 9809TIP3    H150842   1.678   0.288   2.324 -0.0678 -0.2898 -0.3459
 9809TIP3    H250843   1.817   0.235   2.299 -0.2740 -1.0179  0.0346
 9810TIP3   OH250844   0.494   3.724  15.355  0.3397 -0.0159 -0.5274
 9810TIP3    H150845   0.466   3.808  15.391  0.1590 -0.0667 -0.5476
 9810TIP3    H250846   0.587   3.720  15.373  0.4062  0.3197 -0.7887
 9811TIP3   OH250847   6.604   0.235  17.308 -0.1081 -0.4632  0.6833
 9811TIP3    H150848   6.514   0.262  17.291 -0.2703 -1.1853  0.3499
 9811TIP3    H250849   6.656   0.315  17.300 -0.6474 -0.1481  0.3242
 9812TIP3   OH250850   4.332   4.393  16.712 -0.0296  0.8203  0.5089
 9812TIP3    H150851   4.260   4.366  16.769  0.6824  0.1084  1.0872
 9812TIP3    H250852   4.371   4.311  16.682 -0.1953  1.1841 -0.7749
 9813TIP3   OH250853   0.276   0.014  11.757  0.1757  0.1123  0.4159
 9813TIP3    H150854   0.225   0.020  11.838  0.8140  0.1443  0.8244
 9813TIP3    H250855   0.364   0.039  11.783  0.1936  1.0726 -0.4892
 9814TIP3   OH250856   5.329   2.473  14.154  0.0302  0.1007  0.6281
 9814TIP3    H150857   5.264   2.534  14.120 -0.7973 -2.0323 -2.0112
 9814TIP3    H250858   5.412   2.520  14.148 -0.8333  1.7270  0.9167
 9815TIP3   OH250859   6.092   0.652  15.926 -0.2310 -0.2048 -0.3209
 9815TIP3    H150860   6.022   0.596  15.893  0.0880 -1.6854  1.3378
 9815TIP3    H250861   6.173   0.615  15.891 -0.1137  0.1539 -0.4418
 9816TIP3   OH250862   2.864   1.738   2.129 -0.5201  0.0473 -0.3823
 9816TIP3    H150863   2.782   1.780   2.154 -0.8900  0.1115 -1.6470
 9816TIP3    H250864   2.929   1.775   2.190 -1.1570  1.1223 -0.3290
 9817TIP3   OH250865   5.017   5.215  16.685  0.3794  0.0661  0.1342
 9817TIP3    H150866   4.923   5.195  16.691  0.3635  0.3567  0.9822
 9817TIP3    H250867   5.026   5.298  16.731  0.7511  1.0572 -1.6442
 9818TIP3   OH250868   5.099   0.889  13.339  0.1116 -0.2987  0.1637
 9818TIP3    H150869   5.156   0.828  13.385 -0.2482 -0.7196  0.0688
 9818TIP3    H250870   5.156   0.961  13.312  0.4519 -0.3789  0.6709
 9819TIP3   OH250871   3.143   2.241   2.693  0.0625  0.2763  0.5264
 9819TIP3    H150872   3.220   2.185   2.684  1.4994  2.1444  0.6138
 9819TIP3    H250873   3.096   2.204   2.768  0.1016 -1.7218 -0.3755
 9820TIP3   OH250874   6.663   6.642   4.844 -0.1585  0.8468  0.4166
 9820TIP3    H150875   6.720   6.566   4.829 -0.5932  0.6449 -0.2531
 9820TIP3    H250876   6.574   6.606   4.845 -0.4752  1.5153 -1.3084
 9821TIP3   OH250877   6.283   3.693  16.918 -0.2684 -0.3144 -0.9691
 9821TIP3    H150878   6.230   3.637  16.975  0.3668  0.3666  0.3386
 9821TIP3    H250879   6.219   3.740  16.864 -0.8337 -1.7426 -1.5892
 9822TIP3   OH250880   3.806   1.112   3.659 -0.0224 -0.0923  0.2083
 9822TIP3    H150881   3.736   1.080   3.603 -0.1765  0.6958 -0.0527
 9822TIP3    H250882   3.862   1.165   3.602  1.5722 -1.8018  0.0794
 9823TIP3   OH250883   0.397   2.509  16.291  0.3136 -0.0540 -0.1982
 9823TIP3    H150884   0.427   2.495  16.202 -1.1443  0.9805 -0.8829
 9823TIP3    H250885   0.321   2.566  16.283  0.2477  0.2101  1.7222
 9824TIP3   OH250886   2.708   2.674   5.541 -0.0806  0.1376  0.1374
 9824TIP3    H150887   2.741   2.627   5.618 -2.4919  2.1161  2.5521
 9824TIP3    H250888   2.750   2.629   5.467  2.4723 -1.8170  2.5190
 9825TIP3   OH250889   6.531   6.640   1.520  0.3186  0.1733 -0.0021
 9825TIP3    H150890   6.597   6.654   1.452  0.7901 -2.0647 -0.1087
 9825TIP3    H250891   6.572   6.576   1.579 -1.1321 -0.0185  0.8373
 9826TIP3   OH250892   5.516   1.306   2.458 -0.0092 -0.4200 -0.1848
 9826TIP3    H150893   5.595   1.347   2.493 -0.4138  2.2529 -2.0798
 9826TIP3    H250894   5.513   1.333   2.366 -2.4411 -1.5321 -0.5201
 9827TIP3   OH250895   5.042   1.439   6.292 -0.0947 -0.2971 -0.6928
 9827TIP3    H150896   5.006   1.381   6.359  0.3788  0.6255  0.3940
 9827TIP3    H250897   5.112   1.387   6.250  2.3461  0.3512  2.2306
 9828TIP3   OH250898   2.538   5.861  16.291 -0.0427 -0.0465  0.0522
 9828TIP3    H150899   2.481   5.896  16.222  1.1607  1.7580 -0.0980
 9828TIP3    H250900   2.487   5.870  16.371 -1.9395 -3.2900 -0.6405
 9829TIP3   OH250901   6.698   4.895   0.015  0.1309 -0.3657 -1.2339
 9829TIP3    H150902   6.660   4.913  -0.071  1.1351  1.3498 -1.3591
 9829TIP3    H250903   6.792   4.886  -0.002  0.2163 -1.1348 -0.4533
 9830TIP3   OH250904   4.269   4.609  17.130  0.5578 -0.4940 -0.1860
 9830TIP3    H150905   4.352   4.627  17.174 -0.8034  2.0976  1.6386
 9830TIP3    H250906   4.219   4.557  17.193  0.5700 -1.6045 -1.0663
 9831TIP3   OH250907   5.801   6.263  11.122 -0.6822 -0.4355  0.2206
 9831TIP3    H150908   5.826   6.354  11.137 -1.0821 -0.4021  0.7189
 9831TIP3    H250909   5.858   6.234  11.050 -0.2282  0.0634  0.3692
 9832TIP3   OH250910   0.312   2.493   0.904  0.7280  0.2726  0.6475
 9832TIP3    H150911   0.292   2.416   0.852  1.6255  0.4770 -0.0322
 9832TIP3    H250912   0.407   2.491   0.915  0.5564  0.0997  2.5191
 9833TIP3   OH250913   1.797   5.886   5.733  0.2089  0.2450 -0.2505
 9833TIP3    H150914   1.802   5.793   5.710 -0.0051  0.4140 -1.0011
 9833TIP3    H250915   1.742   5.924   5.665  1.2646  1.1440 -0.6091
 9834TIP3   OH250916   1.371   1.994   7.008  0.0921 -0.0608  0.0584
 9834TIP3    H150917   1.401   2.042   6.931 -0.8333 -1.5918 -1.3236
 9834TIP3    H250918   1.441   2.006   7.072  0.0914  2.7214 -0.3323
 9835TIP3   OH250919   5.056   5.152  12.575  0.2378 -0.0742  0.0741
 9835TIP3    H150920   5.117   5.146  12.502 -0.0397  0.7039 -0.2423
 9835TIP3    H250921   5.035   5.062  12.597  0.4440 -0.3243 -0.7167
 9836TIP3   OH250922   3.395   5.327  15.966  0.8606 -0.4219  0.4447
 9836TIP3    H150923   3.488   5.351  15.959  0.0678  2.9892 -0.2819
 9836TIP3    H250924   3.373   5.341  16.058  0.4172  2.0207  0.0374
 9837TIP3   OH250925   2.060   2.682  11.573 -0.3512 -0.1064 -0.7857
 9837TIP3    H150926   2.123   2.733  11.625  0.3463 -0.0990 -1.6311
 9837TIP3    H250927   2.017   2.626  11.637  1.9550 -1.6184 -0.4549
 9838TIP3   OH250928   1.283   3.921  11.398 -0.2342  0.0740 -0.1487
 9838TIP3    H150929   1.212   3.954  11.452 -0.9113  0.8381 -1.4667
 9838TIP3    H250930   1.241   3.859  11.338  0.1558  0.6565 -1.0530
 9839TIP3   OH250931   4.949   2.258  16.914  0.4205  0.8295  0.8702
 9839TIP3    H150932   4.954   2.299  17.000 -0.4065  1.7951  0.4726
 9839TIP3    H250933   4.931   2.329  16.853  0.8189  0.1375 -0.0917
 9840TIP3   OH250934   5.286   1.548   5.182 -0.8036  0.4051 -0.8868
 9840TIP3    H150935   5.204   1.507   5.156 -0.1941 -1.0784 -0.5927
 9840TIP3    H250936   5.339   1.549   5.102 -0.0413 -1.3955 -0.4588
 9841TIP3   OH250937   0.019   4.750   0.695  0.2313 -0.0904 -0.0047
 9841TIP3    H150938   0.086   4.695   0.654  0.7225  0.6876 -0.2807
 9841TIP3    H250939  -0.037   4.689   0.743  0.7355 -0.8249 -0.3336
 9842TIP3   OH250940   0.381   1.172  16.282 -0.3822  0.2693 -0.2087
 9842TIP3    H150941   0.375   1.077  16.290  1.4213  0.0273 -1.4338
 9842TIP3    H250942   0.391   1.202  16.373  0.6570 -0.8411  0.0674
 9843TIP3   OH250943   3.279   6.603   2.876 -0.3632  0.6355  0.4449
 9843TIP3    H150944   3.371   6.577   2.871  0.2799  2.6620  0.7213
 9843TIP3    H250945   3.240   6.569   2.796  1.1036  1.3481 -0.6178
 9844TIP3   OH250946   3.434   1.310   4.124  0.1506  0.0745  0.4371
 9844TIP3    H150947   3.430   1.264   4.039  0.6760  0.3655  0.2520
 9844TIP3    H250948   3.343   1.312   4.153 -0.0081 -0.2419 -0.0055
 9845TIP3   OH250949   3.877   1.274  16.493  0.1700 -0.4495 -0.1865
 9845TIP3    H150950   3.934   1.198  16.507  0.7432 -0.2481 -1.3173
 9845TIP3    H250951   3.878   1.320  16.577  1.6106 -0.5054 -0.1454
 9846TIP3   OH250952   1.620   0.191  15.933  0.3233 -0.4987 -0.7201
 9846TIP3    H150953   1.706   0.157  15.908 -0.3345 -2.1673 -0.7994
 9846TIP3    H250954   1.623   0.196  16.028  0.7496  0.1467 -0.7619
 9847TIP3   OH250955   2.562   1.587  16.128 -1.0615 -0.6587  0.4272
 9847TIP3    H150956   2.479   1.550  16.100 -2.0663  1.3274  0.5869
 9847TIP3    H250957   2.544   1.680  16.142  1.1158 -0.2128  0.7706
 9848TIP3   OH250958   0.817   3.630   3.299 -0.0253  0.2325  0.1212
 9848TIP3    H150959   0.810   3.722   3.272  0.3597  0.5808  1.1262
 9848TIP3    H250960   0.911   3.614   3.304 -0.0916 -0.1998  0.0166
 9849TIP3   OH250961   1.641   2.389  12.726 -0.3256  0.2226  0.1225
 9849TIP3    H150962   1.621   2.421  12.639 -0.0188  0.6836  0.2172
 9849TIP3    H250963   1.575   2.430  12.783  0.4211  1.2000  0.3315
 9850TIP3   OH250964   2.073   1.212  12.508  0.1060  0.8122 -0.1580
 9850TIP3    H150965   2.018   1.291  12.506  0.2194  0.9613  1.3026
 9850TIP3    H250966   2.056   1.174  12.595 -1.1090 -1.6286 -1.3548
 9851TIP3   OH250967   0.074   4.563  15.531 -0.2178  1.0827 -1.0023
 9851TIP3    H150968   0.116   4.489  15.488  0.0862 -0.6450  1.9641
 9851TIP3    H250969   0.146   4.621  15.555 -0.4895  2.7031 -3.6947
 9852TIP3   OH250970   0.421   1.938   4.658 -0.3191 -0.4361  0.6150
 9852TIP3    H150971   0.447   1.880   4.729 -1.2765 -0.1097  1.2527
 9852TIP3    H250972   0.343   1.897   4.620 -0.3468 -0.1431  0.3450
 9853TIP3   OH250973   3.289   4.803   2.287  0.2169  0.0733 -0.3293
 9853TIP3    H150974   3.256   4.852   2.211  1.5749 -2.0233 -2.4076
 9853TIP3    H250975   3.232   4.726   2.293 -0.2333  0.4976  1.1911
 9854TIP3   OH250976   3.971   3.266  12.958 -0.5329 -0.2824 -0.1404
 9854TIP3    H150977   3.982   3.346  12.907  0.8983  0.1846  0.8481
 9854TIP3    H250978   4.024   3.201  12.912  1.3469  0.3164  1.0418
 9855TIP3   OH250979   2.051   2.648  14.530 -0.6635  0.1938 -0.7072
 9855TIP3    H150980   2.079   2.562  14.499 -0.0800  0.4143 -0.8100
 9855TIP3    H250981   1.955   2.645  14.527 -0.6345 -0.2327 -1.3009
 9856TIP3   OH250982   6.749   6.710  13.541 -0.0208  0.0798 -0.1060
 9856TIP3    H150983   6.747   6.674  13.452  0.6112  0.5265 -0.3132
 9856TIP3    H250984   6.730   6.636  13.598 -0.2104 -0.2608 -0.6056
 9857TIP3   OH250985   0.732   2.808   5.407  0.5264 -0.6206  0.2285
 9857TIP3    H150986   0.655   2.814   5.351  0.5274  1.4675  0.3559
 9857TIP3    H250987   0.799   2.858   5.361  1.0005 -0.2058  1.3313
 9858TIP3   OH250988   0.176   6.388  11.004  0.3434 -0.1122 -0.2443
 9858TIP3    H150989   0.181   6.376  10.909 -1.4402 -1.0971 -0.2622
 9858TIP3    H250990   0.106   6.451  11.016  2.3212  2.0985  0.3665
 9859TIP3   OH250991   5.938   2.857  13.104  0.1755  0.4179  0.2709
 9859TIP3    H150992   6.002   2.803  13.151  1.7736  3.3634  1.7862
 9859TIP3    H250993   5.856   2.843  13.151  1.0786  0.9518  2.1225
 9860TIP3   OH250994   4.801   6.528  15.727  0.0982 -0.7438  0.6296
 9860TIP3    H150995   4.884   6.555  15.688 -0.3008  0.9260  0.8501
 9860TIP3    H250996   4.826   6.480  15.806  0.8530 -0.9029  0.3038
 9861TIP3   OH250997   6.124   5.515  11.568 -0.1542 -0.2086 -0.1619
 9861TIP3    H150998   6.176   5.442  11.534 -0.2672 -0.2379 -0.2701
 9861TIP3    H250999   6.035   5.481  11.573  0.1428 -0.8018  1.8891
 9862TIP3   OH251000   0.333   2.183  13.305  0.1458  0.0922 -0.0659
 9862TIP3    H151001   0.262   2.167  13.243 -0.7015  2.7213  0.0829
 9862TIP3    H251002   0.297   2.158  13.390  1.3458 -3.6228 -0.4503
 9863TIP3   OH251003   3.935   3.800   2.531 -0.3374 -0.0990  1.0704
 9863TIP3    H151004   3.945   3.712   2.566 -1.8956  0.5071  3.2400
 9863TIP3    H251005   3.843   3.821   2.542 -0.6119  0.8202 -2.0313
 9864TIP3   OH251006   2.641   1.838  13.084  0.1242 -0.5536  0.0467
 9864TIP3    H151007   2.673   1.895  13.154 -0.0036  0.1832 -0.4871
 9864TIP3    H251008   2.582   1.893  13.033  1.1341 -0.7061 -1.3484
 9865TIP3   OH251009   6.214   3.079  11.135 -0.5770 -0.3319 -0.3840
 9865TIP3    H151010   6.229   3.168  11.101 -1.6731 -0.3887 -1.0769
 9865TIP3    H251011   6.274   3.024  11.085 -0.5609 -0.1067 -0.6171
 9866TIP3   OH251012   6.017   0.479   3.469  0.3240  0.1410  0.4861
 9866TIP3    H151013   6.037   0.420   3.542 -0.5558  0.6321  1.1268
 9866TIP3    H251014   6.048   0.431   3.392  0.0154 -0.9805  1.0325
 9867TIP3   OH251015   1.301   3.404   0.031  0.8251  0.1805 -0.0965
 9867TIP3    H151016   1.357   3.464  -0.019  0.5130 -0.6234 -1.4812
 9867TIP3    H251017   1.355   3.377   0.106  2.1543 -0.2266 -1.1572
 9868TIP3   OH251018   0.006   1.337  17.047  0.0400  0.3541  0.1015
 9868TIP3    H151019   0.004   1.419  16.998 -3.6457  0.4397  0.1518
 9868TIP3    H251020   0.048   1.360  17.131  0.2082  1.8468 -0.3632
 9869TIP3   OH251021   6.175   3.823   4.841  0.3860  0.0349 -0.5428
 9869TIP3    H151022   6.235   3.749   4.829  0.3297 -0.1390  0.1961
 9869TIP3    H251023   6.200   3.861   4.925 -1.8647 -1.3408  0.8567
 9870TIP3   OH251024   0.449   1.664   4.038 -0.2444 -0.0426  0.8894
 9870TIP3    H151025   0.426   1.676   3.946 -1.5100  0.5008  1.2494
 9870TIP3    H251026   0.545   1.660   4.039 -0.2545 -2.2508 -0.6794
 9871TIP3   OH251027   3.325   3.922   0.570 -0.1437 -0.2127 -0.2787
 9871TIP3    H151028   3.344   3.986   0.639  0.7592 -0.7975  0.0294
 9871TIP3    H251029   3.282   3.974   0.502  1.0936  0.8546 -0.2934
 9872TIP3   OH251030   1.505   2.732  14.604 -0.1437 -0.5108  0.3325
 9872TIP3    H151031   1.582   2.788  14.615  0.2649 -0.8690 -0.5836
 9872TIP3    H251032   1.531   2.649  14.643 -0.1893 -0.5191  0.3435
 9873TIP3   OH251033   1.975   5.818  13.744 -0.0707 -0.2665  0.1731
 9873TIP3    H151034   1.938   5.788  13.661  0.4040 -0.3519 -0.0120
 9873TIP3    H251035   1.961   5.913  13.745 -0.7667 -0.3681  0.3480
 9874TIP3   OH251036   2.684   3.368   4.981 -0.0325 -0.5118 -0.5601
 9874TIP3    H151037   2.599   3.327   4.970 -1.8638  2.7695  0.1908
 9874TIP3    H251038   2.696   3.375   5.076  1.2883 -1.2392 -0.6394
 9875TIP3   OH251039   0.512   6.263   1.136 -0.0485  0.8812  0.0603
 9875TIP3    H151040   0.523   6.168   1.134 -0.0824  0.8788  0.0030
 9875TIP3    H251041   0.582   6.297   1.080  0.1350  0.9050  0.3003
 9876TIP3   OH251042   3.783   3.745  13.092  0.0748 -0.5983 -0.2032
 9876TIP3    H151043   3.842   3.781  13.025 -0.3856 -0.5471 -0.5886
 9876TIP3    H251044   3.696   3.748  13.052 -0.2483 -0.3312  0.4943
 9877TIP3   OH251045   2.438   4.917   3.992 -0.3010  0.6390  0.5108
 9877TIP3    H151046   2.504   4.878   4.049 -1.7830  0.7072  2.3867
 9877TIP3    H251047   2.453   5.011   3.999  0.4377  0.5999 -0.4135
 9878TIP3   OH251048   2.202   1.191   2.549 -0.3576 -0.4821  0.1888
 9878TIP3    H151049   2.181   1.227   2.463  0.3729  0.6318  0.4549
 9878TIP3    H251050   2.169   1.101   2.546  0.1069 -0.6352 -1.4340
 9879TIP3   OH251051   0.425   1.687   5.940  0.0057 -0.0528  0.7766
 9879TIP3    H151052   0.447   1.627   5.869 -2.7964 -1.0795  0.6651
 9879TIP3    H251053   0.438   1.635   6.020 -1.2121 -0.4361  0.7430
 9880TIP3   OH251054   2.051   1.805   1.986  0.6170 -0.0318  0.1660
 9880TIP3    H151055   2.119   1.793   2.053  1.3934  0.6365 -0.4805
 9880TIP3    H251056   2.015   1.718   1.972  1.8531 -0.5322 -0.0116
 9881TIP3   OH251057   0.030   6.166  14.963  0.4325  0.1525  0.3984
 9881TIP3    H151058   0.079   6.156  14.881  0.2363  0.3656  0.2548
 9881TIP3    H251059  -0.029   6.240  14.947  0.1539 -0.0193  0.6146
 9882TIP3   OH251060   4.482   0.767   4.488  0.2280 -0.0301 -0.2993
 9882TIP3    H151061   4.414   0.826   4.521 -0.4861 -0.9073 -0.1578
 9882TIP3    H251062   4.519   0.727   4.566  1.1726  0.7148 -0.3569
 9883TIP3   OH251063   6.206   2.449  14.869  0.4385  0.3810 -0.5216
 9883TIP3    H151064   6.159   2.387  14.925  1.1416 -0.8977 -1.3077
 9883TIP3    H251065   6.274   2.485  14.925  0.1268  0.3222 -0.0998
 9884TIP3   OH251066   3.277   1.629   6.528 -0.5543 -0.4621 -0.0316
 9884TIP3    H151067   3.269   1.658   6.619 -0.6885 -0.7173  0.0428
 9884TIP3    H251068   3.327   1.547   6.534 -1.7021 -1.1929 -0.0333
 9885TIP3   OH251069   2.940   4.397   5.170  1.0758  0.1416 -0.1378
 9885TIP3    H151070   3.027   4.437   5.168  0.3236  1.8250 -0.9356
 9885TIP3    H251071   2.939   4.348   5.252  2.1734  1.5538  0.7853
 9886TIP3   OH251072   1.872   3.836  10.655  0.1985 -0.3537  0.3418
 9886TIP3    H151073   1.779   3.830  10.676  0.3331 -0.6078  0.8797
 9886TIP3    H251074   1.902   3.746  10.647 -0.1835 -0.3321 -2.6231
 9887TIP3   OH251075   5.444   1.745  13.923 -0.3796  0.1040  0.1357
 9887TIP3    H151076   5.416   1.774  14.010 -1.6027  0.4208 -0.3475
 9887TIP3    H251077   5.535   1.773  13.917 -0.4341  0.5380  1.1225
 9888TIP3   OH251078   4.136   3.484   4.272  0.1665  0.0877 -0.4959
 9888TIP3    H151079   4.125   3.474   4.366 -0.5382 -0.1138 -0.5918
 9888TIP3    H251080   4.225   3.452   4.254  0.9692  1.7256  0.3239
 9889TIP3   OH251081   2.554   1.648   0.925  0.2749 -0.4922  0.1621
 9889TIP3    H151082   2.540   1.703   0.849 -1.1655  2.7302  2.5103
 9889TIP3    H251083   2.645   1.665   0.951  0.7774 -1.6189 -0.7467
 9890TIP3   OH251084   2.107   1.402  15.444  0.8943 -0.6293  0.3510
 9890TIP3    H151085   2.051   1.340  15.397  0.0067  0.0980  0.4366
 9890TIP3    H251086   2.179   1.419  15.383 -0.7790  1.1314 -1.2944
 9891TIP3   OH251087   6.033   0.887  13.403 -0.2800  0.2212  0.2328
 9891TIP3    H151088   6.004   0.974  13.432  1.1739  0.6045  0.6052
 9891TIP3    H251089   5.952   0.843  13.377 -1.3680  0.7415  2.4866
 9892TIP3   OH251090   3.168   2.804  12.811 -0.1845  0.0536 -0.4262
 9892TIP3    H151091   3.146   2.839  12.725 -4.4965  1.2154  0.8755
 9892TIP3    H251092   3.261   2.822  12.821 -0.0119  1.9728 -3.8891
 9893TIP3   OH251093   2.680   3.632  15.100 -0.7162 -0.1276 -0.0576
 9893TIP3    H151094   2.649   3.716  15.133 -2.3615 -0.3659 -0.8768
 9893TIP3    H251095   2.696   3.646  15.007  0.8045 -0.2729  0.1542
 9894TIP3   OH251096   5.140   1.816   3.603 -0.1461 -0.6262 -0.1317
 9894TIP3    H151097   5.093   1.827   3.686 -0.8484 -0.8442 -0.4889
 9894TIP3    H251098   5.083   1.759   3.551 -0.8102  1.2451 -1.5932
 9895TIP3   OH251099   4.291   1.662  15.548  0.1148 -0.7783 -0.2325
 9895TIP3    H151100   4.250   1.749  15.550 -1.4433 -1.4614 -1.1888
 9895TIP3    H251101   4.380   1.678  15.581 -0.5758  0.9153  1.0030
 9896TIP3   OH251102   6.593   1.826  17.000  0.2846  0.1160  0.2279
 9896TIP3    H151103   6.618   1.905  17.047 -1.0148  0.6498  0.0769
 9896TIP3    H251104   6.535   1.857  16.930  1.0948 -0.8032 -0.8877
 9897TIP3   OH251105   4.532   0.195   1.287  0.2640 -0.2582 -0.1332
 9897TIP3    H151106   4.468   0.128   1.310 -0.5788  0.5212 -0.1147
 9897TIP3    H251107   4.617   0.158   1.311 -0.3504 -0.4881  1.8890
 9898TIP3   OH251108   6.687   5.061   4.719  0.2234 -0.7762  0.2065
 9898TIP3    H151109   6.618   5.019   4.771  0.4570  0.8228  1.9394
 9898TIP3    H251110   6.646   5.080   4.635 -1.2079 -0.5963  0.9167
 9899TIP3   OH251111   2.862   0.140   6.617  0.3269 -0.4834 -0.3206
 9899TIP3    H151112   2.891   0.092   6.540  0.9951 -0.1694 -0.2707
 9899TIP3    H251113   2.780   0.098   6.642 -0.8715  0.5391 -2.2664
 9900TIP3   OH251114   3.306   1.293   4.911 -0.7344 -0.2139 -0.0110
 9900TIP3    H151115   3.310   1.198   4.907  0.0180 -0.1875  0.1210
 9900TIP3    H251116   3.220   1.311   4.950 -1.8654 -0.7789 -2.1080
 9901TIP3   OH251117   0.352   3.001   2.084 -0.1938 -0.3997 -0.0809
 9901TIP3    H151118   0.439   2.972   2.109  0.7965  1.3123 -1.3218
 9901TIP3    H251119   0.320   3.050   2.160  0.0332 -0.7905  0.2713
 9902TIP3   OH251120   3.407   4.820   3.309  0.0619  0.8839  0.1131
 9902TIP3    H151121   3.327   4.772   3.332 -0.0931  0.8711 -0.4404
 9902TIP3    H251122   3.435   4.781   3.226  0.8702  0.6146  0.5022
 9903TIP3   OH251123   4.377   5.270   1.246 -0.1286  0.0933 -0.3190
 9903TIP3    H151124   4.471   5.264   1.266 -0.1249  2.1698  0.4655
 9903TIP3    H251125   4.338   5.303   1.327 -1.5450 -0.6091 -0.6908
 9904TIP3   OH251126   6.174   6.746   3.878 -0.3569  0.5660  0.5074
 9904TIP3    H151127   6.260   6.748   3.835 -0.5356  1.7570  0.1640
 9904TIP3    H251128   6.194   6.746   3.972  0.0188 -1.0381  0.4650
 9905TIP3   OH251129   1.150   5.675   5.411  0.1223  0.2970  0.6444
 9905TIP3    H151130   1.107   5.753   5.446  0.7357  1.4684 -1.0989
 9905TIP3    H251131   1.078   5.619   5.382 -0.3891  2.4943 -2.8152
 9906TIP3   OH251132   5.947   4.655  16.444  0.4107 -0.3964 -0.2442
 9906TIP3    H151133   5.931   4.686  16.533 -0.7820  0.1425 -0.6304
 9906TIP3    H251134   5.977   4.733  16.397 -1.6728  0.0121 -0.9849
 9907TIP3   OH251135   4.312   0.906   6.376  0.1513  0.4346  0.0033
 9907TIP3    H151136   4.218   0.913   6.363  0.1059  0.0703  0.1131
 9907TIP3    H251137   4.321   0.880   6.468  0.3492  0.2827 -0.0590
 9908TIP3   OH251138   6.611   5.174   2.499  0.2987  0.4906  0.2810
 9908TIP3    H151139   6.621   5.246   2.560 -2.1919  1.1038  0.0868
 9908TIP3    H251140   6.530   5.194   2.451  0.3623 -1.6509 -0.8561
 9909TIP3   OH251141   6.752   1.974  13.037 -0.5877  0.7421 -0.7529
 9909TIP3    H151142   6.736   2.020  12.955 -2.6172 -0.4794 -1.1212
 9909TIP3    H251143   6.832   1.923  13.021  1.0198  3.1018 -0.7283
 9910TIP3   OH251144   2.548   4.545   3.242  0.9363 -0.1006 -0.7879
 9910TIP3    H151145   2.485   4.480   3.272  0.5753 -0.1083 -1.5349
 9910TIP3    H251146   2.617   4.545   3.309  0.5230 -0.6368 -0.3533
 9911TIP3   OH251147   2.401   2.589  13.305  0.5477  0.8072 -0.3184
 9911TIP3    H151148   2.333   2.544  13.356  0.6821  0.3387 -0.5454
 9911TIP3    H251149   2.370   2.680  13.299  0.4989  0.8545  0.5347
 9912TIP3   OH251150   1.191   1.877   4.167  0.0400  0.2229  0.2451
 9912TIP3    H151151   1.132   1.846   4.236 -0.6090  1.1887  0.1357
 9912TIP3    H251152   1.232   1.955   4.204 -0.6959  1.0509 -0.6256
 9913TIP3   OH251153   4.005   1.108   1.161  0.1884 -0.0674 -0.4247
 9913TIP3    H151154   4.082   1.146   1.118 -0.7728  1.4966 -0.8354
 9913TIP3    H251155   3.964   1.182   1.205 -0.5081 -1.0893  0.7135
 9914TIP3   OH251156   6.075   0.505   2.684  0.0510 -0.0088  0.3641
 9914TIP3    H151157   6.113   0.436   2.630 -1.6102 -0.0156 -0.8545
 9914TIP3    H251158   6.142   0.573   2.685  3.2077 -2.7065  4.2823
 9915TIP3   OH251159   5.176   3.412   5.985  0.1885 -0.1541  0.3184
 9915TIP3    H151160   5.249   3.351   5.977  1.0787  0.9308 -0.2321
 9915TIP3    H251161   5.147   3.404   6.076  0.6757 -0.9520  0.4103
 9916TIP3   OH251162   6.246   3.688   1.310 -0.5935 -0.3328 -0.2067
 9916TIP3    H151163   6.275   3.779   1.311 -1.8918  0.1656 -1.6380
 9916TIP3    H251164   6.307   3.644   1.251 -0.8606 -0.0073 -0.7407
 9917TIP3   OH251165   0.962   2.743   1.780  0.2111  0.6051  0.0316
 9917TIP3    H151166   0.917   2.827   1.790  1.0120  1.0370  0.1210
 9917TIP3    H251167   1.055   2.767   1.775  0.4496 -0.2847  0.1354
 9918TIP3   OH251168   6.261   0.746   0.731  0.8473  0.3834 -0.1173
 9918TIP3    H151169   6.286   0.660   0.698  1.1546  0.7214 -0.7818
 9918TIP3    H251170   6.289   0.746   0.823  1.7499  0.1314 -0.3811
 9919TIP3   OH251171   4.887   2.187  13.029  0.2781  0.2163 -0.4055
 9919TIP3    H151172   4.916   2.126  12.961  1.2423 -1.0390  1.0738
 9919TIP3    H251173   4.800   2.155  13.054  0.4483 -0.0951 -0.1958
 9920TIP3   OH251174   0.897   1.458   0.611 -0.1395 -0.3791 -0.0091
 9920TIP3    H151175   0.885   1.385   0.672  0.0346 -1.4334 -1.2048
 9920TIP3    H251176   0.809   1.472   0.574  0.3891 -2.2923 -2.2757
 9921TIP3   OH251177   5.494   0.758   2.360 -0.0361  0.6462 -0.2203
 9921TIP3    H151178   5.517   0.696   2.429 -2.0217 -0.7868 -0.7665
 9921TIP3    H251179   5.463   0.835   2.406 -3.2475 -0.9873  0.6902
 9922TIP3   OH251180   4.610   4.474   0.331  0.1188  0.0263  0.9003
 9922TIP3    H151181   4.668   4.416   0.380 -0.3254 -0.3794  0.9507
 9922TIP3    H251182   4.630   4.561   0.365  1.7825  0.1039 -0.1337
 9923TIP3   OH251183   3.098   2.652   0.197  0.1705 -0.0022 -0.2619
 9923TIP3    H151184   3.031   2.603   0.244 -0.1020  0.4201 -0.2051
 9923TIP3    H251185   3.101   2.611   0.110  0.5079 -0.6274  0.0369
 9924TIP3   OH251186   4.582   4.316  10.568 -0.3335  0.0995 -0.0212
 9924TIP3    H151187   4.640   4.342  10.639 -0.9416  1.5792 -0.0282
 9924TIP3    H251188   4.570   4.222  10.580  1.5687 -0.1407  0.3204
 9925TIP3   OH251189   1.558   3.825   3.433 -0.5282 -0.4591 -0.4075
 9925TIP3    H151190   1.510   3.861   3.358 -1.9150  0.7732  0.9850
 9925TIP3    H251191   1.544   3.889   3.503  1.8232 -0.9000  0.5611
 9926TIP3   OH251192   0.420   6.657   0.310  0.4681 -0.1997 -0.3534
 9926TIP3    H151193   0.369   6.727   0.350  1.6501  0.4397  0.0931
 9926TIP3    H251194   0.439   6.688   0.221  3.2079  1.3358  0.6426
 9927TIP3   OH251195   4.806   2.909  11.421  0.6760 -0.1421  0.2095
 9927TIP3    H151196   4.712   2.911  11.437  0.6351 -0.3651 -0.0050
 9927TIP3    H251197   4.831   3.002  11.415 -0.2172  0.0311 -3.7569
 9928TIP3   OH251198   3.938   5.183  15.999 -0.4240 -0.5316 -0.0694
 9928TIP3    H151199   3.929   5.094  15.965  0.5018 -0.6026 -0.1478
 9928TIP3    H251200   3.984   5.230  15.929 -1.0364  0.0450 -0.0897
 9929TIP3   OH251201   0.646   4.925  16.159  0.1295  0.1623  0.2077
 9929TIP3    H151202   0.620   5.017  16.153  1.6865  0.5728 -0.7270
 9929TIP3    H251203   0.568   4.881  16.192 -2.5067  1.0143 -4.0591
 9930TIP3   OH251204   0.713   0.351   2.282 -0.4750 -0.0927  0.1787
 9930TIP3    H151205   0.685   0.308   2.201 -3.7798  0.5123  0.8594
 9930TIP3    H251206   0.785   0.297   2.314  0.9049 -0.4017 -3.0545
 9931TIP3   OH251207   6.582   1.995  13.973 -0.3652 -0.3211 -0.2466
 9931TIP3    H151208   6.618   1.999  13.884 -0.9205  2.1473 -0.4286
 9931TIP3    H251209   6.491   1.966  13.961 -0.6401  0.6511 -0.5700
 9932TIP3   OH251210   2.575   4.771  14.745  0.3938  0.4473  0.6673
 9932TIP3    H151211   2.570   4.865  14.729 -0.2419  0.0248 -2.0741
 9932TIP3    H251212   2.662   4.757  14.781  1.2142  1.8851 -0.6466
 9933TIP3   OH251213   0.504   4.287   3.352 -0.3169 -0.2226  0.2021
 9933TIP3    H151214   0.592   4.309   3.321 -0.0226  0.8729  1.7398
 9933TIP3    H251215   0.452   4.365   3.336 -0.6374 -0.3348  0.6716
 9934TIP3   OH251216   4.846   2.682  12.360 -0.5268 -0.3400  0.0883
 9934TIP3    H151217   4.821   2.757  12.414  0.0013  0.1635 -0.3542
 9934TIP3    H251218   4.934   2.703  12.328  1.2798 -2.7562  2.9188
 9935TIP3   OH251219   0.691   4.928   2.023 -0.1405  0.1486  0.1549
 9935TIP3    H151220   0.692   4.837   2.051 -0.4045  0.7351  2.2687
 9935TIP3    H251221   0.648   4.927   1.937  0.3604 -1.7495 -0.1073
 9936TIP3   OH251222   4.166   6.281   5.415  0.0861  0.4845 -0.6210
 9936TIP3    H151223   4.111   6.208   5.385  0.6591 -0.0828 -0.2958
 9936TIP3    H251224   4.113   6.325   5.481  0.3105 -0.5267  0.2601
 9937TIP3   OH251225   5.602   5.459   2.261  0.0129  0.1932  0.0969
 9937TIP3    H151226   5.643   5.538   2.227  1.6838  0.0121  1.5573
 9937TIP3    H251227   5.641   5.447   2.347 -0.6734 -1.8629  0.1723
 9938TIP3   OH251228   6.505   6.254  14.896 -0.4345  0.1179 -0.4323
 9938TIP3    H151229   6.481   6.233  14.806 -0.0180  0.5710 -0.6512
 9938TIP3    H251230   6.550   6.338  14.890 -0.6073  0.2645  0.2280
 9939TIP3   OH251231   6.224   2.670   6.445  0.2851  0.1809  0.4428
 9939TIP3    H151232   6.305   2.620   6.454  0.3573  0.5400  2.3399
 9939TIP3    H251233   6.155   2.603   6.446  0.4660 -0.0062  1.1164
 9940TIP3   OH251234   0.381   4.730  13.531 -0.5080 -0.1432  0.6014
 9940TIP3    H151235   0.317   4.738  13.600 -0.1239 -1.8329  1.2154
 9940TIP3    H251236   0.407   4.638  13.533  0.2981 -0.0018 -1.0870
 9941TIP3   OH251237   4.252   5.002   3.650  0.2192  0.1818 -0.6042
 9941TIP3    H151238   4.253   5.068   3.580  1.2416 -0.6122 -1.3818
 9941TIP3    H251239   4.196   5.039   3.717  1.4658  2.2593 -0.6144
 9942TIP3   OH251240   0.762   4.586  14.728 -0.1723  0.1003 -0.5671
 9942TIP3    H151241   0.789   4.527  14.657  2.0795  1.5002 -0.9977
 9942TIP3    H251242   0.743   4.669  14.685 -1.7970  0.1511  0.1832
 9943TIP3   OH251243   4.366   3.472   4.529  0.7765 -0.4771 -0.0287
 9943TIP3    H151244   4.411   3.396   4.565 -0.3020 -0.4325  1.5300
 9943TIP3    H251245   4.435   3.528   4.495  1.8742 -0.6196  1.8598
 9944TIP3   OH251246   4.844   1.099   4.010 -0.5258  0.2440  0.3464
 9944TIP3    H151247   4.813   1.181   3.973 -0.2437  0.3089  0.2492
 9944TIP3    H251248   4.806   1.031   3.954 -0.6354  0.3138  0.3363
 9945TIP3   OH251249   4.462   3.700  16.313 -0.2074  0.4921  0.4767
 9945TIP3    H151250   4.530   3.767  16.313 -2.4070  2.8568 -0.8832
 9945TIP3    H251251   4.505   3.623  16.274  1.9442  1.5511  0.6075
 9946TIP3   OH251252   3.602   1.582  12.629 -0.6000  0.5960  0.1928
 9946TIP3    H151253   3.668   1.549  12.691  1.4546  0.5401 -1.9052
 9946TIP3    H251254   3.536   1.512  12.625  1.4967 -1.4365 -0.9632
 9947TIP3   OH251255   1.786   2.794  12.038  0.2504  0.3363  0.2338
 9947TIP3    H151256   1.858   2.732  12.030 -0.0755 -0.0270  0.0991
 9947TIP3    H251257   1.824   2.867  12.087  0.5164 -0.1674  0.8025
 9948TIP3   OH251258   3.552   3.371  14.021 -0.0433  0.1130  0.3461
 9948TIP3    H151259   3.593   3.371  13.934 -2.0666  2.6345 -0.7547
 9948TIP3    H251260   3.525   3.281  14.035  0.2071 -0.3306 -1.7428
 9949TIP3   OH251261   5.554   3.458  12.911  0.2799 -0.2729 -0.3311
 9949TIP3    H151262   5.555   3.400  12.986 -0.5740  0.6945  0.4528
 9949TIP3    H251263   5.639   3.503  12.914  0.5798 -0.8175 -0.4395
 9950TIP3   OH251264   6.135   0.839  13.132 -0.1668  0.0906  0.3817
 9950TIP3    H151265   6.097   0.869  13.215  1.7359 -1.0554  1.7468
 9950TIP3    H251266   6.103   0.750  13.122  1.4164 -0.5995  1.1329
 9951TIP3   OH251267   4.863   0.129   3.480  0.5721 -0.1346 -0.1868
 9951TIP3    H151268   4.863   0.188   3.555 -0.2842 -1.9347  1.3163
 9951TIP3    H251269   4.955   0.126   3.452  0.8308  0.8946  0.4961
 9952TIP3   OH251270   1.960   0.997   0.904  0.4770  0.2868 -0.3020
 9952TIP3    H151271   1.935   0.910   0.874  1.8811  0.9986 -4.1234
 9952TIP3    H251272   1.877   1.044   0.914 -0.2043 -0.9490  0.0789
 9953TIP3   OH251273   4.615   2.647  12.593 -0.0477  0.6458  0.2561
 9953TIP3    H151274   4.669   2.630  12.670  0.6303 -0.1723 -0.3996
 9953TIP3    H251275   4.652   2.727  12.555  1.1069 -0.2373 -0.5296
 9954TIP3   OH251276   4.703   4.236  12.955  0.0397 -0.4148  0.3638
 9954TIP3    H151277   4.609   4.223  12.946 -0.5290  1.7818  2.1665
 9954TIP3    H251278   4.738   4.223  12.867 -2.5197  2.6206 -1.3278
 9955TIP3   OH251279   4.264   5.632   2.855 -0.3935 -0.1456 -0.3391
 9955TIP3    H151280   4.322   5.570   2.900  0.5442  0.0767 -1.2173
 9955TIP3    H251281   4.320   5.676   2.791 -1.4675  0.3020 -0.9993
 9956TIP3   OH251282   4.915   3.235   2.764 -0.1663 -0.4418 -0.0961
 9956TIP3    H151283   4.841   3.175   2.770 -0.9693  0.4053 -1.1495
 9956TIP3    H251284   4.876   3.319   2.738  1.1901 -0.0669 -1.0257
 9957TIP3   OH251285   4.500   1.448  13.514  0.3360  0.4415  0.0407
 9957TIP3    H151286   4.490   1.542  13.502  1.7231  0.8716  1.7847
 9957TIP3    H251287   4.413   1.419  13.543 -0.0673  1.1965 -0.3761
 9958TIP3   OH251288   3.860   0.277   1.701 -0.4428 -0.0427 -0.5549
 9958TIP3    H151289   3.835   0.259   1.610 -1.8877 -1.2020  0.0381
 9958TIP3    H251290   3.780   0.309   1.742  0.6314  2.2361 -0.0861
 9959TIP3   OH251291   1.450   4.666   3.981  0.2276 -0.7302 -0.7049
 9959TIP3    H151292   1.424   4.577   4.006 -0.7980 -0.4991 -0.9111
 9959TIP3    H251293   1.427   4.719   4.057 -0.1437 -0.4817 -0.9910
 9960TIP3   OH251294   1.300   4.322  14.155  0.1850 -1.0077 -0.2926
 9960TIP3    H151295   1.259   4.394  14.106  0.4507 -1.5200 -1.2965
 9960TIP3    H251296   1.263   4.243  14.116  1.6382 -1.4664 -0.8001
 9961TIP3   OH251297   0.856   2.916  13.753  0.4812 -0.3683  0.6210
 9961TIP3    H151298   0.827   2.831  13.787  1.3018 -0.9254 -0.0412
 9961TIP3    H251299   0.824   2.979  13.818 -3.4362 -0.7269 -0.6949
 9962TIP3   OH251300   6.083   1.592  14.756  0.1825 -0.5276 -0.0819
 9962TIP3    H151301   6.126   1.675  14.774  1.0838 -0.9007 -0.4910
 9962TIP3    H251302   5.997   1.600  14.798 -0.0522  0.9000 -0.7737
 9963TIP3   OH251303   0.350   3.003  12.167 -0.0422 -0.3998 -0.0949
 9963TIP3    H151304   0.269   3.026  12.213  0.1045  0.3443 -0.1832
 9963TIP3    H251305   0.338   3.036  12.078 -0.3277 -1.8443 -0.6155
 9964TIP3   OH251306   1.969   5.809   2.894 -0.0264 -0.1445  0.0261
 9964TIP3    H151307   1.921   5.891   2.882 -0.2484 -0.2054  0.4768
 9964TIP3    H251308   2.053   5.835   2.931 -0.0514 -0.1115  0.0593
 9965TIP3   OH251309   0.146   3.635  11.384  0.0511  0.1057 -0.0916
 9965TIP3    H151310   0.205   3.703  11.416 -0.3644 -0.3149  1.6912
 9965TIP3    H251311   0.078   3.628  11.452 -0.7348 -1.0593 -0.9471
 9966TIP3   OH251312   4.487   3.220  12.933  0.0821 -0.2008 -0.0977
 9966TIP3    H151313   4.569   3.178  12.960  0.2593 -0.4626 -1.0138
 9966TIP3    H251314   4.514   3.300  12.888 -0.1830 -0.0661 -0.0223
 9967TIP3   OH251315   1.996   4.757   6.789 -0.1791  0.1026  0.3325
 9967TIP3    H151316   1.912   4.713   6.800  0.0376 -0.4550 -0.1828
 9967TIP3    H251317   2.036   4.715   6.712  1.1559 -0.5929  1.3626
 9968TIP3   OH251318   1.715   1.721   0.844 -0.1505  0.3182  0.0867
 9968TIP3    H151319   1.663   1.643   0.860 -1.1569  0.3624 -2.5045
 9968TIP3    H251320   1.752   1.744   0.930 -1.6909 -1.6328  1.3437
 9969TIP3   OH251321   1.684   1.106  11.631  0.3851  0.0457 -0.1041
 9969TIP3    H151322   1.640   1.115  11.547 -0.7372  1.2355  0.5890
 9969TIP3    H251323   1.701   1.012  11.639  0.6646 -0.0644 -1.7191
 9970TIP3   OH251324   6.646   6.035  12.388  0.3782 -0.3306 -0.1860
 9970TIP3    H151325   6.729   6.011  12.346 -0.1420 -1.9416 -0.3670
 9970TIP3    H251326   6.672   6.086  12.465  1.4340  0.8670 -1.2839
 9971TIP3   OH251327   4.466   1.716  13.503 -0.1939  0.1478  0.8375
 9971TIP3    H151328   4.462   1.799  13.455 -0.8969 -0.0928  0.4596
 9971TIP3    H251329   4.408   1.729  13.579 -0.0150  0.1275  0.9786
 9972TIP3   OH251330   3.119   2.009  12.887 -0.3716 -0.4138  0.6152
 9972TIP3    H151331   3.102   2.046  12.974 -0.0303  0.3282  0.3716
 9972TIP3    H251332   3.122   2.085  12.829  1.0361 -0.7510  0.2108
 9973TIP3   OH251333   3.555   1.305   0.915 -0.3977  0.0728  0.3515
 9973TIP3    H151334   3.650   1.304   0.918 -0.2979  1.7945 -0.7065
 9973TIP3    H251335   3.527   1.334   1.002  0.1440  1.3686  0.1128
 9974TIP3   OH251336   5.866   1.037   5.260 -0.3700 -0.3195 -0.0116
 9974TIP3    H151337   5.815   1.026   5.341  0.2914 -0.3063  0.4138
 9974TIP3    H251338   5.838   0.964   5.205  0.6257 -1.5504  1.0197
 9975TIP3   OH251339   0.307   1.056   2.178 -0.1037  0.1643 -0.4899
 9975TIP3    H151340   0.316   0.965   2.205  1.9123  0.4735  0.0566
 9975TIP3    H251341   0.302   1.105   2.261  2.1610  0.7825 -0.6501
 9976TIP3   OH251342   4.529   5.522  12.650 -0.1857 -0.3186 -0.1943
 9976TIP3    H151343   4.493   5.611  12.643  2.4465  0.7167 -2.3484
 9976TIP3    H251344   4.474   5.470  12.592 -1.3573 -0.0127  0.5896
 9977TIP3   OH251345   3.314   2.883  16.453 -0.2009 -0.2683  0.0320
 9977TIP3    H151346   3.238   2.867  16.509  0.3654  1.7419  1.4822
 9977TIP3    H251347   3.277   2.921  16.373 -0.7481  0.8958  0.8123
 9978TIP3   OH251348   1.140   5.887   0.608 -0.1539 -0.7108 -0.2307
 9978TIP3    H151349   1.183   5.915   0.527  0.3549 -0.6998  0.0410
 9978TIP3    H251350   1.164   5.795   0.619  0.4084 -0.5082  0.3028
 9979TIP3   OH251351   5.209   2.794   3.211 -0.1915  0.1602 -0.4336
 9979TIP3    H151352   5.245   2.805   3.299  0.8884  0.5889 -0.9026
 9979TIP3    H251353   5.118   2.770   3.224 -0.3283  1.2637  0.7848
 9980TIP3   OH251354   1.354   5.756   1.902 -0.0722  0.1317  0.5094
 9980TIP3    H151355   1.288   5.729   1.838 -0.6296  2.5171 -0.0345
 9980TIP3    H251356   1.437   5.754   1.854 -0.1458 -0.2168  0.3895
 9981TIP3   OH251357   5.902   2.042   0.030 -0.4073  0.3505 -0.3034
 9981TIP3    H151358   5.849   2.117   0.057  0.8080  0.4172  2.1519
 9981TIP3    H251359   5.918   1.994   0.111  0.5112 -1.4832 -1.5099
 9982TIP3   OH251360   1.283   0.451  11.972  0.5342  0.5520  0.5455
 9982TIP3    H151361   1.232   0.462  11.892  2.7294  0.0856 -1.0150
 9982TIP3    H251362   1.274   0.358  11.994 -0.9238  0.8963  1.4872
 9983TIP3   OH251363   3.119   5.782  14.278  0.4331 -0.1007 -0.4574
 9983TIP3    H151364   3.138   5.868  14.241  1.4154 -0.2165 -0.2743
 9983TIP3    H251365   3.025   5.772  14.270 -0.0132  1.8808  1.3910
 9984TIP3   OH251366   2.621   5.886  14.285  0.3570  0.4683 -0.4719
 9984TIP3    H151367   2.630   5.873  14.191 -0.1989  0.9110 -0.5878
 9984TIP3    H251368   2.703   5.926  14.312  1.7613 -2.2889 -0.2641
 9985TIP3   OH251369   4.315   2.579  16.806  0.1551 -0.0222  0.1961
 9985TIP3    H151370   4.323   2.496  16.852  1.9399 -0.8522 -1.4663
 9985TIP3    H251371   4.277   2.639  16.870 -2.0165 -2.2971  1.1656
 9986TIP3   OH251372   6.120   0.848  12.307  0.3621 -0.1002  0.8177
 9986TIP3    H151373   6.128   0.939  12.334 -0.3043  0.3364 -0.3572
 9986TIP3    H251374   6.027   0.839  12.283  0.5378 -0.9418  0.4276
 9987TIP3   OH251375   1.974   1.729  13.018 -0.3810  0.0005 -0.2907
 9987TIP3    H151376   2.023   1.793  12.967 -0.0512  0.3179  0.4185
 9987TIP3    H251377   1.945   1.665  12.953  0.2815  0.2394 -0.8399
 9988TIP3   OH251378   5.230   1.063  11.770 -0.1430  0.4608  0.8092
 9988TIP3    H151379   5.226   0.979  11.724 -0.3324  0.4664  0.8153
 9988TIP3    H251380   5.158   1.114  11.733  1.0853  1.3076 -0.5415
 9989TIP3   OH251381   0.643   0.986   3.959  0.1143 -0.0526  0.3526
 9989TIP3    H151382   0.690   1.066   3.983  1.2993 -0.5914 -0.0824
 9989TIP3    H251383   0.624   0.997   3.866 -0.1446 -0.0745  0.4024
 9990TIP3   OH251384   1.008   0.249   0.806  0.1042  0.2270 -0.7438
 9990TIP3    H151385   0.929   0.298   0.785 -1.7701 -1.5834  1.5030
 9990TIP3    H251386   0.984   0.157   0.792  1.7997 -0.3808  0.0412
 9991TIP3   OH251387   2.375   2.577   5.989 -0.3698  0.1839  0.9152
 9991TIP3    H151388   2.365   2.598   6.082  0.0555 -1.8959  1.4806
 9991TIP3    H251389   2.452   2.520   5.985 -1.1820 -0.8785 -0.5065
 9992TIP3   OH251390   2.590   1.548  16.784 -0.0467  0.3392 -0.4613
 9992TIP3    H151391   2.615   1.484  16.718 -0.3780  0.4524 -0.6960
 9992TIP3    H251392   2.544   1.617  16.736 -2.6110 -0.8068  0.2065
 9993TIP3   OH251393   2.555   6.639  11.966  0.1950  0.0697 -0.9404
 9993TIP3    H151394   2.630   6.649  12.024 -1.0179 -0.3618  0.7509
 9993TIP3    H251395   2.553   6.545  11.945  0.2311  0.1161 -1.1637
 9994TIP3   OH251396   6.558   3.155   5.552 -0.2250 -0.2364 -0.4251
 9994TIP3    H151397   6.584   3.217   5.619 -0.4759 -2.0762  1.4807
 9994TIP3    H251398   6.462   3.151   5.558 -0.2360 -0.5587 -0.7586
 9995TIP3   OH251399   2.135   0.481  13.076 -0.4908  0.0323 -0.5973
 9995TIP3    H151400   2.068   0.527  13.126 -0.0954 -2.4252  2.5026
 9995TIP3    H251401   2.089   0.405  13.039  0.4320 -1.6415  1.5066
 9996TIP3   OH251402   0.133   1.184  13.986 -0.1469 -0.5423  0.1837
 9996TIP3    H151403   0.144   1.269  13.945  0.4779 -1.0855 -0.8184
 9996TIP3    H251404   0.062   1.196  14.050  0.3430  0.8573  0.4844
 9997TIP3   OH251405   3.153   0.124   0.133 -0.2054 -0.3721  0.5362
 9997TIP3    H151406   3.178   0.045   0.085  0.8470  0.7539 -0.8582
 9997TIP3    H251407   3.059   0.131   0.119 -0.2116 -1.0571  0.1733
 9998TIP3   OH251408   4.081   4.144  16.401  0.6090  0.4000 -0.1893
 9998TIP3    H151409   4.161   4.161  16.451  0.4737 -0.4382  0.3345
 9998TIP3    H251410   4.010   4.176  16.457  0.5139  0.2113 -0.1997
 9999TIP3   OH251411   3.719   6.118   0.506  0.1638 -0.3001  0.9734
 9999TIP3    H151412   3.811   6.146   0.510 -0.1093  0.8948 -0.2037
 9999TIP3    H251413   3.722   6.024   0.521  1.7097 -0.4452  0.0437
10000TIP3   OH251414   3.751   1.900  13.006  0.3496 -0.4823  0.5117
10000TIP3    H151415   3.817   1.875  12.941 -0.5484 -1.5017 -0.0391
10000TIP3    H251416   3.793   1.970  13.057  1.4104 -0.3070 -0.5605
10001TIP3   OH251417   5.002   1.528  13.931 -0.1653  0.0418 -0.1749
10001TIP3    H151418   4.948   1.598  13.968  0.2787  0.7728 -0.8787
10001TIP3    H251419   5.026   1.473  14.006 -2.1888 -0.5371  0.1139
10002TIP3   OH251420   3.875   2.355  13.331 -0.1213 -0.3753 -0.1729
10002TIP3    H151421   3.846   2.324  13.417 -0.6265 -0.0305 -0.2123
10002TIP3    H251422   3.799   2.403  13.297  1.0011  2.0182  0.4393
10003TIP3   OH251423   2.602   5.962  12.327  0.0562  0.6561 -0.3980
10003TIP3    H151424   2.656   6.032  12.363  2.7259 -0.4495 -1.9291
10003TIP3    H251425   2.517   6.004  12.309  0.3218  2.4861  2.1108
10004TIP3   OH251426   0.683   2.955  13.009 -0.3034 -0.4064  0.0271
10004TIP3    H151427   0.634   2.910  12.940  0.6428  0.0125 -0.9424
10004TIP3    H251428   0.628   2.947  13.087 -1.3349 -0.9954 -0.7444
10005TIP3   OH251429   3.434   0.440   5.170 -0.1415 -0.7125 -0.5136
10005TIP3    H151430   3.505   0.406   5.225 -0.0970 -1.0261 -0.7647
10005TIP3    H251431   3.370   0.474   5.233 -0.3247 -1.5376 -0.2385
10006TIP3   OH251432   0.141   4.011  13.426  0.3890 -0.3066 -0.6751
10006TIP3    H151433   0.142   3.982  13.517  1.1176  0.4913 -0.4196
10006TIP3    H251434   0.048   4.029  13.408 -0.1693 -3.0339 -0.9591
10007TIP3   OH251435   5.397   5.627  13.570  0.1021 -0.1792 -0.5460
10007TIP3    H151436   5.485   5.590  13.582 -0.0234 -0.2638  0.1754
10007TIP3    H251437   5.410   5.721  13.581 -0.1716 -0.3361  1.3657
10008TIP3   OH251438   0.815   2.286   0.405  0.0187 -0.2621 -0.2336
10008TIP3    H151439   0.809   2.272   0.499 -1.5513  0.2194 -0.2468
10008TIP3    H251440   0.825   2.381   0.395  0.6285 -0.3522 -0.5425
10009TIP3   OH251441   5.893   0.372  16.840 -0.1241 -0.0100 -0.0496
10009TIP3    H151442   5.892   0.443  16.776  0.4908 -0.1536 -0.2301
10009TIP3    H251443   5.848   0.300  16.795  1.3521 -0.4951 -0.8016
10010TIP3   OH251444   2.966   4.532  16.862  0.8265 -0.3225 -0.3918
10010TIP3    H151445   3.018   4.608  16.889 -1.8805  1.7395 -0.6221
10010TIP3    H251446   2.903   4.519  16.933  1.0996 -2.3032 -0.4490
10011TIP3   OH251447   0.794   4.609  15.511 -0.2594 -0.4094  0.0663
10011TIP3    H151448   0.756   4.537  15.462 -1.2129  1.1194 -1.5551
10011TIP3    H251449   0.887   4.588  15.517 -0.5084 -1.7298 -0.3797
10012TIP3   OH251450   3.011   6.652  16.066  0.0453  0.1614  0.3326
10012TIP3    H151451   2.926   6.617  16.091 -0.6733  0.2871 -1.7279
10012TIP3    H251452   3.070   6.578  16.070 -0.0647  0.1314  2.0569
10013TIP3   OH251453   2.156   3.597  14.098 -0.1106 -0.3990  0.2233
10013TIP3    H151454   2.122   3.656  14.166  0.5953  0.5599 -0.2353
10013TIP3    H251455   2.227   3.646  14.057 -1.8768 -0.0208 -2.6920
10014TIP3   OH251456   1.431   4.248  11.495 -0.3178 -0.0434 -0.3042
10014TIP3    H151457   1.338   4.265  11.488 -0.0655  1.9884  0.4065
10014TIP3    H251458   1.470   4.334  11.512  1.5772 -0.9522  0.3320
10015TIP3   OH251459   0.005   4.321  15.778 -0.5035 -0.3272  0.2925
10015TIP3    H151460   0.057   4.259  15.829 -0.1031 -0.7276 -0.5797
10015TIP3    H251461  -0.082   4.281  15.775 -0.8412  0.2705  1.6260
10016TIP3   OH251462   4.417   6.149   0.080  0.3897 -0.7442  0.3782
10016TIP3    H151463   4.450   6.214   0.018 -1.6016 -0.7287 -0.7850
10016TIP3    H251464   4.470   6.070   0.063  0.7357 -0.3481 -0.4340
10017TIP3   OH251465   0.687   6.342   0.863 -0.0878  0.0346 -0.6726
10017TIP3    H151466   0.725   6.262   0.828  0.0263 -1.3255  2.2817
10017TIP3    H251467   0.736   6.359   0.943 -1.1131  2.2162 -0.4413
10018TIP3   OH251468   2.309   1.977   5.419  0.0640 -0.2823  0.0504
10018TIP3    H151469   2.349   1.992   5.504 -0.2004  0.1988  0.0926
10018TIP3    H251470   2.317   1.882   5.405 -0.6704 -0.4971  0.9903
10019TIP3   OH251471   3.128   1.375  13.782  0.3154 -0.4922  0.6361
10019TIP3    H151472   3.207   1.427  13.768 -0.1361  0.3753  1.2546
10019TIP3    H251473   3.056   1.435  13.764 -0.2651 -1.8859 -2.2180
10020TIP3   OH251474   6.138   2.254  12.351 -0.6459 -0.0255 -0.0457
10020TIP3    H151475   6.130   2.298  12.266  0.8015 -0.5788 -0.5007
10020TIP3    H251476   6.223   2.210  12.347 -0.7966 -0.5049  1.4973
10021TIP3   OH251477   6.038   3.271   0.142  0.0776  0.5772 -0.1625
10021TIP3    H151478   6.066   3.309   0.225  0.6226  0.4619 -0.2891
10021TIP3    H251479   5.943   3.283   0.141  0.0586  0.5284  0.4978
10022TIP3   OH251480   5.228   6.025   5.505  0.7034  0.3083 -0.2528
10022TIP3    H151481   5.271   6.099   5.462 -1.9744  2.3319  0.2931
10022TIP3    H251482   5.269   6.020   5.591 -0.0796  2.2277  0.2846
10023TIP3   OH251483   0.546   3.368  11.869  0.0768  0.4396 -0.1009
10023TIP3    H151484   0.458   3.332  11.853 -0.5578  1.0433  1.7483
10023TIP3    H251485   0.604   3.292  11.865 -1.0653 -0.6785  2.4626
10024TIP3   OH251486   3.704   0.150   3.806 -0.0778 -0.2986  0.1303
10024TIP3    H151487   3.611   0.130   3.793 -0.3451  0.7145  0.3494
10024TIP3    H251488   3.735   0.176   3.720 -0.0665 -0.3615  0.1151
10025TIP3   OH251489   6.226   2.763  11.768 -0.6164  0.3369 -0.2288
10025TIP3    H151490   6.236   2.672  11.739  1.2721  0.7729 -1.1160
10025TIP3    H251491   6.247   2.815  11.690  0.4746  1.5358  0.8221
10026TIP3   OH251492   2.124   2.272   0.571 -0.2170  0.3145  0.6002
10026TIP3    H151493   2.034   2.248   0.550  0.2545  0.1768 -1.5311
10026TIP3    H251494   2.146   2.340   0.507  1.0222  0.7019  1.4118
10027TIP3   OH251495   2.876   1.547  14.704 -0.1041 -0.2281 -0.1339
10027TIP3    H151496   2.905   1.638  14.704 -1.8882  0.4194  2.0900
10027TIP3    H251497   2.922   1.506  14.777 -0.2628 -0.7819 -0.3333
10028TIP3   OH251498   4.805   4.001  14.336  0.2089 -0.3131  0.4523
10028TIP3    H151499   4.879   3.941  14.334  1.5470  1.2838 -1.0255
10028TIP3    H251500   4.812   4.045  14.420  0.4227 -0.7760  0.6779
10029TIP3   OH251501   1.522   5.064   2.989  0.4445  0.0387  0.0045
10029TIP3    H151502   1.513   5.147   3.035 -1.8516 -0.0539 -0.1565
10029TIP3    H251503   1.612   5.064   2.957  0.2260  2.9881 -0.9478
10030TIP3   OH251504   5.262   1.207   4.641 -0.1936 -0.3183  0.4784
10030TIP3    H151505   5.331   1.204   4.708 -0.0929 -2.9672  0.3947
10030TIP3    H251506   5.180   1.211   4.691 -0.0435  1.0830  0.6321
10031TIP3   OH251507   2.853   1.162  15.126  0.2732 -0.0846  0.5707
10031TIP3    H151508   2.862   1.151  15.221 -0.6356 -0.2127  0.6497
10031TIP3    H251509   2.909   1.093  15.089 -1.1807 -1.5682  1.0406
10032TIP3   OH251510   2.489   2.287   1.545 -0.4848 -0.0968 -0.0108
10032TIP3    H151511   2.440   2.350   1.598  0.0943 -0.6673  1.2514
10032TIP3    H251512   2.580   2.299   1.572 -0.4588 -2.1279  1.0089
10033TIP3   OH251513   3.431   6.472   4.896  0.0880  0.7022  0.2292
10033TIP3    H151514   3.466   6.383   4.898  0.7095  0.9396  0.0537
10033TIP3    H251515   3.499   6.526   4.937  0.2682  1.2771 -0.7798
10034TIP3   OH251516   3.913   6.412   4.576  0.0888  0.3174 -0.0801
10034TIP3    H151517   3.869   6.487   4.616 -0.5312  0.8345 -1.6517
10034TIP3    H251518   3.943   6.444   4.491  1.2329 -0.7724 -0.1194
10035TIP3   OH251519   3.819   0.212  14.608 -0.3986  0.0164 -0.5372
10035TIP3    H151520   3.879   0.192  14.680 -0.7318 -2.3559 -0.8328
10035TIP3    H251521   3.839   0.146  14.542 -2.6955 -0.2558 -1.0289
10036TIP3   OH251522   5.748   3.140  12.806 -0.6619 -0.2314 -1.2008
10036TIP3    H151523   5.669   3.121  12.856 -0.7366  0.2984 -1.1083
10036TIP3    H251524   5.769   3.231  12.828 -0.8244  0.0857 -2.2880
10037TIP3   OH251525   6.334   5.140   2.171 -0.3158  0.3164 -0.1287
10037TIP3    H151526   6.410   5.104   2.217 -0.8053 -2.6490 -1.4151
10037TIP3    H251527   6.372   5.184   2.094  0.1999  0.8113  0.3976
10038TIP3   OH251528   1.302   2.741  11.313  0.4689  0.0034 -0.3455
10038TIP3    H151529   1.271   2.705  11.396 -0.1722  0.6326 -0.2990
10038TIP3    H251530   1.379   2.793  11.337  0.9826 -0.7642 -0.3176
10039TIP3   OH251531   5.400   1.962  11.992 -0.1717 -0.1502  0.0323
10039TIP3    H151532   5.441   1.917  12.065  0.6514 -1.1405 -0.9901
10039TIP3    H251533   5.461   1.951  11.919 -0.9829  0.7486 -0.8278
10040TIP3   OH251534   3.031   5.206  11.210 -0.2106 -0.4491 -0.2221
10040TIP3    H151535   3.013   5.219  11.117 -1.0175 -0.2817 -0.0444
10040TIP3    H251536   3.041   5.294  11.245 -1.2461 -0.4490  0.1050
10041TIP3   OH251537   4.397   1.192   4.701 -0.3077  0.3174  0.4513
10041TIP3    H151538   4.313   1.225   4.671 -0.6745 -0.6441  0.3863
10041TIP3    H251539   4.456   1.203   4.627 -0.8989 -0.8866 -0.2258
10042TIP3   OH251540   5.720   3.091  11.408  0.1209 -0.8592 -0.1721
10042TIP3    H151541   5.778   3.041  11.464 -2.2435 -1.6262  1.7592
10042TIP3    H251542   5.651   3.123  11.466 -0.2738  1.8400 -1.9464
10043TIP3   OH251543   3.825   3.272   5.928  0.4166 -0.1556  0.4683
10043TIP3    H151544   3.882   3.201   5.898  1.0970  0.5275  0.1077
10043TIP3    H251545   3.835   3.274   6.023 -0.9840 -1.6871  0.7004
10044TIP3   OH251546   0.707   0.863   5.051  0.3860  0.2943  0.6815
10044TIP3    H151547   0.747   0.950   5.041  0.9483  0.0674  0.8951
10044TIP3    H251548   0.768   0.816   5.108  0.3662 -0.4236  0.1079
10045TIP3   OH251549   2.812   1.085   4.490  0.3098 -0.1513 -0.5012
10045TIP3    H151550   2.889   1.035   4.517 -0.4232 -0.1725  1.7253
10045TIP3    H251551   2.748   1.019   4.463  0.0155 -0.3337  0.6046
10046TIP3   OH251552   3.572   6.242   3.160 -0.2155  0.1634  0.2438
10046TIP3    H151553   3.487   6.200   3.175 -1.4929  1.8563 -1.7853
10046TIP3    H251554   3.609   6.196   3.085  1.8792 -2.1355  2.4905
10047TIP3   OH251555   1.182   3.877  12.771  0.2159  0.5192  0.4647
10047TIP3    H151556   1.269   3.890  12.809 -0.2193 -1.0788  2.2024
10047TIP3    H251557   1.130   3.949  12.806  0.3384  0.2581  1.2118
10048TIP3   OH251558   1.222   3.425   1.759 -0.1311 -0.2980 -0.4629
10048TIP3    H151559   1.162   3.372   1.812  0.6316  0.0296  0.8002
10048TIP3    H251560   1.303   3.373   1.758 -0.2121 -0.4090 -1.5378
10049TIP3   OH251561   1.827   0.727   2.588  0.1287  0.1629 -0.1906
10049TIP3    H151562   1.827   0.675   2.508  0.8085 -0.2211  0.0473
10049TIP3    H251563   1.888   0.680   2.646 -0.0668  0.6449  0.4057
10050TIP3   OH251564   0.556   0.525   6.362  0.3374  0.1748  0.0911
10050TIP3    H151565   0.542   0.469   6.286  1.6892 -0.0143 -0.0510
10050TIP3    H251566   0.651   0.525   6.375  0.2536  1.3383  0.9273
10051TIP3   OH251567   0.568   2.969   2.449  0.2393 -0.0930 -0.1325
10051TIP3    H151568   0.562   3.004   2.537  0.1566 -2.5358  0.9225
10051TIP3    H251569   0.615   2.887   2.459  1.1302  0.0433 -2.5412
10052TIP3   OH251570   3.727   6.203  13.837 -0.1801 -0.3435 -0.4077
10052TIP3    H151571   3.702   6.224  13.927  1.1789 -0.2899 -0.0195
10052TIP3    H251572   3.709   6.109  13.828  1.1268 -0.6905  0.4394
10053TIP3   OH251573   6.230   1.776  15.452 -0.5082 -0.9078  1.1048
10053TIP3    H151574   6.168   1.831  15.405  0.4388 -0.0758  0.7959
10053TIP3    H251575   6.292   1.837  15.490  0.6182 -1.7520  0.6806
10054TIP3   OH251576   5.852   2.609   2.147  0.4785  0.1293  0.1689
10054TIP3    H151577   5.801   2.670   2.200  1.3635  1.4860 -0.4854
10054TIP3    H251578   5.928   2.588   2.201  0.6601  0.3872  0.0185
10055TIP3   OH251579   2.908   2.621  12.287  0.4019 -0.2696  0.0323
10055TIP3    H151580   2.905   2.716  12.281  0.9685 -0.1644  1.1589
10055TIP3    H251581   2.849   2.591  12.218  1.6329  0.8467 -1.5714
10056TIP3   OH251582   6.753   3.859   0.542 -0.2292  0.0715  0.1674
10056TIP3    H151583   6.826   3.878   0.602  0.9543 -0.9143 -0.9091
10056TIP3    H251584   6.675   3.869   0.596  0.7191  0.5765  1.5151
10057TIP3   OH251585   2.247   3.239   5.668 -0.3274  1.2038 -0.0428
10057TIP3    H151586   2.183   3.214   5.601 -0.1691  0.5170  0.0480
10057TIP3    H251587   2.332   3.231   5.624 -0.0099 -1.7070  0.8722
10058TIP3   OH251588   1.679   0.513  12.062 -0.3673 -0.4797  0.6655
10058TIP3    H151589   1.769   0.537  12.040 -0.9061  1.0555  0.0146
10058TIP3    H251590   1.652   0.578  12.126 -1.0921 -0.8069  0.7003
10059TIP3   OH251591   3.555   2.321   4.564  0.4132 -0.1292  0.0666
10059TIP3    H151592   3.510   2.387   4.617  0.7034  0.3310 -0.2480
10059TIP3    H251593   3.643   2.315   4.602  0.3694 -0.3762  0.1286
10060TIP3   OH251594   2.690   5.961  15.111 -0.7076  0.4091  0.1675
10060TIP3    H151595   2.599   5.991  15.118 -0.2939  1.6316  0.7466
10060TIP3    H251596   2.734   6.002  15.186  0.2229 -0.5556  0.1716
10061TIP3   OH251597   1.769   1.305   2.092  0.3685 -0.8634  0.7035
10061TIP3    H151598   1.827   1.381   2.092 -1.2624  0.4896  2.9990
10061TIP3    H251599   1.729   1.306   2.005  0.5694  0.7609  0.5959
10062TIP3   OH251600   3.810   0.062   5.073  0.2879 -0.9471  0.1961
10062TIP3    H151601   3.898   0.027   5.055  0.1842 -2.4051  2.1512
10062TIP3    H251602   3.812   0.084   5.166 -0.9852  0.4598 -0.0742
10063TIP3   OH251603   6.066   5.988   4.234  0.3380  0.0146 -0.2812
10063TIP3    H151604   6.134   6.049   4.204 -0.6963  2.0857  1.3155
10063TIP3    H251605   6.073   5.914   4.174  4.3964 -0.2143  0.1503
10064TIP3   OH251606   2.515   6.359   1.324  0.2874 -0.1960  0.5178
10064TIP3    H151607   2.461   6.401   1.257  0.0231 -0.2389  0.7006
10064TIP3    H251608   2.452   6.328   1.389  0.6035  0.8460  1.3532
10065TIP3   OH251609   0.266   2.034   2.957 -0.2593  1.3858 -0.1321
10065TIP3    H151610   0.182   2.073   2.981 -0.5523  1.0819 -0.6513
10065TIP3    H251611   0.285   1.971   3.026  0.0104  2.1368  0.4901
10066TIP3   OH251612   5.949   4.123   6.032 -0.6520  0.0874 -0.3186
10066TIP3    H151613   5.943   4.027   6.037 -0.1751 -0.0131 -1.3809
10066TIP3    H251614   5.883   4.154   6.094 -1.1235 -0.9334 -0.2759
10067TIP3   OH251615   4.664   5.527   3.660 -0.2150 -0.0054 -0.0413
10067TIP3    H151616   4.684   5.576   3.740 -1.4697  0.2800  0.1190
10067TIP3    H251617   4.572   5.503   3.669 -0.4910  0.3923 -1.5787
10068TIP3   OH251618   5.196   4.526  16.614  0.3735 -0.1217 -0.2524
10068TIP3    H151619   5.286   4.557  16.614 -0.2925  1.9484  0.6035
10068TIP3    H251620   5.165   4.543  16.525  1.1840 -2.1037 -0.9642
10069TIP3   OH251621   5.638   5.223  11.928 -0.2866 -0.0060  0.1071
10069TIP3    H151622   5.730   5.223  11.902  0.4144  3.0431  2.1537
10069TIP3    H251623   5.591   5.216  11.845  1.7535 -0.1225 -1.1253
10070TIP3   OH251624   5.750   2.895  15.619  0.3713 -0.0034  0.2154
10070TIP3    H151625   5.712   2.940  15.694  0.6810 -0.5677  0.7152
10070TIP3    H251626   5.675   2.861  15.571  0.2067 -0.5253  0.8270
10071TIP3   OH251627   1.510   1.864  16.405  0.0474  0.3493 -0.3853
10071TIP3    H151628   1.480   1.952  16.428 -1.7332 -0.4479  0.5339
10071TIP3    H251629   1.435   1.824  16.361  0.6439 -0.8799 -0.3287
10072TIP3   OH251630   2.400   6.595  14.503 -0.4461  0.9679 -0.7699
10072TIP3    H151631   2.380   6.675  14.454  0.1818  1.8274  0.3308
10072TIP3    H251632   2.410   6.623  14.593 -3.5711 -0.8913  0.3001
10073TIP3   OH251633   1.436   2.431   4.579 -0.4876  0.4557 -0.0704
10073TIP3    H151634   1.490   2.455   4.655  0.3576 -0.8293 -0.2269
10073TIP3    H251635   1.394   2.349   4.605 -1.9847  1.1491 -0.1669
10074TIP3   OH251636   3.587   5.585   2.205  0.5044 -0.7224 -0.1985
10074TIP3    H151637   3.682   5.586   2.214  0.3874 -0.5413  1.3372
10074TIP3    H251638   3.556   5.550   2.288 -0.8203  1.0797  0.1387
10075TIP3   OH251639   0.001   6.077   6.570  0.5763 -0.4074 -0.5208
10075TIP3    H151640  -0.094   6.074   6.562  0.5498 -0.4991 -0.2009
10075TIP3    H251641   0.029   5.986   6.560  0.3880 -0.8420  2.0642
10076TIP3   OH251642   6.479   2.938  11.019 -0.1417  0.3187 -0.1413
10076TIP3    H151643   6.515   2.858  10.982  2.1002  0.4149  1.6642
10076TIP3    H251644   6.454   2.915  11.108  0.1657  1.5223  0.2709
10077TIP3   OH251645   1.355   5.287  16.262  0.1731  0.5489 -0.0944
10077TIP3    H151646   1.299   5.213  16.237 -0.0662  0.6320  0.1810
10077TIP3    H251647   1.442   5.263  16.231  0.1394  0.0578  0.1754
10078TIP3   OH251648   5.183   6.610   3.423  0.5047 -0.2496 -0.1972
10078TIP3    H151649   5.186   6.642   3.513 -0.9452 -0.1679 -0.1460
10078TIP3    H251650   5.150   6.684   3.372 -2.2237 -1.3239 -0.1890
10079TIP3   OH251651   1.424   3.922   1.504  0.0899 -0.5499  0.0094
10079TIP3    H151652   1.343   3.932   1.455 -1.0576  0.9352  2.0398
10079TIP3    H251653   1.460   4.010   1.510  0.0177 -0.5995  2.0018
10080TIP3   OH251654   5.353   3.917  16.691  0.0353  0.0242 -0.2571
10080TIP3    H151655   5.447   3.913  16.671  0.2406 -1.0543  0.8280
10080TIP3    H251656   5.332   3.831  16.727 -1.3797  0.2518 -0.4577
10081TIP3   OH251657   3.095   4.482  14.444 -0.1720  0.2496 -0.4095
10081TIP3    H151658   3.034   4.512  14.510 -0.7209 -0.2609 -0.6766
10081TIP3    H251659   3.055   4.505  14.360 -0.2157 -0.4705 -0.5962
10082TIP3   OH251660   3.956   2.050  13.390 -0.3719  0.1900 -0.5670
10082TIP3    H151661   3.926   2.076  13.477 -0.2117 -1.5510  0.0562
10082TIP3    H251662   3.918   2.115  13.331 -2.2698  0.2020  0.5809
10083TIP3   OH251663   3.103   4.377   2.183 -0.0513  0.4639 -0.1623
10083TIP3    H151664   3.117   4.348   2.093 -1.9275  1.1368 -0.7073
10083TIP3    H251665   3.101   4.296   2.234 -0.7142 -0.0579 -0.9879
10084TIP3   OH251666   0.609   4.166  12.293  0.2469  0.2724  0.2537
10084TIP3    H151667   0.671   4.110  12.247  0.5678  0.1698  0.7969
10084TIP3    H251668   0.560   4.107  12.350 -0.7832  0.2624 -0.6120
10085TIP3   OH251669   5.434   4.747  14.507  0.1801  0.3542 -0.4692
10085TIP3    H151670   5.527   4.758  14.486  0.1815 -1.1951 -1.4492
10085TIP3    H251671   5.426   4.654  14.530 -1.3403  0.1411 -1.6659
10086TIP3   OH251672   6.561   2.022   2.348  0.4344  0.0756  0.0379
10086TIP3    H151673   6.467   2.037   2.343  0.3390  0.0110  1.3372
10086TIP3    H251674   6.570   1.927   2.354  0.5716  0.0951  0.1482
10087TIP3   OH251675   5.190   3.686  16.298  0.1474 -0.2792  0.3232
10087TIP3    H151676   5.284   3.685  16.280 -0.0455 -0.2709 -0.6973
10087TIP3    H251677   5.180   3.749  16.370  1.0798 -1.3183  1.4181
10088TIP3   OH251678   3.602   6.572  11.815 -0.1144 -0.4213  0.4074
10088TIP3    H151679   3.647   6.488  11.806  0.9638  0.2315 -0.4648
10088TIP3    H251680   3.509   6.551  11.802  0.0700 -1.5584  0.8152
10089TIP3   OH251681   0.889   2.978   5.247  0.1091 -0.0591  0.4186
10089TIP3    H151682   0.907   3.050   5.187  0.4067 -0.0357  0.5355
10089TIP3    H251683   0.925   2.901   5.204  0.8349  0.0492  0.8289
10090TIP3   OH251684   1.839   0.746  15.943 -0.2450  0.0770  0.4346
10090TIP3    H151685   1.751   0.737  15.981 -2.1580 -1.0656 -3.6420
10090TIP3    H251686   1.869   0.832  15.970 -2.4850  0.4020  2.1762
10091TIP3   OH251687   0.826   2.908   2.011 -0.4716 -0.2215 -0.4581
10091TIP3    H151688   0.736   2.907   2.042 -0.3697 -0.0079 -0.1524
10091TIP3    H251689   0.864   2.827   2.046 -0.4788 -0.1946 -0.3877
10092TIP3   OH251690   3.619   3.956   4.831  0.0480  0.3688 -0.0749
10092TIP3    H151691   3.534   3.969   4.790 -0.0280  1.1390  0.3045
10092TIP3    H251692   3.649   4.045   4.853  0.6559  0.0614  0.3840
10093TIP3   OH251693   4.223   0.471   3.599 -0.1144  0.2818 -0.5718
10093TIP3    H151694   4.133   0.484   3.569 -0.0615  0.2580 -0.7394
10093TIP3    H251695   4.267   0.554   3.580  0.2413 -0.1455 -1.7142
10094TIP3   OH251696   1.147   4.771   6.151 -0.0590 -0.2005 -0.3292
10094TIP3    H151697   1.138   4.864   6.133 -0.1219 -0.0954  0.2318
10094TIP3    H251698   1.149   4.765   6.247  1.2979 -0.6417 -0.3651
10095TIP3   OH251699   4.335   5.802   2.100  0.1402  0.1554  0.0052
10095TIP3    H151700   4.298   5.889   2.089 -1.3193 -0.4346  0.0736
10095TIP3    H251701   4.428   5.813   2.079 -0.0043  1.7225  0.0613
10096TIP3   OH251702   1.075   3.005  15.924 -0.2010  0.4010  0.2872
10096TIP3    H151703   1.000   2.955  15.954 -0.8666 -0.9336 -3.1485
10096TIP3    H251704   1.069   3.088  15.972 -3.5121  0.1191  0.5826
10097TIP3   OH251705   1.800   1.098   1.256 -0.3606  0.1098 -0.1141
10097TIP3    H151706   1.715   1.132   1.228  0.8082  3.0581 -0.4947
10097TIP3    H251707   1.780   1.014   1.298 -3.4781  0.9053  0.2411
10098TIP3   OH251708   2.136   0.549   5.801  0.1396  0.6654 -0.3025
10098TIP3    H151709   2.084   0.620   5.838 -1.5040 -1.5110  1.8109
10098TIP3    H251710   2.178   0.507   5.876 -0.1539 -1.5113 -1.2766
10099TIP3   OH251711   4.161   5.734  15.391 -0.2288 -0.5418 -0.7065
10099TIP3    H151712   4.099   5.789  15.343 -0.2470  2.0621  1.9987
10099TIP3    H251713   4.247   5.762  15.360 -0.2660  0.5090  0.0830
10100TIP3   OH251714   2.697   3.109  16.093 -0.2815  0.2795 -0.3335
10100TIP3    H151715   2.701   3.065  16.178  2.0793 -2.0010 -1.4990
10100TIP3    H251716   2.729   3.197  16.110  1.1400 -0.4538  1.0028
10101TIP3   OH251717   1.931   0.686  14.373  0.0267  0.3941 -0.1477
10101TIP3    H151718   1.892   0.645  14.450  1.0048 -1.3179 -0.4920
10101TIP3    H251719   1.951   0.775  14.400  0.9857 -0.3663  1.8240
10102TIP3   OH251720   1.929   3.795  13.928  0.3899  0.5566 -0.1563
10102TIP3    H151721   2.006   3.852  13.937  0.6191  0.1748  0.3779
10102TIP3    H251722   1.958   3.726  13.867  1.3844 -1.0452  1.9872
10103TIP3   OH251723   2.132   4.640  10.616 -0.2131  0.1103  0.7252
10103TIP3    H151724   2.131   4.557  10.569  0.6677 -0.5084  1.7734
10103TIP3    H251725   2.213   4.683  10.589 -0.0408  0.0602  1.1640
10104TIP3   OH251726   3.482   2.110  16.196 -0.0849  0.0906  0.5824
10104TIP3    H151727   3.396   2.069  16.192 -0.4172  0.7616  0.7251
10104TIP3    H251728   3.538   2.055  16.140 -0.9855  0.5581 -0.8445
10105TIP3   OH251729   1.253   5.544  16.557  0.0495 -0.1837  0.4554
10105TIP3    H151730   1.243   5.495  16.638  0.4039  0.1073  0.6782
10105TIP3    H251731   1.335   5.592  16.568 -0.1752  0.2783  0.1471
10106TIP3   OH251732   3.492   6.589   6.216  0.1843  0.1066  0.2909
10106TIP3    H151733   3.491   6.494   6.200 -0.7003  0.3094 -0.9636
10106TIP3    H251734   3.452   6.598   6.303  0.6853 -0.6951  0.6202
10107TIP3   OH251735   6.508   2.556   6.420  0.5966 -1.1112 -0.0773
10107TIP3    H151736   6.540   2.646   6.415  0.7159 -1.1024  0.7447
10107TIP3    H251737   6.580   2.507   6.461  0.0233 -1.3155  0.7137
10108TIP3   OH251738   3.705   0.078   6.861 -0.3870  0.5002  0.2404
10108TIP3    H151739   3.736   0.167   6.841 -0.0578  0.7436  1.7116
10108TIP3    H251740   3.782   0.023   6.849 -0.7445  0.2909 -1.2914
10109TIP3   OH251741   5.059   2.979  16.921 -0.0475 -0.1423 -0.5548
10109TIP3    H151742   4.964   2.976  16.910  0.0125  1.0803 -1.6883
10109TIP3    H251743   5.090   2.896  16.886 -0.6053  0.0256 -1.4648
10110TIP3   OH251744   2.395   6.580  16.814  0.8988  0.4020  0.0046
10110TIP3    H151745   2.471   6.528  16.840  0.5988 -0.6205 -1.0527
10110TIP3    H251746   2.349   6.599  16.896  2.3498  1.1822  0.6814
10111TIP3   OH251747   0.722   2.044  15.562 -0.1342 -0.1494 -0.2608
10111TIP3    H151748   0.790   2.093  15.516  0.2522 -0.2149  0.2372
10111TIP3    H251749   0.737   1.953  15.536 -0.0533 -0.1602 -0.1750
10112TIP3   OH251750   2.296   4.732  16.210  0.2657 -0.0027 -0.2084
10112TIP3    H151751   2.279   4.748  16.302 -0.3009 -2.7118  0.2409
10112TIP3    H251752   2.380   4.773  16.193  2.2654 -2.5103  2.5580
10113TIP3   OH251753   2.294   6.074  13.121 -0.2105 -0.1725 -0.0130
10113TIP3    H151754   2.343   5.997  13.093 -0.9658 -0.7722  0.2663
10113TIP3    H251755   2.205   6.059  13.089 -0.3299  0.6652 -0.1046
10114TIP3   OH251756   3.132   2.795  16.964 -0.0670 -0.5346 -0.4250
10114TIP3    H151757   3.216   2.834  16.940 -0.5870 -0.6841 -2.7633
10114TIP3    H251758   3.149   2.701  16.962  0.0798 -0.5407  0.6983
10115TIP3   OH251759   2.475   6.486   4.249  0.1276 -0.2222 -0.1311
10115TIP3    H151760   2.480   6.459   4.341 -0.4465  0.4422  0.1038
10115TIP3    H251761   2.477   6.581   4.252  1.1770 -0.2109 -0.8894
10116TIP3   OH251762   3.558   3.357  17.350 -0.4153 -0.1855  0.0471
10116TIP3    H151763   3.606   3.317  17.423  1.0341  1.9901  0.3515
10116TIP3    H251764   3.607   3.331  17.272 -0.1067  0.0930  0.1452
10117TIP3   OH251765   0.641   6.501   2.268  0.6410  0.0773 -0.1478
10117TIP3    H151766   0.642   6.426   2.209 -0.9984  0.2329 -0.4330
10117TIP3    H251767   0.680   6.469   2.349 -0.8826 -1.4009  0.0575
10118TIP3   OH251768   0.163   5.895   3.335  0.1715  0.4824 -0.5522
10118TIP3    H151769   0.148   5.954   3.260  2.8279  0.4558 -1.1949
10118TIP3    H251770   0.152   5.951   3.412 -1.8952  0.6759 -0.9254
10119TIP3   OH251771   6.181   5.312  12.731 -0.1719  0.2786 -0.1460
10119TIP3    H151772   6.191   5.360  12.649 -0.8284 -1.4390 -1.2991
10119TIP3    H251773   6.110   5.358  12.777 -1.0560  0.2222 -1.3877
10120TIP3   OH251774   1.816   0.995   1.642  0.0551 -0.5823 -0.1341
10120TIP3    H151775   1.759   1.056   1.690  1.4621 -0.1153  1.0146
10120TIP3    H251776   1.758   0.923   1.617 -1.1714  0.1557  0.4607
10121TIP3   OH251777   4.272   2.944  16.368  0.7831 -0.0148 -0.3595
10121TIP3    H151778   4.326   3.023  16.371 -0.0377  0.5966 -1.1980
10121TIP3    H251779   4.226   2.943  16.452  1.0114  0.2522 -0.2303
10122TIP3   OH251780   0.098   3.807   1.886  0.5214  0.0218  0.3868
10122TIP3    H151781   0.026   3.852   1.929  0.4222  0.0670  0.1722
10122TIP3    H251782   0.058   3.730   1.845  0.6084  0.0038  0.3346
10123TIP3   OH251783   0.278   5.769  13.454 -0.5657 -0.5427  0.7578
10123TIP3    H151784   0.202   5.801  13.503 -1.2105 -0.3474 -0.3220
10123TIP3    H251785   0.240   5.711  13.388  0.3279 -1.2218  0.8226
10124TIP3   OH251786   4.234   5.344   5.072 -0.3283 -0.0018 -0.0665
10124TIP3    H151787   4.230   5.291   5.152  1.6507 -1.7827 -1.0718
10124TIP3    H251788   4.168   5.306   5.014 -0.8470  0.4528  0.2137
10125TIP3   OH251789   3.567   6.312  12.706 -0.4897 -0.7070  0.2728
10125TIP3    H151790   3.645   6.363  12.729 -0.3959 -0.0807 -1.3314
10125TIP3    H251791   3.517   6.369  12.648 -1.1241 -1.8786 -0.3666
10126TIP3   OH251792   0.575   1.724   0.038  0.3064  0.0553  0.3254
10126TIP3    H151793   0.591   1.767  -0.046  0.4353  0.4600  0.5539
10126TIP3    H251794   0.633   1.770   0.099 -0.6627  0.5792  0.8849
10127TIP3   OH251795   6.169   2.672  16.078 -0.3210  0.1353  0.5329
10127TIP3    H151796   6.180   2.683  16.172  1.1011  1.1482  0.2866
10127TIP3    H251797   6.145   2.580  16.067  1.1579 -0.4369  1.7609
10128TIP3   OH251798   2.341   4.811  10.554  0.3289 -0.2578 -0.4884
10128TIP3    H151799   2.417   4.812  10.496  0.2257 -1.6830 -0.6950
10128TIP3    H251800   2.345   4.894  10.601  3.2294 -1.1483  1.0602
10129TIP3   OH251801   2.672   1.024   0.361  0.0074 -0.5720 -0.5286
10129TIP3    H151802   2.590   1.028   0.410  1.7426 -2.3657  2.9127
10129TIP3    H251803   2.681   1.111   0.322 -2.4623  0.3650  0.7601
10130TIP3   OH251804   2.295   1.481   0.277  0.1635  0.0683 -0.0777
10130TIP3    H151805   2.342   1.563   0.283  0.4426 -0.0984  0.0428
10130TIP3    H251806   2.341   1.431   0.209  1.1695 -0.7390  1.1573
10131TIP3   OH251807   6.024   0.071  16.505 -0.3250  0.0156 -0.3894
10131TIP3    H151808   6.012   0.149  16.450  0.0710 -0.6471 -1.4497
10131TIP3    H251809   6.105   0.089  16.553 -0.2479  0.2748 -0.6082
10132TIP3   OH251810   5.600   1.442  15.015  0.1522  0.1618  0.2708
10132TIP3    H151811   5.547   1.365  14.992 -0.2301  0.1602  1.0881
10132TIP3    H251812   5.668   1.446  14.948  0.5555 -1.2642  0.5605
10133TIP3   OH251813   2.125   3.626   0.906 -0.3147  0.0374 -0.4366
10133TIP3    H151814   2.066   3.657   0.838  0.9959  0.2454 -1.5212
10133TIP3    H251815   2.213   3.636   0.868  0.7841  3.2212  2.4176
10134TIP3   OH251816   0.668   4.397   5.526 -0.7576  0.1155 -0.2369
10134TIP3    H151817   0.646   4.324   5.584 -0.5418  0.7334  0.6545
10134TIP3    H251818   0.586   4.444   5.515 -0.6036  0.5366  0.3613
10135TIP3   OH251819   0.167   0.047  13.724 -0.1795  0.1674 -0.3752
10135TIP3    H151820   0.106   0.017  13.656 -0.3539  0.4412 -0.3404
10135TIP3    H251821   0.237   0.090  13.675 -0.3914  0.5171 -0.3733
10136TIP3   OH251822   1.718   5.419   0.264  0.0085 -0.5204 -0.3285
10136TIP3    H151823   1.781   5.384   0.327 -0.8100  0.0531  0.8452
10136TIP3    H251824   1.771   5.468   0.201  0.6837  0.6457  1.1024
10137TIP3   OH251825   3.728   5.125   6.149 -0.2356  0.4873 -0.4606
10137TIP3    H151826   3.708   5.139   6.242  0.1544 -1.1323 -0.1171
10137TIP3    H251827   3.643   5.129   6.106 -0.9007 -2.1376  0.4484
10138TIP3   OH251828   5.396   5.350  11.124  0.0547  0.4704 -0.3616
10138TIP3    H151829   5.413   5.256  11.121 -0.1011  0.4678 -1.2913
10138TIP3    H251830   5.302   5.357  11.141  0.1798  0.4721  0.3832
10139TIP3   OH251831   1.302   2.043   5.911 -0.1518  0.7507  0.0153
10139TIP3    H151832   1.389   2.018   5.942 -0.2458 -0.5327 -0.7203
10139TIP3    H251833   1.318   2.109   5.844  0.2913 -0.0030 -0.6238
10140TIP3   OH251834   2.300   4.781   5.683  0.1535 -0.0316  0.0304
10140TIP3    H151835   2.228   4.814   5.737 -0.1577 -0.2684 -0.2403
10140TIP3    H251836   2.371   4.763   5.746  0.2459  0.9122  0.2128
10141TIP3   OH251837   2.387   3.092   6.356  0.0606 -0.2530  0.3598
10141TIP3    H151838   2.418   3.178   6.384  2.1312 -1.0954  0.7885
10141TIP3    H251839   2.466   3.038   6.352 -1.0141 -1.7946 -1.1862
10142TIP3   OH251840   3.208   5.087  14.161 -0.4026  0.0487  0.4836
10142TIP3    H151841   3.232   4.997  14.139  1.4271  0.5569  0.2513
10142TIP3    H251842   3.287   5.125  14.199 -1.6364  1.0776  2.1812
10143TIP3   OH251843   0.441   2.028  15.535  0.3278 -0.0127 -0.5293
10143TIP3    H151844   0.532   2.048  15.555  0.0453  1.1968 -0.4107
10143TIP3    H251845   0.421   2.079  15.457 -0.2848 -0.1591 -0.4752
10144TIP3   OH251846   5.986   4.749   5.542  0.3378  0.2950  0.1225
10144TIP3    H151847   5.897   4.739   5.574  0.7207 -3.3654  0.5207
10144TIP3    H251848   6.028   4.807   5.605 -1.3354  0.7788  0.8455
10145TIP3   OH251849   3.815   0.909  16.722  0.0798  0.2493 -0.8516
10145TIP3    H151850   3.886   0.973  16.734 -0.6093  0.8308  0.2907
10145TIP3    H251851   3.744   0.959  16.681 -0.5655  0.3248  0.3070
10146TIP3   OH251852   0.225   4.077  14.418 -0.8789  0.7130  0.2222
10146TIP3    H151853   0.314   4.064  14.449 -0.2080 -0.2803 -1.8997
10146TIP3    H251854   0.169   4.054  14.493  0.6053 -1.1899  0.8376
10147TIP3   OH251855   5.491   5.830   1.843 -0.6308  0.3648  0.3043
10147TIP3    H151856   5.542   5.882   1.905 -0.9854 -0.2939  1.1803
10147TIP3    H251857   5.400   5.844   1.870 -0.8764  0.9964 -0.8155
10148TIP3   OH251858   1.491   1.778  10.965 -0.2010 -0.2459 -0.7354
10148TIP3    H151859   1.421   1.724  10.928  0.2658 -0.8696 -0.7283
10148TIP3    H251860   1.572   1.731  10.943  0.0828 -0.7591  1.2288
10149TIP3   OH251861   0.099   0.322  16.020 -0.0875 -0.2793  0.4487
10149TIP3    H151862   0.022   0.378  16.023  0.3569  0.3734 -0.1379
10149TIP3    H251863   0.138   0.330  16.108  0.2292  0.7054  0.2238
10150TIP3   OH251864   1.042   5.325  11.152 -0.4842 -0.2199 -0.1328
10150TIP3    H151865   0.974   5.334  11.086 -1.8755 -2.7843  0.8101
10150TIP3    H251866   1.109   5.270  11.112 -0.1935  0.1534 -0.1718
10151TIP3   OH251867   3.483   2.903  15.404  0.6151  0.7473  0.0089
10151TIP3    H151868   3.471   2.991  15.366  1.3409 -0.1869 -2.6067
10151TIP3    H251869   3.426   2.847  15.352 -0.0637 -0.3385  1.8453
10152TIP3   OH251870   4.091   0.542   5.629 -0.9806  0.3721 -0.0907
10152TIP3    H151871   4.146   0.607   5.674 -3.2861  1.8290  0.8156
10152TIP3    H251872   4.032   0.510   5.697 -0.9449 -1.5486 -0.9090
10153TIP3   OH251873   4.493   6.696  10.618 -0.3272 -0.6562  0.0677
10153TIP3    H151874   4.424   6.650  10.570  1.8512 -0.2025 -3.8743
10153TIP3    H251875   4.459   6.784  10.631 -1.4019 -1.1064  0.4779
10154TIP3   OH251876   0.159   1.696  11.522  0.0743 -0.4698 -0.3322
10154TIP3    H151877   0.139   1.606  11.547 -0.1456  0.0081  1.3471
10154TIP3    H251878   0.086   1.722  11.466 -0.8525 -0.7523  0.7026
10155TIP3   OH251879   5.557   2.638   2.913  0.2313 -0.1008 -0.2415
10155TIP3    H151880   5.468   2.617   2.940  0.4277  0.8614  1.2303
10155TIP3    H251881   5.605   2.556   2.926 -0.5994 -0.9175 -1.9780
10156TIP3   OH251882   1.598   4.758  16.946  0.0542  0.3668 -0.3039
10156TIP3    H151883   1.581   4.741  17.038 -1.4072 -0.0704 -0.6280
10156TIP3    H251884   1.659   4.832  16.946 -1.7425  1.9546  1.0103
10157TIP3   OH251885   2.880   0.833   3.702  0.2573 -0.1188  0.3714
10157TIP3    H151886   2.836   0.850   3.618 -1.6228 -1.1675  1.0997
10157TIP3    H251887   2.972   0.821   3.678 -0.0833  0.5455 -1.4216
10158TIP3   OH251888   3.724   1.916  14.998  0.0150 -0.4241 -0.4024
10158TIP3    H151889   3.760   1.996  14.960 -0.2643 -0.8111 -1.5193
10158TIP3    H251890   3.779   1.898  15.075 -0.8128  1.6394  0.7587
10159TIP3   OH251891   4.759   5.954   0.985 -0.7932 -0.5088 -0.4288
10159TIP3    H151892   4.784   6.014   1.056 -1.1203 -0.8793  0.0105
10159TIP3    H251893   4.751   6.010   0.908  0.8009 -0.2874 -0.4619
10160TIP3   OH251894   1.682   2.194  16.960  0.2989  0.4246  0.1308
10160TIP3    H151895   1.723   2.262  17.013  1.7001 -1.2260  1.2549
10160TIP3    H251896   1.652   2.128  17.023 -1.2070  0.0550 -0.9106
10161TIP3   OH251897   3.003   5.528   2.272 -0.0590  0.1617  0.0379
10161TIP3    H151898   3.031   5.593   2.336 -0.7507  0.2984  0.2078
10161TIP3    H251899   3.053   5.450   2.294  0.2667  0.4273  0.2647
10162TIP3   OH251900   3.947   5.172  11.341 -0.1971 -0.4947  0.0726
10162TIP3    H151901   3.982   5.246  11.290 -0.7556 -0.4031 -0.1905
10162TIP3    H251902   3.940   5.101  11.277 -0.5612 -0.4873  0.1040
10163TIP3   OH251903   0.183   0.654  11.896 -0.3774 -0.2719  0.5764
10163TIP3    H151904   0.164   0.681  11.986 -0.4128 -1.2094  0.8651
10163TIP3    H251905   0.193   0.736  11.848 -0.1334  0.2433  1.4822
10164TIP3   OH251906   5.806   0.708   1.007 -0.2974 -0.8123 -0.0468
10164TIP3    H151907   5.761   0.653   1.071 -0.5202  0.5148  1.0123
10164TIP3    H251908   5.864   0.649   0.960 -1.8705 -2.2584 -0.2545
10165TIP3   OH251909   2.318   1.937  14.132 -0.3176 -0.2448  0.0465
10165TIP3    H151910   2.272   1.853  14.132 -0.4444 -0.1892  1.0342
10165TIP3    H251911   2.271   1.990  14.067  1.1796 -1.6417 -2.3231
10166TIP3   OH251912   3.829   1.487  16.303  0.7816 -0.4142 -0.1406
10166TIP3    H151913   3.832   1.429  16.227 -0.5110 -0.7639  0.0575
10166TIP3    H251914   3.854   1.431  16.376 -2.5317 -1.4290  0.4064
10167TIP3   OH251915   1.241   2.513  12.050  0.0002 -0.2222 -0.8532
10167TIP3    H151916   1.147   2.510  12.031  0.2454  1.3976 -2.5647
10167TIP3    H251917   1.273   2.425  12.029 -0.6621  0.0432 -3.2535
10168TIP3   OH251918   3.936   5.932  13.098  0.2195 -0.1028  0.2363
10168TIP3    H151919   4.009   5.877  13.068  0.1394  0.2053 -0.5431
10168TIP3    H251920   3.962   6.021  13.073  0.1501  0.1739  1.1008
10169TIP3   OH251921   2.973   5.705   4.163 -0.4858 -0.5328  0.4438
10169TIP3    H151922   3.024   5.653   4.101  0.8852  1.0506  0.1654
10169TIP3    H251923   3.015   5.791   4.162 -2.2265  0.3889  1.4014
10170TIP3   OH251924   0.173   1.665   0.937  0.1595  0.3193 -0.4060
10170TIP3    H151925   0.106   1.715   0.983  0.3613 -0.2604  0.5453
10170TIP3    H251926   0.210   1.727   0.873 -0.1023  1.1541  0.2345
10171TIP3   OH251927   2.091   6.432  17.079  0.4759 -0.1210 -0.3540
10171TIP3    H151928   2.115   6.365  17.015  0.9504 -1.0207  0.7354
10171TIP3    H251929   2.001   6.455  17.057  0.6927 -0.2596 -1.4586
10172TIP3   OH251930   0.878   0.385  13.202 -0.0895 -0.4738  0.3585
10172TIP3    H151931   0.878   0.355  13.111 -0.2823 -1.4371  0.6638
10172TIP3    H251932   0.969   0.410  13.218 -0.2657  0.7735 -0.4183
10173TIP3   OH251933   2.916   6.487  16.888  0.6203 -0.5033 -0.0496
10173TIP3    H151934   2.822   6.502  16.873  0.7463 -0.6737 -1.1190
10173TIP3    H251935   2.924   6.391  16.889  0.5783 -0.5159  1.5524
10174TIP3   OH251936   5.471   2.891   3.708 -0.5528  0.0245  0.4557
10174TIP3    H151937   5.481   2.982   3.682  0.3241 -0.8264 -2.6871
10174TIP3    H251938   5.440   2.847   3.629  0.0639 -2.5792  1.5388
10175TIP3   OH251939   2.091   2.187   5.730 -0.2086 -0.1740 -0.2691
10175TIP3    H151940   2.046   2.185   5.646  0.0418  0.7840 -0.4339
10175TIP3    H251941   2.040   2.247   5.784  0.5004  0.4257 -0.2512
10176TIP3   OH251942   5.922   5.415  16.328 -0.0765  0.4611 -0.3639
10176TIP3    H151943   5.848   5.354  16.321  0.2371  0.2574 -3.1813
10176TIP3    H251944   5.882   5.501  16.340 -0.7569  0.2395 -0.9680
10177TIP3   OH251945   5.672   6.035  13.154 -0.0034 -0.1679 -0.0731
10177TIP3    H151946   5.731   6.103  13.122 -0.2207 -0.1091 -0.3518
10177TIP3    H251947   5.696   6.024  13.246 -0.0298  0.3532  0.0020
10178TIP3   OH251948   6.716   6.616  15.830 -0.5165 -0.4601 -0.3172
10178TIP3    H151949   6.754   6.704  15.837 -1.5940 -0.0438  0.7391
10178TIP3    H251950   6.719   6.596  15.737  2.1771 -0.4369 -0.3260
10179TIP3   OH251951   3.013   0.100   2.712 -0.0230  0.2989 -0.7407
10179TIP3    H151952   2.992   0.189   2.740  0.1180  0.2659 -0.5274
10179TIP3    H251953   2.974   0.093   2.625  0.1334  0.6356 -0.8421
10180TIP3   OH251954   6.731   3.818  15.179 -0.2742  0.0192 -0.3448
10180TIP3    H151955   6.731   3.869  15.259 -1.5186  0.0049 -0.3242
10180TIP3    H251956   6.823   3.817  15.151  0.4089 -1.0883  1.7695
10181TIP3   OH251957   1.380   6.352   1.501 -0.0023 -0.1559 -0.2855
10181TIP3    H151958   1.329   6.275   1.526 -0.5764  0.5057  0.6472
10181TIP3    H251959   1.375   6.410   1.578 -0.2118  1.1330 -1.2403
10182TIP3   OH251960   6.388   3.756   3.671 -0.0338  0.6515  0.1479
10182TIP3    H151961   6.332   3.834   3.672  2.0612  2.2357  1.2227
10182TIP3    H251962   6.435   3.760   3.754 -0.8279 -2.5762  0.9046
10183TIP3   OH251963   5.531   2.735   2.442 -0.2718  0.4349 -0.1280
10183TIP3    H151964   5.567   2.773   2.361  0.3986  2.2412  0.9604
10183TIP3    H251965   5.562   2.794   2.511 -0.7071 -1.1615  1.4709
10184TIP3   OH251966   5.674   0.413  10.851 -0.0962  0.2330  0.0211
10184TIP3    H151967   5.728   0.393  10.775 -0.3707 -0.1638 -0.0727
10184TIP3    H251968   5.616   0.338  10.860 -0.9454  0.8395 -0.1610
10185TIP3   OH251969   6.424   0.374   6.119  0.0671  0.2011  0.3616
10185TIP3    H151970   6.355   0.328   6.167 -0.0505 -1.3013 -1.1809
10185TIP3    H251971   6.377   0.433   6.060  0.1917  1.2077  1.2354
10186TIP3   OH251972   0.000   3.759  13.787  0.1117  0.3832 -0.4636
10186TIP3    H151973  -0.022   3.704  13.713  0.2686  0.5923 -0.6693
10186TIP3    H251974   0.050   3.832  13.749 -0.4539  0.8906 -0.2544
10187TIP3   OH251975   1.234   4.085  17.253 -0.1451 -0.2610 -0.3970
10187TIP3    H151976   1.313   4.035  17.273 -0.2825 -1.1310 -1.8235
10187TIP3    H251977   1.209   4.055  17.166 -1.0032  1.3659 -0.7520
10188TIP3   OH251978   2.517   4.676   4.962 -0.5946  0.5895 -0.0554
10188TIP3    H151979   2.511   4.642   5.051 -0.3623 -0.5737 -0.4670
10188TIP3    H251980   2.610   4.667   4.940 -0.9596 -1.0327 -1.1123
10189TIP3   OH251981   4.417   1.752   4.920  0.0706 -0.0210 -0.3991
10189TIP3    H151982   4.340   1.809   4.915 -0.1111 -0.0643  1.3952
10189TIP3    H251983   4.385   1.672   4.961  0.6091 -0.9722 -1.7426
10190TIP3   OH251984   5.995   1.273  14.234 -0.3104  0.1066 -0.0290
10190TIP3    H151985   6.010   1.343  14.171  1.0241  0.0477  0.2082
10190TIP3    H251986   6.060   1.287  14.302 -0.3388 -1.0858  0.2622
10191TIP3   OH251987   1.687   4.725  11.055 -0.7867 -0.2325  0.1899
10191TIP3    H151988   1.719   4.642  11.091 -0.1234 -0.5233 -1.0008
10191TIP3    H251989   1.596   4.708  11.033 -0.0953 -1.4562 -2.1659
10192TIP3   OH251990   1.679   6.587  16.442  0.1188 -0.0958 -0.3474
10192TIP3    H151991   1.587   6.583  16.468 -0.2078 -0.2592 -1.4502
10192TIP3    H251992   1.721   6.515  16.488 -0.2743  0.0657  0.2724
10193TIP3   OH251993   3.119   3.455  14.928 -0.5069  0.0894  0.6096
10193TIP3    H151994   3.102   3.549  14.924 -2.0026 -0.1514  0.8098
10193TIP3    H251995   3.105   3.424  14.839  0.2802  0.0834  0.4785
10194TIP3   OH251996   3.690   1.646   0.811  0.2124  0.3758  0.2065
10194TIP3    H151997   3.728   1.667   0.725  0.4285  0.5790  0.3488
10194TIP3    H251998   3.760   1.601   0.858  0.2427  0.6547  0.4325
10195TIP3   OH251999   6.271   2.629  15.634 -0.0043 -0.3765  0.0498
10195TIP3    H152000   6.244   2.670  15.552  0.6781 -2.2545 -1.1911
10195TIP3    H252001   6.230   2.682  15.702 -3.8539 -0.9845 -1.5620
10196TIP3   OH252002   1.868   2.735   1.500  0.3037  0.0260  0.1431
10196TIP3    H152003   1.916   2.687   1.567  1.0461  0.6181  0.0529
10196TIP3    H252004   1.935   2.763   1.438 -0.3719 -0.5364 -0.8740
10197TIP3   OH252005   0.768   4.444   3.840 -0.5024  0.0814  0.0709
10197TIP3    H152006   0.791   4.506   3.909 -1.7547 -0.1973  0.7599
10197TIP3    H252007   0.823   4.367   3.858 -1.6817 -0.4659  1.5221
10198TIP3   OH252008   3.308   3.327   1.313  0.5964  0.1593 -0.2811
10198TIP3    H152009   3.292   3.309   1.406  0.0037 -0.6519 -0.5251
10198TIP3    H252010   3.303   3.422   1.306 -1.8376  0.1262  0.1168
10199TIP3   OH252011   4.847   1.560   2.564 -0.0779  0.2220 -0.2247
10199TIP3    H152012   4.927   1.589   2.520 -0.3844 -0.0108 -0.9355
10199TIP3    H252013   4.800   1.640   2.585  0.7563  0.4243  1.0158
10200TIP3   OH252014   1.431   4.487  12.267  0.3164 -0.3704 -0.1680
10200TIP3    H152015   1.357   4.474  12.207 -0.5557 -2.8497  1.3141
10200TIP3    H252016   1.406   4.562  12.320 -0.2696 -0.0379 -0.8906
10201TIP3   OH252017   4.340   4.729  11.525  0.3706  0.2761  0.6748
10201TIP3    H152018   4.420   4.728  11.472  0.2347 -0.4491  0.4705
10201TIP3    H252019   4.270   4.712  11.462 -0.0130  1.4318  0.7634
10202TIP3   OH252020   6.672   2.555  14.472 -0.5199 -0.0261  0.2624
10202TIP3    H152021   6.594   2.558  14.527 -0.9053  0.0885 -0.2827
10202TIP3    H252022   6.676   2.464  14.442  0.9431 -0.6822  2.2361
10203TIP3   OH252023   0.261   0.849   6.409  0.1369 -0.2988 -0.4067
10203TIP3    H152024   0.247   0.821   6.499 -1.3347  2.8621  0.4798
10203TIP3    H252025   0.350   0.820   6.388  0.4260 -1.3048  1.9651
10204TIP3   OH252026   4.759   5.924  12.860  0.2211  0.0469 -0.2585
10204TIP3    H152027   4.815   5.857  12.899  1.4240  0.8912 -0.4836
10204TIP3    H252028   4.688   5.936  12.924  0.3383 -0.9668  0.0743
10205TIP3   OH252029   1.404   0.644   4.816  0.4317 -0.1460 -0.1274
10205TIP3    H152030   1.358   0.712   4.865  0.8555  0.5775 -0.7012
10205TIP3    H252031   1.392   0.564   4.867 -2.1447 -0.1798 -0.6445
10206TIP3   OH252032   1.681   5.601  16.099  0.3863  0.0649  0.0523
10206TIP3    H152033   1.609   5.561  16.147 -0.3459 -0.2650 -1.2844
10206TIP3    H252034   1.680   5.558  16.013  1.6467  0.6463 -0.2765
10207TIP3   OH252035   3.904   6.626  11.184  0.1293  0.2403  0.0047
10207TIP3    H152036   3.823   6.671  11.160  1.2914  1.4200 -1.8898
10207TIP3    H252037   3.897   6.540  11.142 -1.0534 -0.5478  1.6867
10208TIP3   OH252038   3.943   2.699  11.738 -0.0968 -0.1886  0.0473
10208TIP3    H152039   3.992   2.637  11.684 -1.3235 -1.1571  0.0290
10208TIP3    H252040   3.859   2.658  11.753 -0.3237  0.7200  1.4835
10209TIP3   OH252041   6.099   4.342  17.183  0.4633  0.0337 -0.2614
10209TIP3    H152042   6.131   4.416  17.235  1.0690 -0.0218 -0.5375
10209TIP3    H252043   6.051   4.288  17.245  1.7945 -0.4076  0.4218
10210TIP3   OH252044   2.736   5.623  15.817  0.4943  0.1794 -0.4743
10210TIP3    H152045   2.769   5.566  15.747 -0.9343  0.4244 -1.4041
10210TIP3    H252046   2.765   5.710  15.791 -1.3204  0.4888 -1.6496
10211TIP3   OH252047   2.990   1.550  14.412 -0.3566 -0.4743  0.3983
10211TIP3    H152048   2.996   1.499  14.331  1.1336 -0.5723  0.5322
10211TIP3    H252049   2.925   1.617  14.394 -0.0265 -0.4739 -0.9115
10212TIP3   OH252050   5.409   1.743   6.195  0.3217 -0.4556 -0.3501
10212TIP3    H152051   5.337   1.751   6.258 -0.5635 -2.3778 -1.0729
10212TIP3    H252052   5.378   1.788   6.117  0.3210 -0.4397 -0.3407
10213TIP3   OH252053   4.964   0.891   2.092 -0.2889 -0.4584  0.2736
10213TIP3    H152054   4.905   0.951   2.138  1.5426  0.2424  1.8320
10213TIP3    H252055   5.040   0.884   2.149  0.6072 -2.3510 -1.0602
10214TIP3   OH252056   1.280   4.751  17.314 -0.4335  0.5050 -0.0153
10214TIP3    H152057   1.199   4.728  17.360 -2.8727  0.0678 -4.0387
10214TIP3    H252058   1.265   4.841  17.284 -0.7212 -0.4354 -2.9994
10215TIP3   OH252059   3.573   5.201  16.821 -0.1144 -0.1036  0.0987
10215TIP3    H152060   3.546   5.119  16.862  2.7121 -0.5261  1.3657
10215TIP3    H252061   3.608   5.253  16.894  2.2975  0.3456 -1.2660
10216TIP3   OH252062   1.798   0.279   0.642 -0.1755 -0.0021  0.1967
10216TIP3    H152063   1.888   0.292   0.612 -0.2580  1.4433  0.5285
10216TIP3    H252064   1.747   0.271   0.561  0.0561  0.6087 -0.0124
10217TIP3   OH252065   3.007   6.437   3.437 -0.5061 -0.2696 -0.1606
10217TIP3    H152066   3.098   6.436   3.409 -0.7224 -0.4994 -0.8903
10217TIP3    H252067   3.010   6.449   3.532  0.2870 -0.5667 -0.1475
10218TIP3   OH252068   1.560   5.097  11.913 -0.3516 -0.3452 -0.3797
10218TIP3    H152069   1.611   5.018  11.929 -1.9926 -1.4435 -0.2531
10218TIP3    H252070   1.498   5.101  11.986 -0.0435  1.3016 -0.1627
10219TIP3   OH252071   6.326   6.694   2.772  0.4034 -0.4455  0.0622
10219TIP3    H152072   6.318   6.786   2.745  1.7335 -0.1276  0.6715
10219TIP3    H252073   6.238   6.658   2.762 -0.1412  0.9083 -0.1664
10220TIP3   OH252074   1.717   6.737  12.853 -0.0694  0.1370  0.3751
10220TIP3    H152075   1.674   6.652  12.843  2.6217 -1.2495 -0.4313
10220TIP3    H252076   1.782   6.723  12.922  2.4874  0.5324 -1.7886
10221TIP3   OH252077   6.476   1.360  14.471  0.2108  0.0402  0.6780
10221TIP3    H152078   6.438   1.447  14.457  0.6568 -0.0233 -1.2475
10221TIP3    H252079   6.552   1.376  14.526  1.6348  1.2927 -1.4754
10222TIP3   OH252080   5.742   3.602   5.928 -0.4725  0.1150  0.6167
10222TIP3    H152081   5.754   3.629   5.838 -0.5186 -2.1444 -0.1217
10222TIP3    H252082   5.685   3.525   5.923 -0.6880  0.0815  2.5936
10223TIP3   OH252083   2.410   4.361  12.072  0.6094  0.3934 -0.1030
10223TIP3    H152084   2.445   4.309  11.999  0.3417  1.5192 -1.0616
10223TIP3    H252085   2.345   4.418  12.031 -0.6488  0.0053  1.2711
10224TIP3   OH252086   2.260   3.212  11.536  0.3520 -0.1716  0.0923
10224TIP3    H152087   2.298   3.171  11.458  1.9289  0.9672  0.2254
10224TIP3    H252088   2.166   3.196  11.528  0.4022  0.4804 -2.3734
10225TIP3   OH252089   6.143   0.273  16.743 -0.1965 -0.1212 -0.5154
10225TIP3    H152090   6.202   0.330  16.693  1.9969 -1.0056  0.8816
10225TIP3    H252091   6.077   0.332  16.778  1.0429  1.3292 -0.4815
10226TIP3   OH252092   5.855   6.755   2.089 -0.0014  0.2333  0.1845
10226TIP3    H152093   5.832   6.836   2.135  0.9734 -0.2200  1.5471
10226TIP3    H252094   5.940   6.774   2.050 -0.6175  0.4618 -1.0991
10227TIP3   OH252095   0.544   3.950   0.089 -0.3395  0.1001 -0.3086
10227TIP3    H152096   0.598   3.996   0.153 -1.3199  0.1542  0.5152
10227TIP3    H252097   0.481   4.016   0.059 -1.5768 -0.5786  0.6754
10228TIP3   OH252098   4.587   3.887   4.041  0.4590 -0.7027 -0.2348
10228TIP3    H152099   4.666   3.848   4.079  1.5253  1.2874 -0.2590
10228TIP3    H252100   4.620   3.940   3.968 -0.8207  0.5878  0.0836
10229TIP3   OH252101   0.622   3.013   2.188  0.0760  0.1203  0.1622
10229TIP3    H152102   0.608   2.999   2.282 -1.5517 -0.2054 -0.1012
10229TIP3    H252103   0.609   3.107   2.175 -0.2014  0.0839  0.1807
10230TIP3   OH252104   0.783   3.981   0.867 -0.2977 -0.3363  0.5025
10230TIP3    H152105   0.875   3.966   0.888 -0.3852 -1.5787  0.0849
10230TIP3    H252106   0.746   4.020   0.946  0.0131 -2.2663  1.6863
10231TIP3   OH252107   0.404   4.653   6.544 -0.0468  0.0671  0.6419
10231TIP3    H152108   0.498   4.651   6.566  0.3377 -3.0167 -0.7035
10231TIP3    H252109   0.378   4.561   6.543 -3.0639  0.8218  0.6526
10232TIP3   OH252110   4.128   1.531   6.226 -0.5908  0.3635  0.1985
10232TIP3    H152111   4.191   1.539   6.154 -1.2845  1.0657 -0.3390
10232TIP3    H252112   4.167   1.465   6.283  1.3380  1.7440  0.5978
10233TIP3   OH252113   0.525   0.615  15.100 -0.4517  0.1681 -0.0859
10233TIP3    H152114   0.562   0.541  15.052  0.1137 -0.0204  0.6107
10233TIP3    H252115   0.600   0.670  15.122 -0.9347  1.2182 -1.0283
10234TIP3   OH252116   0.696   2.016  16.441  0.3543  1.1515  0.3098
10234TIP3    H152117   0.669   1.926  16.423 -0.9188  1.6386 -0.3125
10234TIP3    H252118   0.787   2.020  16.410  1.0904 -0.3998  2.0507
10235TIP3   OH252119   0.940   1.287   3.586 -0.1234  0.1708 -0.1338
10235TIP3    H152120   0.897   1.365   3.621  0.1773 -0.3350  1.4626
10235TIP3    H252121   0.872   1.219   3.589 -0.3580  0.3268 -1.4318
10236TIP3   OH252122   5.862   4.783  16.103 -0.1646  0.9005 -0.2135
10236TIP3    H152123   5.791   4.756  16.161 -0.2019 -0.8137 -1.0101
10236TIP3    H252124   5.929   4.715  16.114  0.2009  1.0257 -1.5003
10237TIP3   OH252125   2.089   5.701  13.459 -0.2965 -0.0969 -0.1473
10237TIP3    H152126   2.075   5.763  13.388  2.1595 -2.0011 -2.5223
10237TIP3    H252127   2.043   5.621  13.431 -0.2374 -0.5470  0.9636
10238TIP3   OH252128   2.765   1.340   2.353  0.3009  0.3636 -0.3599
10238TIP3    H152129   2.794   1.399   2.283  0.2029  1.4430  0.4907
10238TIP3    H252130   2.676   1.369   2.373 -0.1672 -0.7931 -0.6691
10239TIP3   OH252131   4.733   1.564  16.101 -0.0111 -0.3632  0.3248
10239TIP3    H152132   4.701   1.540  16.188  1.3732 -1.1933  0.6257
10239TIP3    H252133   4.683   1.643  16.079 -0.3448 -0.1039  1.8870
10240TIP3   OH252134   5.142   3.109   0.545  0.0433  0.1378  0.2726
10240TIP3    H152135   5.100   3.095   0.630  0.6305 -0.5228  0.4635
10240TIP3    H252136   5.080   3.073   0.481  0.6243 -1.5600  0.6089
10241TIP3   OH252137   6.183   4.746   0.952 -0.1320  0.4668  0.0265
10241TIP3    H152138   6.132   4.826   0.967  0.2099  0.4853  1.1756
10241TIP3    H252139   6.240   4.739   1.028  1.0733  0.0450 -0.8697
10242TIP3   OH252140   4.260   6.680   6.312 -0.0467  0.0544  0.1989
10242TIP3    H152141   4.263   6.662   6.218 -1.1686 -1.0161  0.3355
10242TIP3    H252142   4.345   6.652   6.345  1.2133  2.4737 -0.7835
10243TIP3   OH252143   2.393   4.504   5.396  0.1068 -0.3213  0.5413
10243TIP3    H152144   2.417   4.519   5.487  0.8627  1.0753  0.1303
10243TIP3    H252145   2.451   4.561   5.346 -0.3725 -0.9897 -0.8152
10244TIP3   OH252146   5.601   6.527   0.685 -0.1158 -0.1177  0.0289
10244TIP3    H152147   5.564   6.547   0.771  0.9166  0.2127  0.4159
10244TIP3    H252148   5.658   6.452   0.701  0.0939 -0.0449 -0.3687
10245TIP3   OH252149   5.719   1.858   2.163  0.0060  0.0391 -0.2938
10245TIP3    H152150   5.779   1.849   2.237 -0.2669  1.1175  0.0695
10245TIP3    H252151   5.637   1.819   2.195 -0.4383  1.4749  0.3856
10246TIP3   OH252152   0.794   3.727  16.500  0.1016 -0.1505  0.0903
10246TIP3    H152153   0.858   3.657  16.514  0.6706  0.6557  1.8548
10246TIP3    H252154   0.716   3.699  16.548 -0.0439 -0.0482 -0.0827
10247TIP3   OH252155   4.202   3.470  11.439 -0.1746 -0.3576  0.2101
10247TIP3    H152156   4.184   3.394  11.493 -1.5510  0.1154  0.4653
10247TIP3    H252157   4.136   3.466  11.369 -1.0752  1.2287  0.9198
10248TIP3   OH252158   6.267   0.577   3.837 -0.4871  0.4473 -0.1885
10248TIP3    H152159   6.226   0.610   3.757 -1.5821  0.8476  0.5150
10248TIP3    H252160   6.214   0.614   3.908 -0.7878 -1.5387  0.6812
10249TIP3   OH252161   0.282   5.842  17.209  0.4737 -0.0939  0.1147
10249TIP3    H152162   0.198   5.888  17.203 -0.0023 -1.0183 -0.6293
10249TIP3    H252163   0.341   5.891  17.152 -0.0611 -0.4748 -0.7711
10250TIP3   OH252164   6.142   2.978  16.844 -0.1963  0.0143  0.0718
10250TIP3    H152165   6.201   2.951  16.774  1.3229  0.8465  0.9672
10250TIP3    H252166   6.134   2.901  16.900  1.4438  0.3699  0.8471
10251TIP3   OH252167   6.366   3.597   4.796  0.4300 -0.0200  0.3071
10251TIP3    H152168   6.370   3.631   4.885 -0.6828  1.2171 -0.0826
10251TIP3    H252169   6.443   3.633   4.753 -0.0036  0.9241  0.2853
10252TIP3   OH252170   0.031   4.054   0.070 -0.2351  0.1990 -0.0582
10252TIP3    H152171   0.013   4.062  -0.023  0.9802 -2.0596 -0.5518
10252TIP3    H252172  -0.043   4.003   0.104 -0.5361  0.7804  0.1596
10253TIP3   OH252173   5.320   4.070   0.423 -0.0927 -0.2992  0.1289
10253TIP3    H152174   5.225   4.066   0.421 -0.1556  0.7079  0.3592
10253TIP3    H252175   5.349   3.984   0.394 -1.0721 -0.6414  0.1447
10254TIP3   OH252176   0.956   6.607  14.216 -0.6402 -0.2978  0.1896
10254TIP3    H152177   0.951   6.593  14.121  0.4105  0.2254  0.0488
10254TIP3    H252178   0.900   6.538  14.253  0.8168 -2.0376 -0.7010
10255TIP3   OH252179   0.261   0.672  14.959  0.1027  0.1535  0.0850
10255TIP3    H152180   0.317   0.595  14.964 -0.0236  0.0843  0.4704
10255TIP3    H252181   0.317   0.744  14.988 -0.2893 -0.0714  1.5259
10256TIP3   OH252182   3.641   6.311   5.119  0.2585  0.2836 -0.1101
10256TIP3    H152183   3.614   6.308   5.211 -1.2142  0.1006 -0.5267
10256TIP3    H252184   3.675   6.399   5.107 -2.4756  1.4439 -0.1348
10257TIP3   OH252185   4.240   0.379  15.463  0.3977 -0.0802 -0.3612
10257TIP3    H152186   4.270   0.317  15.396  1.2596 -0.1140  0.0536
10257TIP3    H252187   4.319   0.421  15.494 -0.0144  0.0433  0.5363
10258TIP3   OH252188   3.262   2.036  14.058 -0.0648 -0.5055  0.2907
10258TIP3    H152189   3.336   2.090  14.087 -0.2744 -0.4539  0.7301
10258TIP3    H252190   3.198   2.098  14.025  0.0823 -0.5512 -0.0950
10259TIP3   OH252191   4.449   4.251   3.337  0.8007  1.1029  0.5320
10259TIP3    H152192   4.383   4.306   3.378  0.3395  0.9697 -0.0104
10259TIP3    H252193   4.425   4.162   3.363 -0.2250  0.8917 -0.9500
10260TIP3   OH252194   6.513   0.736   4.153 -0.0051 -0.2593  0.1891
10260TIP3    H152195   6.427   0.712   4.188 -0.6853  2.1694  0.3849
10260TIP3    H252196   6.574   0.717   4.224 -0.6468 -0.2954  0.7371
10261TIP3   OH252197   6.167   2.045  13.942 -0.8982  0.2892 -0.2343
10261TIP3    H152198   6.199   2.000  13.864  1.0039 -0.9810  1.1869
10261TIP3    H252199   6.073   2.027  13.943 -1.0537  0.6899 -2.3993
10262TIP3   OH252200   3.159   2.336   2.023 -0.1879 -0.1651 -0.0498
10262TIP3    H152201   3.224   2.276   1.985 -1.0518 -1.6946  0.7708
10262TIP3    H252202   3.097   2.351   1.951 -1.4884 -2.5683  0.4453
10263TIP3   OH252203   2.587   4.801  12.744 -0.6530  0.2595  0.7486
10263TIP3    H152204   2.548   4.732  12.797  1.5047  0.3042  2.5249
10263TIP3    H252205   2.643   4.755  12.682 -0.8648  0.3497  0.4858
10264TIP3   OH252206   5.401   3.137   3.354  0.0872 -0.1585 -0.0927
10264TIP3    H152207   5.345   3.190   3.411 -0.0485 -0.7313  0.3227
10264TIP3    H252208   5.373   3.159   3.266  0.3556  0.8099  0.0499
10265TIP3   OH252209   0.996   4.752   5.574 -0.4072  0.4809  0.4301
10265TIP3    H152210   1.032   4.758   5.663  0.3605  1.0673  0.0979
10265TIP3    H252211   0.919   4.810   5.576 -2.6171 -2.2633  1.6877
10266TIP3   OH252212   6.369   3.202   1.051  0.0991 -0.0936 -0.0179
10266TIP3    H152213   6.301   3.267   1.033  0.5370 -0.0347 -1.5546
10266TIP3    H252214   6.400   3.224   1.139  0.2021  1.7858 -0.4744
10267TIP3   OH252215   6.650   3.551  12.938  0.4967 -0.1617  0.1894
10267TIP3    H152216   6.698   3.475  12.905 -0.2418 -0.9022  0.7711
10267TIP3    H252217   6.559   3.536  12.911  0.3852  0.6487  0.0890
10268TIP3   OH252218   5.801   3.890  15.430  0.6543 -0.1146  0.4469
10268TIP3    H152219   5.879   3.861  15.476  0.8575 -1.7403 -0.8539
10268TIP3    H252220   5.747   3.812  15.421 -0.1930  0.5445 -0.4698
10269TIP3   OH252221   4.681   1.016   3.636 -0.1491 -0.6808 -0.1397
10269TIP3    H152222   4.618   1.019   3.708  1.3259 -1.0391  1.2334
10269TIP3    H252223   4.642   1.070   3.567 -0.5203  1.8474  1.8773
10270TIP3   OH252224   0.038   3.592   2.285  0.0398 -0.0131  0.7581
10270TIP3    H152225   0.073   3.678   2.309  0.5265 -0.1770  0.6453
10270TIP3    H252226  -0.009   3.563   2.363  0.2614  0.1563  0.9570
10271TIP3   OH252227   1.912   5.396  12.782  0.0640 -0.0981  0.7487
10271TIP3    H152228   1.887   5.448  12.705  0.7066 -0.7308  0.0983
10271TIP3    H252229   1.834   5.395  12.837 -1.1832 -1.4868 -0.9292
10272TIP3   OH252230   2.319   2.844  15.422 -0.1993  0.0655 -0.2527
10272TIP3    H152231   2.389   2.799  15.470 -0.3945 -1.0775 -1.0124
10272TIP3    H252232   2.363   2.878  15.343 -0.4313 -0.4549 -0.6156
10273TIP3   OH252233   4.313   5.193  11.350 -0.3536  0.5889 -0.2259
10273TIP3    H152234   4.276   5.149  11.274 -1.9123  1.0983  0.2106
10273TIP3    H252235   4.296   5.134  11.423 -1.1230  1.2193  0.1186
10274TIP3   OH252236   6.597   1.217  16.877 -0.6697  0.0938  0.8816
10274TIP3    H152237   6.638   1.151  16.821 -0.3975  0.1446  1.0205
10274TIP3    H252238   6.669   1.256  16.926 -0.5623  1.8849 -0.6255
10275TIP3   OH252239   2.272   2.355   4.040 -0.0633 -0.5155 -0.0102
10275TIP3    H152240   2.229   2.441   4.038  1.4548  0.3506  1.8424
10275TIP3    H252241   2.199   2.293   4.033 -1.1200  0.8473 -2.5376
10276TIP3   OH252242   3.809   5.871   5.754  0.5507 -0.0240 -0.2428
10276TIP3    H152243   3.882   5.923   5.719  0.5956 -0.0044 -0.1198
10276TIP3    H252244   3.770   5.829   5.677 -0.6282  1.6248 -0.5888
10277TIP3   OH252245   0.815   5.051  11.907 -0.1194 -0.1964 -0.0652
10277TIP3    H152246   0.724   5.080  11.910 -0.1120 -0.0423 -1.0245
10277TIP3    H252247   0.847   5.081  11.822  0.1546 -2.2558 -0.7458
10278TIP3   OH252248   3.945   0.421  12.069 -0.1654  0.5050  0.2706
10278TIP3    H152249   3.896   0.449  12.147  0.9380  1.7209  0.5680
10278TIP3    H252250   3.958   0.327  12.082 -2.0869  0.2088  0.3464
10279TIP3   OH252251   0.428   6.259   2.474 -0.0844  0.3855 -0.7152
10279TIP3    H152252   0.417   6.294   2.386 -1.6439  1.4084 -0.1633
10279TIP3    H252253   0.339   6.253   2.509 -0.0488 -4.4141 -0.7729
10280TIP3   OH252254   1.962   5.330  15.822  0.7431  0.1346 -0.4247
10280TIP3    H152255   1.896   5.291  15.764  0.3714 -0.4313  0.3556
10280TIP3    H252256   1.972   5.420  15.791 -1.5806  0.7488  0.4286
10281TIP3   OH252257   4.370   2.218  14.313  0.6681  0.9617 -0.2484
10281TIP3    H152258   4.443   2.224  14.251  1.9710 -0.3351  1.0589
10281TIP3    H252259   4.396   2.276  14.385 -1.2931  3.2547 -1.2462
10282TIP3   OH252260   4.726   2.214  16.336 -0.6284  0.0824 -0.3938
10282TIP3    H152261   4.712   2.127  16.298 -0.4569 -0.5335  0.8964
10282TIP3    H252262   4.812   2.241  16.304 -0.5740 -0.3293 -0.6030
10283TIP3   OH252263   6.114   4.841  11.428  0.1714  0.2631  0.0647
10283TIP3    H152264   6.125   4.871  11.338 -0.8672 -0.0003 -0.1680
10283TIP3    H252265   6.066   4.913  11.471 -1.9431 -0.8085 -0.3801
10284TIP3   OH252266   0.939   1.485   2.995  0.1841  0.1388 -0.0115
10284TIP3    H152267   0.890   1.537   3.059  0.1138  0.7590 -0.5650
10284TIP3    H252268   1.027   1.478   3.032 -0.0913 -0.2698  0.5815
10285TIP3   OH252269   6.561   5.835   3.169 -0.1911 -0.2097  0.1957
10285TIP3    H152270   6.620   5.861   3.098 -1.8553 -0.7362 -1.4435
10285TIP3    H252271   6.538   5.918   3.212 -0.6250  0.3602 -1.0901
10286TIP3   OH252272   1.796   1.190  10.872 -0.5084 -0.3496  0.2652
10286TIP3    H152273   1.801   1.110  10.820  1.8736 -1.9949  2.7110
10286TIP3    H252274   1.883   1.228  10.865 -1.2217  1.3485  0.2196
10287TIP3   OH252275   0.483   6.244  15.785  0.3613 -0.4732  0.3557
10287TIP3    H152276   0.530   6.325  15.763  1.4365 -1.2592 -0.3547
10287TIP3    H252277   0.391   6.264  15.770  0.5621  0.7752  0.7015
10288TIP3   OH252278   6.559   1.415   2.065 -1.3706 -0.2742  0.4117
10288TIP3    H152279   6.578   1.508   2.076 -0.1370 -0.3962 -0.5610
10288TIP3    H252280   6.482   1.400   2.120 -0.4143  0.8776  2.1582
10289TIP3   OH252281   5.209   1.442  17.311  0.1490  0.8022  0.8943
10289TIP3    H152282   5.263   1.372  17.347 -0.3468  0.1651  0.3998
10289TIP3    H252283   5.272   1.503  17.272  0.4808 -0.2861 -0.3147
10290TIP3   OH252284   6.192   2.482   5.324 -0.1687 -0.8420  0.1487
10290TIP3    H152285   6.196   2.538   5.402 -0.3803 -1.3079  0.4959
10290TIP3    H252286   6.258   2.415   5.339  1.6217  0.4998 -1.2259
10291TIP3   OH252287   5.159   1.377   2.366  0.6172 -0.2954  0.3809
10291TIP3    H152288   5.222   1.306   2.354  2.0732  0.8027  1.1122
10291TIP3    H252289   5.178   1.412   2.453 -0.4726  0.5978  0.2895
10292TIP3   OH252290   1.032   1.438   0.338 -0.0628 -0.2581 -0.2352
10292TIP3    H152291   0.981   1.440   0.419  0.7382 -0.4265  0.2744
10292TIP3    H252292   0.980   1.489   0.276  0.5362  2.0595  1.0880
10293TIP3   OH252293   0.847   5.322  17.005  0.2131  0.5344 -0.1121
10293TIP3    H152294   0.908   5.288  17.071  1.9270 -1.1761 -2.4012
10293TIP3    H252295   0.866   5.416  17.001  3.6257 -0.0529 -1.4370
10294TIP3   OH252296   3.162   2.149   3.362  0.5682 -0.8547  0.3999
10294TIP3    H152297   3.172   2.072   3.418  0.8509 -0.3547  1.0525
10294TIP3    H252298   3.099   2.122   3.295 -0.4090 -1.2215  1.4324
10295TIP3   OH252299   1.712   1.095   3.198 -0.0406  0.1677 -0.3129
10295TIP3    H152300   1.758   1.060   3.274  1.9815 -0.5555 -1.7469
10295TIP3    H252301   1.668   1.173   3.229  1.5755  0.4646  1.3845
10296TIP3   OH252302   1.321   5.081  13.254 -0.5744 -0.4756  0.4753
10296TIP3    H152303   1.380   5.123  13.317  1.5763 -0.2920 -1.4873
10296TIP3    H252304   1.292   5.153  13.197 -0.5855 -0.9607 -0.1388
10297TIP3   OH252305   1.697   3.705   3.223  0.4958  0.2538 -0.7074
10297TIP3    H152306   1.704   3.768   3.295 -0.7026  1.9885 -2.0151
10297TIP3    H252307   1.783   3.705   3.182  0.1129  2.3435 -1.6530
10298TIP3   OH252308   4.481   1.503   3.430 -0.2677  0.0612 -1.1152
10298TIP3    H152309   4.531   1.501   3.348 -0.5235  1.4930 -1.3315
10298TIP3    H252310   4.522   1.572   3.481  2.0635 -2.9583  1.4487
10299TIP3   OH252311   0.066   3.695  14.663 -0.7313 -0.1274 -0.2937
10299TIP3    H152312  -0.028   3.693  14.681 -0.6463  1.5518  0.5756
10299TIP3    H252313   0.105   3.639  14.731 -0.9137  1.4278  1.1663
10300TIP3   OH252314   0.858   3.883  14.151 -0.0795  0.0621 -0.2601
10300TIP3    H152315   0.941   3.898  14.196 -0.2742 -1.1822  0.5693
10300TIP3    H252316   0.795   3.936  14.200 -0.6798 -2.7810  2.3610
10301TIP3   OH252317   1.228   5.285   5.661  1.4770  0.0798 -0.4896
10301TIP3    H152318   1.159   5.315   5.719  1.1491 -0.6399 -0.5023
10301TIP3    H252319   1.241   5.358   5.599  0.7097  0.1950 -0.5169
10302TIP3   OH252320   5.279   0.300  13.359 -0.3701  0.6745 -0.1603
10302TIP3    H152321   5.321   0.327  13.441 -1.6903  3.0902 -0.1667
10302TIP3    H252322   5.200   0.355  13.353 -0.3724  0.5264 -3.0002
10303TIP3   OH252323   3.828   2.534   2.095 -0.0524 -0.6688  0.2678
10303TIP3    H152324   3.811   2.568   2.007 -1.4243 -1.5988  0.1392
10303TIP3    H252325   3.810   2.608   2.153  0.3318 -0.2060 -0.1894
10304TIP3   OH252326   1.587   5.878  14.456  0.0195 -0.0935 -0.4042
10304TIP3    H152327   1.527   5.939  14.412  0.8618  0.0046 -1.4744
10304TIP3    H252328   1.670   5.926  14.459  0.3992 -0.7618 -0.2216
10305TIP3   OH252329   4.834   4.473   0.558  0.2046  0.0483  0.1915
10305TIP3    H152330   4.926   4.487   0.535  0.1007  0.1217 -0.1916
10305TIP3    H252331   4.795   4.560   0.555  0.4407  0.2326  1.8272
10306TIP3   OH252332   4.694   3.369   4.282 -0.3867 -0.6162 -0.2328
10306TIP3    H152333   4.788   3.352   4.291 -0.1993  0.9532  1.3289
10306TIP3    H252334   4.686   3.464   4.285 -2.1295 -0.7515  1.1258
10307TIP3   OH252335   3.430   4.098  12.438 -0.5030 -0.1277  0.5877
10307TIP3    H152336   3.503   4.039  12.421 -0.6916 -0.5304  1.1284
10307TIP3    H252337   3.381   4.100  12.356  1.2422  1.7998 -0.4782
10308TIP3   OH252338   5.123   4.130  15.029  0.1783  0.0504 -0.4007
10308TIP3    H152339   5.106   4.041  15.062 -0.0144  0.6716  1.2646
10308TIP3    H252340   5.051   4.147  14.969 -1.9405  0.3820  2.0253
10309TIP3   OH252341   1.572   3.158  12.444 -0.2130 -0.1039 -0.4681
10309TIP3    H152342   1.640   3.132  12.506 -0.7492 -1.5876 -0.4632
10309TIP3    H252343   1.582   3.098  12.370 -1.4735 -0.3349 -0.4784
10310TIP3   OH252344   1.622   1.760  13.779 -0.6694  0.0642 -0.7318
10310TIP3    H152345   1.543   1.711  13.801 -0.8584  0.5919 -0.2078
10310TIP3    H252346   1.640   1.737  13.688 -2.4669  1.2776 -1.4586
10311TIP3   OH252347   6.675   4.148   3.488  0.1751  0.5854  0.2978
10311TIP3    H152348   6.674   4.056   3.512 -0.2851  0.3325 -0.6425
10311TIP3    H252349   6.762   4.161   3.449 -0.7483 -0.1797 -2.1740
10312TIP3   OH252350   3.555   0.055   7.076  0.8840 -0.3281  0.3590
10312TIP3    H152351   3.587  -0.035   7.087  0.9744 -0.7398 -2.4179
10312TIP3    H252352   3.613   0.093   7.010 -0.7622  0.8355 -0.5148
10313TIP3   OH252353   1.103   5.025   3.089  0.4395  0.1928  0.4160
10313TIP3    H152354   1.040   5.090   3.120  0.4627 -0.1217  1.1459
10313TIP3    H252355   1.137   5.061   3.007  0.0898  0.8639  0.5622
10314TIP3   OH252356   3.177   4.063  11.419 -0.6042  0.5420 -0.0784
10314TIP3    H152357   3.172   4.000  11.347  0.1839  1.7543 -1.2530
10314TIP3    H252358   3.261   4.108  11.405  0.5721 -0.5659  2.8046
10315TIP3   OH252359   4.276   4.354   5.826 -0.1309 -0.3003 -0.4597
10315TIP3    H152360   4.262   4.448   5.836 -1.7956 -0.5143 -0.3501
10315TIP3    H252361   4.267   4.319   5.915  0.6471 -0.5432 -0.4739
10316TIP3   OH252362   0.036   5.509   0.277 -0.3915 -0.3946 -0.0262
10316TIP3    H152363   0.024   5.579   0.342  1.2299  0.8492 -0.9819
10316TIP3    H252364  -0.020   5.534   0.204  1.4228  0.9214 -1.0681
10317TIP3   OH252365   1.797   0.402  14.847  0.1732  0.2252 -0.4118
10317TIP3    H152366   1.864   0.351  14.802  1.2585  1.7844 -0.6276
10317TIP3    H252367   1.845   0.466  14.898 -1.1156  0.1128  1.0422
10318TIP3   OH252368   0.476   3.834  16.606  0.2994 -0.1498 -0.5679
10318TIP3    H152369   0.527   3.847  16.686  0.6965  0.2588 -0.8792
10318TIP3    H252370   0.496   3.910  16.552 -0.7657  0.0962 -0.6435
10319TIP3   OH252371   2.209   3.373  11.929  0.7102 -0.0830  0.3980
10319TIP3    H152372   2.186   3.301  11.988  1.8496  0.5195  1.6316
10319TIP3    H252373   2.284   3.415  11.971 -0.4886  2.4087  0.2031
10320TIP3   OH252374   2.728   4.106  11.464  0.0294  0.2881 -0.5173
10320TIP3    H152375   2.677   4.121  11.384  0.7937 -1.6684 -1.4595
10320TIP3    H252376   2.681   4.154  11.532 -1.6396  0.6160 -1.8192
10321TIP3   OH252377   4.726   4.337   2.859 -0.0732  0.2829  0.4326
10321TIP3    H152378   4.755   4.246   2.853 -1.5583 -0.3010  1.4314
10321TIP3    H252379   4.676   4.341   2.941 -4.1228  0.6935 -1.7627
10322TIP3   OH252380   3.346   4.214  12.179 -0.2287 -0.2305  0.2043
10322TIP3    H152381   3.315   4.247  12.094  0.7562  0.4860  0.1027
10322TIP3    H252382   3.397   4.286  12.215 -1.2028 -0.2667  1.7478
10323TIP3   OH252383   0.584   4.977   5.395  0.3926 -0.2065 -0.8993
10323TIP3    H152384   0.519   4.907   5.383 -0.3945  0.1652  0.9252
10323TIP3    H252385   0.641   4.969   5.318 -2.3541  0.0909 -3.1715
10324TIP3   OH252386   6.042   2.348  16.346 -0.1146  0.2554  0.1406
10324TIP3    H152387   6.112   2.410  16.368 -1.0441  0.8991  1.3945
10324TIP3    H252388   6.068   2.266  16.389 -0.1519  0.5006  0.6279
10325TIP3   OH252389   6.382   4.448   4.422  0.0655 -0.3157  0.3329
10325TIP3    H152390   6.400   4.428   4.331  0.5493  0.4305  0.2555
10325TIP3    H252391   6.360   4.363   4.461  1.3321 -0.8969 -0.1384
10326TIP3   OH252392   2.760   1.634  12.071  0.4470 -0.1304 -0.2856
10326TIP3    H152393   2.726   1.552  12.107  0.2042  0.3584  0.6329
10326TIP3    H252394   2.844   1.647  12.114  0.7219 -0.1559 -0.8124
10327TIP3   OH252395   1.280   4.133   4.144 -0.2148 -0.5036 -0.2582
10327TIP3    H152396   1.310   4.110   4.232  1.7890 -2.0738 -1.2744
10327TIP3    H252397   1.189   4.162   4.156  0.5461  1.0217  2.5232
10328TIP3   OH252398   0.751   5.652  13.136 -0.5122  0.1759 -0.5998
10328TIP3    H152399   0.698   5.595  13.192 -1.0484 -0.2562 -1.5186
10328TIP3    H252400   0.831   5.667  13.186 -0.8060 -0.5172  0.1109
10329TIP3   OH252401   6.419   3.505   1.194 -0.2834 -0.2152 -0.0250
10329TIP3    H152402   6.514   3.510   1.182 -0.4248 -1.0215 -1.8813
10329TIP3    H252403   6.406   3.428   1.249  0.1278 -0.1228  0.2105
10330TIP3   OH252404   0.849   0.132   3.687 -0.5673  0.5081 -0.3724
10330TIP3    H152405   0.802   0.184   3.752 -0.5702 -0.4719  0.4384
10330TIP3    H252406   0.792   0.057   3.671  0.8898 -0.9782  1.0196
10331TIP3   OH252407   0.278   0.843   3.633 -0.4842 -0.2822  0.1468
10331TIP3    H152408   0.318   0.898   3.566 -0.4024 -0.8696 -0.2957
10331TIP3    H252409   0.184   0.855   3.621 -0.4712  1.1684  1.2443
10332TIP3   OH252410   5.919   6.483  13.539  0.0182  0.4294  0.1431
10332TIP3    H152411   5.925   6.516  13.629 -0.7984 -0.2318  0.4549
10332TIP3    H252412   5.957   6.395  13.544 -0.1853  0.3282 -0.1238
10333TIP3   OH252413   2.174   1.959   4.634  0.0759 -0.0286  0.1826
10333TIP3    H152414   2.182   1.905   4.712 -0.6761 -0.2220  0.1386
10333TIP3    H252415   2.264   1.984   4.611  0.2904  0.1491  1.1860
10334TIP3   OH252416   1.032   5.294  12.257  1.0357  0.0392 -0.2103
10334TIP3    H152417   1.042   5.202  12.279 -1.1071 -0.5668 -1.4772
10334TIP3    H252418   0.990   5.333  12.334 -0.5462 -0.6820 -0.6596
10335TIP3   OH252419   4.292   0.344   2.988  0.0877 -0.1920  0.1568
10335TIP3    H152420   4.385   0.323   2.985 -0.2395 -1.6688 -2.4455
10335TIP3    H252421   4.254   0.295   2.915 -2.4706  1.7295  0.0772
10336TIP3   OH252422   6.456   5.646  14.272  0.0471  0.2302  0.2196
10336TIP3    H152423   6.369   5.675  14.299 -0.8110 -1.6115 -0.3553
10336TIP3    H252424   6.461   5.670  14.179  0.5089  1.0762  0.4543
10337TIP3   OH252425   5.096   4.000   2.943  0.2315 -0.0172 -0.0578
10337TIP3    H152426   5.116   3.988   3.036 -0.9743  0.6980  0.3138
10337TIP3    H252427   5.111   4.093   2.927  2.1262 -0.4528 -1.0384
10338TIP3   OH252428   5.988   3.258   4.646 -0.8902  0.0611  0.6896
10338TIP3    H152429   5.976   3.341   4.693  0.1387  0.5082  0.1971
10338TIP3    H252430   5.979   3.281   4.553  0.3940 -0.1768  0.4944
10339TIP3   OH252431   1.897   0.434  17.241  0.0264  0.5430  0.3511
10339TIP3    H152432   1.864   0.521  17.219  0.3338  0.2346 -1.4720
10339TIP3    H252433   1.964   0.450  17.308  0.4215  1.7652 -0.3051
10340TIP3   OH252434   0.673   6.084   3.406 -0.7367  0.5077 -0.7590
10340TIP3    H152435   0.587   6.125   3.412 -1.8720 -1.9390  1.1318
10340TIP3    H252436   0.672   6.014   3.470  3.5891  1.8780  1.2219
10341TIP3   OH252437   2.994   4.734  11.753 -0.2478  0.4126 -0.4756
10341TIP3    H152438   2.943   4.674  11.699 -0.9715 -1.0379  1.6803
10341TIP3    H252439   2.960   4.820  11.731  0.2055  0.0072 -3.0281
10342TIP3   OH252440   6.144   2.713  13.246  0.4439  0.3333  0.2557
10342TIP3    H152441   6.239   2.719  13.247  0.3998  1.1984  0.3858
10342TIP3    H252442   6.116   2.767  13.320 -0.1703  0.7615 -0.2791
10343TIP3   OH252443   2.798   1.934   4.908  0.7749  0.7765 -0.4767
10343TIP3    H152444   2.812   1.849   4.949 -0.5437  0.1369 -1.2935
10343TIP3    H252445   2.866   1.990   4.946  1.6833 -0.6297  0.0616
10344TIP3   OH252446   4.073   1.492  14.603 -0.6096  0.4391  0.1872
10344TIP3    H152447   4.053   1.422  14.542 -1.2842  0.2008  0.6678
10344TIP3    H252448   4.128   1.451  14.670  1.3710  1.0257 -0.9749
10345TIP3   OH252449   2.949   1.661  13.099  0.5303  0.0433  0.2695
10345TIP3    H152450   2.864   1.619  13.113  0.7621  0.0243  1.7318
10345TIP3    H252451   2.962   1.717  13.176  1.4684  0.6893 -0.3314
10346TIP3   OH252452   5.426   5.043  11.382 -0.4935  0.3014  0.0614
10346TIP3    H152453   5.395   4.956  11.358  0.1338  0.3639 -1.0382
10346TIP3    H252454   5.350   5.100  11.369 -1.2060 -0.2012  1.7566
10347TIP3   OH252455   2.435   3.552   2.722  0.0651  0.1405  0.5202
10347TIP3    H152456   2.462   3.626   2.667  0.9325  1.1523  2.1987
10347TIP3    H252457   2.448   3.475   2.667  0.7921  1.1106 -0.7172
10348TIP3   OH252458   6.048   0.646   3.993 -0.0678  0.0438 -0.1209
10348TIP3    H152459   6.057   0.727   4.043 -1.4130 -1.5429  2.9455
10348TIP3    H252460   5.963   0.652   3.951 -1.6487 -0.9469  2.6960
10349TIP3   OH252461   5.464   0.491   5.816  0.1203 -0.0489  0.2079
10349TIP3    H152462   5.375   0.471   5.786  0.1153  1.7552 -1.1769
10349TIP3    H252463   5.451   0.544   5.894  0.0501 -1.5059  1.2122
10350TIP3   OH252464   5.909   4.094  16.041 -0.0201 -0.0715 -0.4248
10350TIP3    H152465   5.862   4.150  16.103  1.0546  0.0832  0.2746
10350TIP3    H252466   5.993   4.137  16.030 -0.6564  0.6492 -3.0659
10351TIP3   OH252467   0.465   1.040   2.896 -0.2028 -0.5501  0.6274
10351TIP3    H152468   0.475   0.946   2.907  0.7368 -0.3859  1.3312
10351TIP3    H252469   0.489   1.077   2.981  0.0686  0.3605  0.1703
10352TIP3   OH252470   6.470   3.071  14.105 -0.2943  0.0060  0.7297
10352TIP3    H152471   6.452   3.001  14.042 -0.8752 -0.3696  1.2987
10352TIP3    H252472   6.457   3.152  14.055  3.7942 -0.1596 -0.9352
10353TIP3   OH252473   1.824   2.521   4.313 -0.0450  0.1290  0.0845
10353TIP3    H152474   1.821   2.594   4.251  0.7887  0.0125 -0.1137
10353TIP3    H252475   1.802   2.559   4.397 -0.2078  0.4907 -0.1218
10354TIP3   OH252476   6.344   2.053   0.674  0.3958  0.1946 -0.6110
10354TIP3    H152477   6.317   2.101   0.753  1.8578 -0.0283  0.0503
10354TIP3    H252478   6.390   2.118   0.621 -1.2854  0.5656 -1.7281
10355TIP3   OH252479   5.539   0.695   6.050  0.1841 -0.6101  0.1242
10355TIP3    H152480   5.585   0.620   6.086 -1.0989 -1.1555  0.7168
10355TIP3    H252481   5.534   0.757   6.123  1.4617  0.1824 -0.4351
10356TIP3   OH252482   3.689   3.062  14.140 -0.6206  0.4392 -0.2732
10356TIP3    H152483   3.634   2.985  14.153  1.7598 -1.1758  0.8113
10356TIP3    H252484   3.760   3.032  14.084 -0.5006  2.3299 -1.2203
10357TIP3   OH252485   4.091   6.050   5.272 -0.1972  0.0463 -0.3615
10357TIP3    H152486   4.105   6.014   5.184 -1.9550  0.6582 -0.9308
10357TIP3    H252487   3.997   6.065   5.277 -0.5670 -2.2645  2.5420
10358TIP3   OH252488   5.433   5.476   1.442  0.3347 -0.0217  0.7781
10358TIP3    H152489   5.415   5.487   1.535  2.2129 -1.5246  1.3754
10358TIP3    H252490   5.348   5.454   1.404 -0.1175 -1.4698  2.5034
10359TIP3   OH252491   2.991   4.108  17.098 -0.3369 -0.0361 -0.0694
10359TIP3    H152492   3.042   4.027  17.090  0.3737  0.3826  0.0670
10359TIP3    H252493   2.953   4.103  17.186  1.1713  0.5651  0.6749
10360TIP3   OH252494   6.317   5.043  13.635 -0.1409 -0.3524 -0.0068
10360TIP3    H152495   6.236   4.994  13.634  0.6185 -1.6414 -0.4786
10360TIP3    H252496   6.386   4.977  13.624  0.9961  0.6551  0.7644
10361TIP3   OH252497   1.311   6.408   6.018 -0.1565  0.3012 -0.0213
10361TIP3    H152498   1.268   6.439   6.097  1.9839  0.4375  1.1691
10361TIP3    H252499   1.291   6.315   6.015 -0.7270  0.4042  0.3588
10362TIP3   OH252500   4.590   4.373   5.037  0.2744  0.3323  0.6268
10362TIP3    H152501   4.515   4.431   5.021  0.6859  0.8470  0.5449
10362TIP3    H252502   4.603   4.327   4.954  0.0992  0.2962  0.6192
10363TIP3   OH252503   5.615   1.547  16.227  0.1033 -0.2279  0.4831
10363TIP3    H152504   5.621   1.452  16.221  0.9548 -0.1301 -0.3337
10363TIP3    H252505   5.521   1.565  16.233 -0.0074 -1.1927  2.2809
10364TIP3   OH252506   0.294   1.771  16.321 -0.2833 -0.0772 -0.4817
10364TIP3    H152507   0.239   1.817  16.258  0.6790 -0.4531 -1.6383
10364TIP3    H252508   0.367   1.738  16.269  1.2279  0.7131  1.0439
10365TIP3   OH252509   5.440   3.859   4.639  0.0766  0.3618  0.1101
10365TIP3    H152510   5.434   3.913   4.560 -0.7522 -0.2376 -0.2488
10365TIP3    H252511   5.485   3.779   4.611  0.8099  0.6225  0.5148
10366TIP3   OH252512   6.136   2.773  11.304 -0.1291 -0.4853  0.2940
10366TIP3    H152513   6.132   2.760  11.209  0.7061 -0.0798  0.1906
10366TIP3    H252514   6.202   2.710  11.333  0.3750  0.1041  0.4526
10367TIP3   OH252515   6.498   0.830  15.882 -0.0081 -0.6653  0.0541
10367TIP3    H152516   6.565   0.835  15.813 -1.0874  0.9233 -0.9608
10367TIP3    H252517   6.423   0.875  15.844 -0.5900  0.4323  2.3643
10368TIP3   OH252518   6.218   3.198  14.871 -0.0304  0.2283 -0.1710
10368TIP3    H152519   6.163   3.253  14.927  0.9795  0.3393  0.7476
10368TIP3    H252520   6.234   3.252  14.794  0.5339  1.0481  0.4976
10369TIP3   OH252521   6.257   0.219  14.027  0.4832  0.3979 -0.1533
10369TIP3    H152522   6.311   0.298  14.019  0.6122  0.1591 -1.9767
10369TIP3    H252523   6.319   0.150  14.052  0.8761  0.3189 -1.3065
10370TIP3   OH252524   1.435   3.921  14.212 -0.0032 -0.1377  0.1993
10370TIP3    H152525   1.431   3.985  14.140 -0.7407 -0.6389 -0.2098
10370TIP3    H252526   1.448   3.837  14.168 -1.5207 -0.5910  0.5699
10371TIP3   OH252527   2.910   0.577  14.662 -0.3422  0.0349  0.0087
10371TIP3    H152528   2.874   0.626  14.588  1.2092 -0.6584 -1.2655
10371TIP3    H252529   3.002   0.565  14.640 -0.1411 -1.3571  1.4209
10372TIP3   OH252530   1.117   4.897  13.300  0.3886  0.0964  0.3182
10372TIP3    H152531   1.177   4.970  13.314  0.4176  0.2015 -0.3346
10372TIP3    H252532   1.172   4.827  13.264  0.1359  0.1646 -0.2050
10373TIP3   OH252533   4.462   0.088  15.713 -0.6049 -0.7482 -0.2846
10373TIP3    H152534   4.557   0.099  15.725 -1.0946  1.6600  2.5280
10373TIP3    H252535   4.451   0.082  15.619  2.2306  0.4029 -0.8020
10374TIP3   OH252536   1.169   5.077  16.210  0.0580 -0.0393  0.4560
10374TIP3    H152537   1.085   5.098  16.251 -0.2088  0.7364 -0.4789
10374TIP3    H252538   1.151   5.072  16.117  1.4479  2.3642 -0.0259
10375TIP3   OH252539   4.190   4.850   5.190 -0.0737  0.2505 -0.7094
10375TIP3    H152540   4.137   4.780   5.228  1.1582 -0.9836 -1.1811
10375TIP3    H252541   4.137   4.884   5.118 -0.4698 -0.5473 -0.7980
10376TIP3   OH252542   2.003   5.128   3.432 -0.3571  0.0687  0.2297
10376TIP3    H152543   1.991   5.055   3.371 -0.4528  0.9000 -0.7704
10376TIP3    H252544   1.922   5.130   3.483 -1.7740  1.4419 -1.9169
10377TIP3   OH252545   0.539   1.516   0.264  0.4144 -0.1405 -0.0126
10377TIP3    H152546   0.471   1.451   0.250  0.0781  0.2049 -0.0053
10377TIP3    H252547   0.513   1.590   0.210  2.3815 -1.1079 -2.4592
10378TIP3   OH252548   2.412   6.190   1.513 -0.1058  0.4212  0.0517
10378TIP3    H152549   2.433   6.121   1.576  0.7585 -0.5934 -1.2885
10378TIP3    H252550   2.319   6.177   1.494 -0.1816  0.2466  0.5085
10379TIP3   OH252551   0.515   4.106  10.499 -0.0570  0.3639 -0.1304
10379TIP3    H152552   0.529   4.190  10.544 -1.0211  0.6381 -0.3232
10379TIP3    H252553   0.530   4.040  10.567  1.2894  0.6535 -0.1221
10380TIP3   OH252554   0.456   0.792   4.927  0.3434  0.5260 -0.2434
10380TIP3    H152555   0.457   0.849   4.849  1.3417  0.8490 -0.0082
10380TIP3    H252556   0.538   0.813   4.973  0.2182 -0.3511  0.3980
10381TIP3   OH252557   1.371   3.048  11.823  0.5084  0.3151 -0.0023
10381TIP3    H152558   1.462   3.063  11.851  0.9014  1.4966 -1.7363
10381TIP3    H252559   1.356   2.955  11.842  2.6401 -0.3347 -1.0909
10382TIP3   OH252560   1.869   3.916  15.457 -0.0727  0.0159  0.4212
10382TIP3    H152561   1.894   3.961  15.537 -0.4375  2.4953 -0.7631
10382TIP3    H252562   1.951   3.885  15.420  0.3453  0.8357  0.6513
10383TIP3   OH252563   5.413   2.139  11.186  0.1578  0.6113 -0.0568
10383TIP3    H152564   5.442   2.193  11.260 -0.8324 -0.1300  0.9110
10383TIP3    H252565   5.318   2.152  11.183  0.2123  0.8079 -1.3596
10384TIP3   OH252566   3.256   1.474   2.572 -0.2129  0.2030 -0.2487
10384TIP3    H152567   3.182   1.423   2.538 -0.5777 -0.4743  1.4476
10384TIP3    H252568   3.317   1.408   2.605  0.5176  0.8069 -0.3765
10385TIP3   OH252569   5.326   4.337  12.760 -0.0123 -0.5363  0.4170
10385TIP3    H152570   5.391   4.273  12.730 -0.4069 -0.4065 -0.7692
10385TIP3    H252571   5.249   4.284  12.781 -0.5042 -0.4434 -1.0300
10386TIP3   OH252572   0.032   3.345  12.034 -0.0999  0.0381 -0.4360
10386TIP3    H152573   0.050   3.320  12.124  1.0855 -0.6343 -0.8397
10386TIP3    H252574  -0.024   3.276  12.000 -0.0338 -0.0320 -0.4017
10387TIP3   OH252575   1.552   2.665  12.068  0.0669  0.2537  0.5110
10387TIP3    H152576   1.634   2.706  12.041 -0.5202  0.7817 -0.5228
10387TIP3    H252577   1.578   2.604  12.137  1.6607 -1.0988 -1.1673
10388TIP3   OH252578   2.011   2.152   0.117  0.1128  0.1764  0.0589
10388TIP3    H152579   2.034   2.077   0.172  1.4384  0.9567  0.6223
10388TIP3    H252580   1.922   2.174   0.144 -0.1452 -0.9322  0.1732
10389TIP3   OH252581   0.690   5.370   3.391  0.1867 -0.0725  0.0181
10389TIP3    H152582   0.610   5.323   3.367  0.1019  0.3331 -0.5280
10389TIP3    H252583   0.724   5.403   3.308  0.2204  0.8595  0.3912
10390TIP3   OH252584   2.351   2.238   5.176  0.5944  0.1335 -0.5210
10390TIP3    H152585   2.369   2.242   5.270  0.3948  0.1115 -0.4809
10390TIP3    H252586   2.384   2.321   5.141 -0.2467  0.5877 -0.2707
10391TIP3   OH252587   0.384   3.070  14.088 -0.3757 -0.6493  0.0985
10391TIP3    H152588   0.299   3.031  14.111 -1.7079  0.3372 -2.6705
10391TIP3    H252589   0.427   3.003  14.036  0.0585 -0.6893  0.4994
10392TIP3   OH252590   0.028   4.943   1.132 -0.0454  0.1087 -0.3516
10392TIP3    H152591   0.032   5.034   1.160 -0.1256  0.4023 -1.2713
10392TIP3    H252592  -0.064   4.926   1.116  0.2261  1.1152 -4.0175
10393TIP3   OH252593   2.089   0.259  11.238 -0.0488 -0.0116 -0.0017
10393TIP3    H152594   2.051   0.241  11.152 -1.5556 -0.0645  0.6431
10393TIP3    H252595   2.171   0.209  11.239 -0.6771 -1.1100 -0.9081
10394TIP3   OH252596   0.858   3.523  11.810 -0.5332  0.2790  0.9592
10394TIP3    H152597   0.901   3.602  11.776 -2.2351  1.4484  1.4109
10394TIP3    H252598   0.853   3.464  11.735 -1.8512  1.7670 -0.1675
10395TIP3   OH252599   6.496   4.649  12.027  0.2876 -0.4034  0.9921
10395TIP3    H152600   6.559   4.620  12.092  1.2975 -1.4081 -0.3789
10395TIP3    H252601   6.534   4.729  11.990  3.0316 -3.0012 -2.6349
10396TIP3   OH252602   5.982   4.034  14.613  0.3564 -0.4517  0.1661
10396TIP3    H152603   6.000   4.041  14.706 -0.3918 -1.2372  0.3902
10396TIP3    H252604   5.894   3.997  14.608  0.5593 -0.8570 -0.8418
10397TIP3   OH252605   2.563   3.328  16.854 -0.6591 -0.0881  0.1596
10397TIP3    H152606   2.611   3.360  16.778 -3.4696  2.0217 -0.9088
10397TIP3    H252607   2.591   3.385  16.926 -1.1027  0.7974 -0.3424
10398TIP3   OH252608   5.803   0.345   4.159  0.3169  0.0052  0.5695
10398TIP3    H152609   5.777   0.270   4.213  1.4187  0.0586  1.1972
10398TIP3    H252610   5.891   0.366   4.188 -0.8701  3.2442  2.3098
10399TIP3   OH252611   3.266   1.053   1.860 -0.1567  0.0716 -0.3298
10399TIP3    H152612   3.213   1.048   1.939 -1.0138  0.0088 -0.9033
10399TIP3    H252613   3.352   1.019   1.887  0.5702  2.9519  1.4063
10400TIP3   OH252614   5.582   0.756  11.420 -0.0966 -0.1655  0.6835
10400TIP3    H152615   5.498   0.718  11.445  0.0152 -0.7098  0.2376
10400TIP3    H252616   5.561   0.815  11.347  0.1208 -1.5383 -0.5314
10401TIP3   OH252617   0.009   3.318   4.352 -0.5671 -0.3188 -0.7232
10401TIP3    H152618  -0.037   3.401   4.337 -1.9283 -0.5231  1.7623
10401TIP3    H252619  -0.058   3.259   4.385  1.3410 -0.6106  3.2305
10402TIP3   OH252620   1.169   4.400  12.900 -0.1750  0.4089  0.5324
10402TIP3    H152621   1.209   4.457  12.835 -0.8271 -0.7256 -0.9293
10402TIP3    H252622   1.080   4.385  12.867 -0.4164 -0.4472  1.5183
10403TIP3   OH252623   0.571   3.767  13.075  0.8515  0.3037 -0.1039
10403TIP3    H152624   0.498   3.739  13.130 -0.9330  3.9968 -0.2383
10403TIP3    H252625   0.633   3.806  13.137  1.0547  0.2523 -0.2761
10404TIP3   OH252626   2.564   1.214   3.085  0.2698 -0.0160 -0.2756
10404TIP3    H152627   2.549   1.148   3.017  3.3013 -0.6428 -0.4919
10404TIP3    H252628   2.580   1.295   3.037 -0.0576  0.1084 -0.1771
10405TIP3   OH252629   6.249   0.070  17.251 -0.0314 -0.1965  0.3700
10405TIP3    H152630   6.168   0.095  17.296  0.3767  1.1066  0.4332
10405TIP3    H252631   6.220   0.014  17.179 -1.0115  0.3800  0.2947
10406TIP3   OH252632   5.909   5.515  17.360 -0.0377  0.5736 -0.6518
10406TIP3    H152633   5.827   5.495  17.404  0.8762  0.6919  1.2055
10406TIP3    H252634   5.884   5.534  17.270 -2.0082  0.4118 -0.1804
10407TIP3   OH252635   6.015   6.556   5.651 -0.2221 -0.7052  0.2823
10407TIP3    H152636   5.967   6.473   5.644 -1.9174  0.3366 -0.9615
10407TIP3    H252637   5.959   6.611   5.707 -0.4582  0.4924 -1.0954
10408TIP3   OH252638   2.100   4.284  12.158  0.0241  0.1060 -0.8478
10408TIP3    H152639   2.069   4.361  12.206  1.8718  1.2076 -1.3308
10408TIP3    H252640   2.109   4.314  12.068 -0.7519 -1.1656 -1.3836
10409TIP3   OH252641   5.569   5.823   2.662  0.1374  0.0982 -0.2631
10409TIP3    H152642   5.583   5.853   2.572  2.5348 -0.9774 -0.3354
10409TIP3    H252643   5.497   5.760   2.655 -2.3916  2.8335 -0.6949
10410TIP3   OH252644   0.093   6.701   3.552  0.0075  0.6540 -0.8637
10410TIP3    H152645   0.086   6.645   3.475  1.2688  0.0937 -0.6064
10410TIP3    H252646   0.176   6.748   3.540  0.3563  0.3511  0.2679
10411TIP3   OH252647   1.777   4.323  15.256  0.2822  0.1333  0.0226
10411TIP3    H152648   1.708   4.379  15.291 -0.0306 -0.6162  0.6307
10411TIP3    H252649   1.749   4.234  15.276  1.6849 -0.1769  0.7901
10412TIP3   OH252650   5.368   3.204   5.982  0.4806  0.4361 -0.7712
10412TIP3    H152651   5.371   3.130   5.921  1.0387 -0.7350  0.6472
10412TIP3    H252652   5.439   3.188   6.044 -1.4931  0.3103  1.6200
10413TIP3   OH252653   3.280   1.401  11.720  0.0925 -0.6041 -0.1985
10413TIP3    H152654   3.265   1.345  11.644  0.4305 -0.3241 -0.4760
10413TIP3    H252655   3.217   1.472  11.710  1.4822  0.5471 -1.3405
10414TIP3   OH252656   3.171   5.745   2.153 -0.1266  0.9251  0.0068
10414TIP3    H152657   3.121   5.667   2.129  1.0372 -0.1287  0.8175
10414TIP3    H252658   3.163   5.803   2.078  0.7116 -0.8585 -1.5693
10415TIP3   OH252659   0.358   3.966  15.430  0.8254  0.9232  0.0439
10415TIP3    H152660   0.402   4.034  15.482 -1.7934  2.1422  0.8439
10415TIP3    H252661   0.273   3.955  15.472  0.3741 -1.4105 -1.3279
10416TIP3   OH252662   1.742   5.888   5.278  0.0945 -0.0293  0.1092
10416TIP3    H152663   1.761   5.970   5.233 -1.1725 -0.9978 -2.3629
10416TIP3    H252664   1.810   5.828   5.250 -0.7780 -0.6790 -0.6839
10417TIP3   OH252665   1.844   1.852  12.769 -0.2319  0.2836 -0.2890
10417TIP3    H152666   1.767   1.834  12.824  0.6988 -0.5833  0.7799
10417TIP3    H252667   1.807   1.887  12.688 -1.7807 -0.4924  0.0309
10418TIP3   OH252668   2.477   1.424   1.067 -0.0591  0.0627 -0.4228
10418TIP3    H152669   2.491   1.507   1.022 -0.0857  0.3194  0.0367
10418TIP3    H252670   2.467   1.360   0.996  0.7064  0.3229 -0.7772
10419TIP3   OH252671   2.907   3.737  16.143  0.0569  0.0713 -0.5805
10419TIP3    H152672   2.955   3.818  16.127  0.0021  0.1484 -0.3500
10419TIP3    H252673   2.927   3.683  16.067 -0.8695  0.7514 -1.3235
10420TIP3   OH252674   4.728   6.368  13.418  0.1964 -0.4779 -0.1967
10420TIP3    H152675   4.725   6.379  13.513 -1.4754  0.7587 -0.3529
10420TIP3    H252676   4.703   6.277  13.403  0.1117 -0.5740  0.5277
10421TIP3   OH252677   1.031   0.648  13.944 -0.1430  0.3523  0.1321
10421TIP3    H152678   1.118   0.643  13.982  0.1786 -0.1900 -0.6485
10421TIP3    H252679   1.033   0.586  13.871 -0.6005  1.6431 -1.0319
10422TIP3   OH252680   6.022   0.848   1.701 -0.3733  0.3479  0.3370
10422TIP3    H152681   5.968   0.895   1.764 -0.4161 -0.3840  0.8544
10422TIP3    H252682   6.016   0.901   1.621  0.0644  1.5448  1.0650
10423TIP3   OH252683   5.425   5.299   4.490 -0.3666 -0.4795  0.4433
10423TIP3    H152684   5.443   5.233   4.424 -1.3143 -1.1429  0.8233
10423TIP3    H252685   5.511   5.322   4.526  0.1872  0.0929 -1.1818
10424TIP3   OH252686   4.030   5.279   1.517  0.5642  0.1450 -0.1287
10424TIP3    H152687   4.113   5.328   1.517  0.3526  0.5084 -0.1321
10424TIP3    H252688   4.048   5.202   1.572  1.0363 -0.0116 -0.4928
10425TIP3   OH252689   0.591   2.851   5.064 -0.7160  0.3519  0.1471
10425TIP3    H152690   0.541   2.933   5.064 -0.0829  0.7523  0.6659
10425TIP3    H252691   0.667   2.870   5.010 -0.7833 -0.0374 -0.0860
10426TIP3   OH252692   6.306   0.420   1.476 -0.2971  0.3821  0.0427
10426TIP3    H152693   6.396   0.431   1.506  0.8302 -3.4643 -1.3392
10426TIP3    H252694   6.259   0.386   1.553 -0.2041  0.8502  0.3130
10427TIP3   OH252695   3.046   3.112  15.845  0.6356  0.6080 -0.2459
10427TIP3    H152696   2.957   3.124  15.814 -0.1319 -3.3102 -0.0576
10427TIP3    H252697   3.089   3.196  15.829 -2.4278  1.9164 -2.4536
10428TIP3   OH252698   0.641   2.113   3.082 -0.3760 -0.2349 -0.2270
10428TIP3    H152699   0.598   2.103   3.167 -0.8282  1.8005 -0.1584
10428TIP3    H252700   0.570   2.135   3.022  0.1401 -0.1357 -0.8080
10429TIP3   OH252701   5.795   6.116  11.676 -0.2776  0.3175 -0.0132
10429TIP3    H152702   5.842   6.198  11.658 -0.5254  0.4033 -0.2839
10429TIP3    H252703   5.851   6.070  11.739  0.6759 -0.0248 -1.0666
10430TIP3   OH252704   0.913   4.924  12.122 -0.3417 -0.5256  0.1548
10430TIP3    H152705   0.922   4.989  12.191 -0.2579 -0.3977  0.0247
10430TIP3    H252706   0.882   4.974  12.046  2.2916 -0.1133 -0.7630
10431TIP3   OH252707   1.383   3.817   5.568 -0.3826 -0.1766 -0.0459
10431TIP3    H152708   1.445   3.851   5.632 -0.1951  1.0033 -0.8110
10431TIP3    H252709   1.303   3.868   5.582 -0.5669 -0.3891 -0.3027
10432TIP3   OH252710   2.237   5.965   3.974 -0.7523 -0.7943 -0.1661
10432TIP3    H152711   2.286   6.043   4.001 -0.6043 -0.8486 -0.2791
10432TIP3    H252712   2.303   5.902   3.948 -0.9054 -0.2682 -1.9698
10433TIP3   OH252713   0.202   0.526   5.596  0.1284  0.0450 -0.4951
10433TIP3    H152714   0.202   0.490   5.685 -0.5593 -1.0185 -0.8907
10433TIP3    H252715   0.283   0.494   5.557  1.1812  1.7731  0.1981
10434TIP3   OH252716   5.892   4.595  17.178  0.3189  0.0695 -0.0250
10434TIP3    H152717   5.862   4.664  17.237 -0.3084 -0.0512 -0.1881
10434TIP3    H252718   5.832   4.522  17.195  0.4723 -0.1515 -0.4267
10435TIP3   OH252719   6.276   2.665   1.143 -0.2568 -0.1952  0.1047
10435TIP3    H152720   6.356   2.638   1.098 -1.1832 -1.7982 -0.6566
10435TIP3    H252721   6.283   2.761   1.149  1.1812 -0.2022 -0.9567
10436TIP3   OH252722   4.242   6.193  14.622  0.3738 -0.2068  0.1014
10436TIP3    H152723   4.331   6.163  14.639  0.4556 -0.3852 -0.6063
10436TIP3    H252724   4.200   6.194  14.708  1.4152  1.1034  0.6299
10437TIP3   OH252725   4.794   3.606  16.531  0.3792 -0.4244  0.8194
10437TIP3    H152726   4.707   3.594  16.568  0.4331  1.1548  1.5495
10437TIP3    H252727   4.838   3.522  16.544 -0.8210 -1.0462  0.9819
10438TIP3   OH252728   1.227   1.707   0.175 -0.4162  0.1651 -0.1322
10438TIP3    H152729   1.159   1.660   0.127 -0.6342  0.3331  0.0083
10438TIP3    H252730   1.309   1.682   0.132 -0.4637 -0.8267  0.3209
10439TIP3   OH252731   0.996   0.532  12.285  0.4786  0.3265 -0.5786
10439TIP3    H152732   1.081   0.489  12.287  1.6984  2.6510 -0.0008
10439TIP3    H252733   0.935   0.465  12.319  2.1688 -1.1173 -0.2524
10440TIP3   OH252734   3.962   3.738  14.175 -0.6218  1.0528 -0.0735
10440TIP3    H152735   4.016   3.673  14.220 -0.9145  1.5929  1.0859
10440TIP3    H252736   4.023   3.805  14.146 -0.4982  0.9597 -0.0299
10441TIP3   OH252737   2.280   3.021  15.799 -0.1434  0.2399 -0.2041
10441TIP3    H152738   2.196   3.065  15.793  0.1832  1.0993  1.0358
10441TIP3    H252739   2.336   3.065  15.735 -0.2993  0.4865 -0.1694
10442TIP3   OH252740   6.738   1.405   3.421  0.2671  0.3534 -0.0687
10442TIP3    H152741   6.648   1.435   3.438  0.7079  1.3723  0.5114
10442TIP3    H252742   6.727   1.313   3.395 -1.0483  0.7744 -1.1515
10443TIP3   OH252743   2.760   6.041   5.806 -0.5397 -0.4220  0.4676
10443TIP3    H152744   2.708   6.021   5.728 -1.1453 -2.2855  1.2852
10443TIP3    H252745   2.702   6.020   5.879  0.6631 -0.5712  1.4129
10444TIP3   OH252746   1.051   6.162   0.502  0.1373 -0.3923  0.7343
10444TIP3    H152747   1.074   6.095   0.567  0.8173  0.2762  1.2058
10444TIP3    H252748   1.135   6.201   0.478  0.0005 -1.1798 -1.1867
10445TIP3   OH252749   4.895   5.021   1.453 -0.4836 -0.4264 -0.2696
10445TIP3    H152750   4.846   4.983   1.380  0.8080 -0.7371 -1.0074
10445TIP3    H252751   4.855   4.982   1.531 -0.2300 -2.1130 -0.9357
10446TIP3   OH252752   2.441   0.545  14.006  0.0112  0.2600 -0.2352
10446TIP3    H152753   2.475   0.544  13.917  1.2461  0.0531  0.2144
10446TIP3    H252754   2.417   0.453  14.023 -1.8567  0.5793 -0.9198
10447TIP3   OH252755   3.144   5.478  15.270  0.3322 -0.3895 -0.0953
10447TIP3    H152756   3.095   5.491  15.189  0.8438 -0.4444 -0.4134
10447TIP3    H252757   3.198   5.401  15.254  2.4512  1.1465 -0.6747
10448TIP3   OH252758   3.199   0.248   5.412 -0.1676  0.4838  0.4776
10448TIP3    H152759   3.209   0.153   5.407 -1.6476  0.2082  1.8622
10448TIP3    H252760   3.266   0.276   5.475  1.6511  0.6741 -1.4603
10449TIP3   OH252761   0.341   6.357   0.742 -0.0881 -0.1707  0.3319
10449TIP3    H152762   0.390   6.365   0.660 -2.4168 -1.3847 -1.2875
10449TIP3    H252763   0.390   6.411   0.804  4.0112 -2.2336 -0.7194
10450TIP3   OH252764   2.822   4.034  15.163 -0.0087  0.2725  0.0440
10450TIP3    H152765   2.752   3.981  15.202  1.3024 -0.3412  1.7213
10450TIP3    H252766   2.811   4.024  15.069 -1.0937 -1.2530  0.3040
10451TIP3   OH252767   1.501   2.122   6.589 -0.7936  0.0649 -0.5509
10451TIP3    H152768   1.555   2.197   6.564  1.5562 -0.8021  1.4809
10451TIP3    H252769   1.524   2.053   6.527  0.0194 -0.1007 -0.0834
10452TIP3   OH252770   0.739   0.839  15.910 -0.4086 -0.0090  0.8519
10452TIP3    H152771   0.718   0.750  15.937 -0.8472 -0.3123 -0.4025
10452TIP3    H252772   0.834   0.838  15.897 -0.2443  0.0420  1.9370
10453TIP3   OH252773   0.257   0.749   4.339  0.1426 -0.4720  0.1711
10453TIP3    H152774   0.324   0.751   4.271 -1.6603 -1.3392 -1.7054
10453TIP3    H252775   0.297   0.797   4.412  3.3800 -2.1834 -0.2611
10454TIP3   OH252776   1.444   1.579   0.526  0.2674  0.1161 -0.5252
10454TIP3    H152777   1.412   1.669   0.520 -0.6165 -0.2455 -1.3995
10454TIP3    H252778   1.429   1.555   0.618  1.6789  1.2652  0.0408
10455TIP3   OH252779   5.696   2.536  17.145  0.0233 -0.1227  0.2649
10455TIP3    H152780   5.633   2.464  17.147 -1.0815  0.8033 -0.2369
10455TIP3    H252781   5.761   2.510  17.079 -0.3689 -0.6328  0.0760
10456TIP3   OH252782   0.954   0.838   1.309 -0.1057  0.5569 -0.2667
10456TIP3    H152783   1.028   0.786   1.342 -0.4513 -0.5986 -1.2634
10456TIP3    H252784   0.938   0.902   1.379  1.5858  0.6023  0.1371
10457TIP3   OH252785   2.017   2.384  16.637 -0.0747  0.2205  0.0068
10457TIP3    H152786   2.025   2.442  16.561  0.0739 -0.8171 -0.7946
10457TIP3    H252787   2.031   2.296  16.601 -0.8376 -0.3623  1.0898
10458TIP3   OH252788   0.238   6.006  13.691  0.3901  0.0323 -0.1920
10458TIP3    H152789   0.170   6.071  13.712  1.0700 -0.0052  2.5910
10458TIP3    H252790   0.321   6.052  13.707  0.9338 -0.8136 -0.5126
10459TIP3   OH252791   6.113   3.688   4.518 -0.3817 -0.6993  0.0413
10459TIP3    H152792   6.163   3.729   4.448 -0.4891  1.0507  0.9320
10459TIP3    H252793   6.021   3.704   4.495 -0.4234 -0.3297  0.4474
10460TIP3   OH252794   5.578   0.927   4.218 -0.3447 -0.0751  0.0229
10460TIP3    H152795   5.572   0.834   4.195 -0.2735  0.3420 -1.8015
10460TIP3    H252796   5.658   0.934   4.270 -0.5362 -1.0802  0.4786
10461TIP3   OH252797   6.720   0.572  11.746 -0.1022  0.4820 -0.6302
10461TIP3    H152798   6.792   0.601  11.802  0.4704  0.6923 -1.4468
10461TIP3    H252799   6.671   0.653  11.727 -0.9307  0.2474  0.4185
10462TIP3   OH252800   1.507   2.779   0.952 -0.0925  0.1976  0.0557
10462TIP3    H152801   1.468   2.696   0.979  0.9895 -0.1028  0.8038
10462TIP3    H252802   1.481   2.841   1.020  0.2717  0.1179  0.2747
10463TIP3   OH252803   3.234   5.144  15.811  0.3514  0.0668  0.5423
10463TIP3    H152804   3.286   5.203  15.865  0.7311  0.8277 -0.6133
10463TIP3    H252805   3.171   5.105  15.871 -0.0457  1.8002  1.3041
10464TIP3   OH252806   2.525   4.042  14.959 -0.2401  0.0129 -0.1305
10464TIP3    H152807   2.611   4.047  14.918  0.1183 -1.2772  0.4128
10464TIP3    H252808   2.510   4.129  14.995  1.4207 -0.0940  0.9167
10465TIP3   OH252809   2.599   1.891  12.273 -0.2984  0.1405  0.3716
10465TIP3    H152810   2.659   1.835  12.222 -1.0601  0.5056 -0.9739
10465TIP3    H252811   2.649   1.972  12.287 -0.3124  0.2873 -0.3822
10466TIP3   OH252812   2.417   3.407   2.498 -0.2197 -0.2620  0.2442
10466TIP3    H152813   2.495   3.352   2.492  0.4226  0.6660 -0.2966
10466TIP3    H252814   2.345   3.347   2.515  0.3978 -1.3089 -0.7476
10467TIP3   OH252815   0.710   0.042  15.826  0.1049 -0.1549  0.2452
10467TIP3    H152816   0.647   0.111  15.806 -1.6412 -1.6057  0.5360
10467TIP3    H252817   0.791   0.090  15.848 -1.1770  1.8192  0.9972
10468TIP3   OH252818   6.191   0.864   5.761  0.4926 -0.0833  0.2842
10468TIP3    H152819   6.266   0.805   5.768  0.9813  0.5736  0.6505
10468TIP3    H252820   6.193   0.896   5.671  1.2753  0.7465  0.5903
10469TIP3   OH252821   1.238   5.444   5.181  0.3647 -0.2487  0.1476
10469TIP3    H152822   1.327   5.447   5.217  0.2468 -1.6221  0.6101
10469TIP3    H252823   1.205   5.533   5.193  1.2452 -0.0241  1.1120
10470TIP3   OH252824   2.797   4.668   6.510  0.2376  0.4109  0.3456
10470TIP3    H152825   2.858   4.594   6.514 -0.5516 -0.2381  0.9803
10470TIP3    H252826   2.830   4.731   6.573  0.9802  0.6600 -0.2809
10471TIP3   OH252827   6.503   0.936  12.475  0.3342 -0.1342  0.3128
10471TIP3    H152828   6.573   0.878  12.504  2.1881  1.8554  0.0324
10471TIP3    H252829   6.425   0.904  12.521  1.9012 -0.9321  2.5947
10472TIP3   OH252830   6.746   5.776  12.801  0.6449 -0.4617 -0.1260
10472TIP3    H152831   6.822   5.807  12.750 -0.8865  1.2267 -1.5314
10472TIP3    H252832   6.746   5.682  12.787  1.5335 -0.2990 -1.5226
10473TIP3   OH252833   6.194   0.467   0.581  0.3308 -0.6010  0.1631
10473TIP3    H152834   6.240   0.472   0.497 -1.1671 -0.2689 -0.6774
10473TIP3    H252835   6.173   0.375   0.591 -0.8363 -0.4447 -0.6216
10474TIP3   OH252836   0.780   5.694  12.807  0.6670  0.3917  0.4394
10474TIP3    H152837   0.755   5.726  12.894  0.2939 -0.9633  0.8631
10474TIP3    H252838   0.728   5.747  12.747  0.2342  0.7333  1.0927
10475TIP3   OH252839   3.131   6.408   5.028 -0.1472 -0.4158 -0.1982
10475TIP3    H152840   3.133   6.314   5.044 -0.7092 -0.5252 -0.7412
10475TIP3    H252841   3.060   6.421   4.966 -1.1379  0.5592  1.0735
10476TIP3   OH252842   3.931   5.589   5.616  0.1895 -0.0135  0.0248
10476TIP3    H152843   3.922   5.665   5.558  0.0170  1.0778  1.4461
10476TIP3    H252844   3.855   5.535   5.595 -1.6377  1.8945  1.3896
10477TIP3   OH252845   0.030   4.312  17.053 -0.0250 -0.5380  0.3673
10477TIP3    H152846   0.080   4.389  17.026  0.6867 -0.5509  1.5520
10477TIP3    H252847  -0.050   4.348  17.091 -0.7185 -0.4953 -1.0941
10478TIP3   OH252848   5.558   1.620  11.564 -0.2112 -0.4836 -0.1384
10478TIP3    H152849   5.622   1.550  11.547  0.8111  0.1655  0.8607
10478TIP3    H252850   5.600   1.699  11.531 -1.0271 -0.2232 -0.5556
10479TIP3   OH252851   0.369   3.400  17.265 -0.0743  0.2310 -0.0573
10479TIP3    H152852   0.375   3.363  17.177 -0.2034 -0.2391  0.1309
10479TIP3    H252853   0.358   3.494  17.250  2.4776  0.5341 -0.5086
10480TIP3   OH252854   0.121   5.646  11.607 -0.3967 -0.3922 -0.3683
10480TIP3    H152855   0.201   5.593  11.614 -0.2877 -0.1802  0.0102
10480TIP3    H252856   0.060   5.591  11.557  0.0681 -0.4562 -0.8761
10481TIP3   OH252857   3.747   0.400  15.843  0.4377 -0.5078 -0.0070
10481TIP3    H152858   3.788   0.318  15.867  1.8134  0.8195  2.7220
10481TIP3    H252859   3.776   0.462  15.910 -1.3564  1.9704 -1.3211
10482TIP3   OH252860   2.339   4.786   1.794 -0.0381 -1.2006 -0.1922
10482TIP3    H152861   2.291   4.708   1.823  0.6827 -2.1845 -1.5331
10482TIP3    H252862   2.409   4.752   1.738 -0.0214  0.4299 -1.2443
10483TIP3   OH252863   3.905   1.323  11.982  0.2198  0.3993  0.5896
10483TIP3    H152864   3.901   1.230  11.961 -2.6143  0.6977 -0.5990
10483TIP3    H252865   3.840   1.336  12.050 -0.8206  1.7715 -0.6014
10484TIP3   OH252866   3.622   1.641  11.407  0.1375  0.3411 -0.2409
10484TIP3    H152867   3.533   1.666  11.430  0.0231  1.2885 -1.6303
10484TIP3    H252868   3.653   1.710  11.349  1.8856  0.1673  0.4164
10485TIP3   OH252869   2.313   6.029  12.269  0.0122  0.2332 -0.5186
10485TIP3    H152870   2.283   5.939  12.267  1.7737 -0.3920 -0.6055
10485TIP3    H252871   2.327   6.049  12.361  1.0052 -0.1008 -0.5811
10486TIP3   OH252872   5.798   5.970  17.269  0.0849 -0.0568 -0.0799
10486TIP3    H152873   5.875   5.923  17.239 -1.0191 -1.8963 -0.2023
10486TIP3    H252874   5.787   6.042  17.207  1.8466  0.4268  0.1325
10487TIP3   OH252875   0.889   0.430  14.482  0.1859 -0.1849 -0.0716
10487TIP3    H152876   0.825   0.450  14.413  0.5915  0.7143 -0.1961
10487TIP3    H252877   0.893   0.510  14.534  2.4583  0.3966 -1.0492
10488TIP3   OH252878   1.111   3.411   1.437  0.3989  0.5289  0.5092
10488TIP3    H152879   1.037   3.356   1.461  0.8240  0.5018  1.8227
10488TIP3    H252880   1.157   3.428   1.520  2.2806 -0.0700 -0.3470
10489TIP3   OH252881   3.175   6.591   3.154  0.2914  0.8045  0.6289
10489TIP3    H152882   3.206   6.582   3.064  0.4215  3.3068  0.3571
10489TIP3    H252883   3.082   6.567   3.151  0.2439  1.0788 -0.2368
10490TIP3   OH252884   4.619   4.570  14.246  0.2535 -0.5183 -0.3285
10490TIP3    H152885   4.613   4.478  14.222 -0.7174 -0.0612 -1.9935
10490TIP3    H252886   4.702   4.600  14.210  0.9464 -0.8929  0.8910
10491TIP3   OH252887   5.297   5.919   5.754 -0.0152 -0.2126  0.0970
10491TIP3    H152888   5.207   5.924   5.787  0.4325 -0.6836  1.4679
10491TIP3    H252889   5.344   5.984   5.806  0.1852  1.1021 -1.6234
10492TIP3   OH252890   1.213   4.878  16.750  0.3020 -0.5832 -0.5432
10492TIP3    H152891   1.261   4.796  16.759  3.4960  1.1522  0.1063
10492TIP3    H252892   1.248   4.917  16.669  0.4064  0.9789  0.2086
10493TIP3   OH252893   3.601   1.006   1.668 -0.0352  0.0658  0.0926
10493TIP3    H152894   3.547   1.009   1.589 -0.2305 -0.2583  0.2096
10493TIP3    H252895   3.675   1.063   1.648  0.6799 -1.1434 -0.8979
10494TIP3   OH252896   4.124   5.840   4.019 -0.1420 -0.6860  0.8745
10494TIP3    H152897   4.126   5.913   3.958  0.1255 -0.3377  1.2964
10494TIP3    H252898   4.112   5.763   3.963  0.5250 -0.4194  0.3369
10495TIP3   OH252899   4.068   0.689  14.733  0.2511  0.8645  0.2380
10495TIP3    H152900   4.085   0.596  14.744 -0.0073  0.6343 -1.1352
10495TIP3    H252901   4.029   0.716  14.816  0.1469 -0.2904  0.5842
10496TIP3   OH252902   2.130   1.137   5.156  0.7173 -0.7097  0.0279
10496TIP3    H152903   2.101   1.056   5.200 -1.0903  0.8696  1.9912
10496TIP3    H252904   2.223   1.143   5.178  0.3937 -1.1905  1.7463
10497TIP3   OH252905   5.546   0.166  14.343 -0.2700  0.3255 -0.1283
10497TIP3    H152906   5.641   0.169  14.350 -0.0820 -0.2655 -1.9336
10497TIP3    H252907   5.525   0.073  14.335 -0.8363  0.5377 -1.3672
10498TIP3   OH252908   6.724   1.682  12.855 -0.0265 -0.1004 -0.1360
10498TIP3    H152909   6.655   1.632  12.898 -0.5002  0.6150 -0.0574
10498TIP3    H252910   6.792   1.692  12.921 -0.5804  0.6509  0.3397
10499TIP3   OH252911   2.496   2.665  17.109 -0.5450  0.4265 -0.2494
10499TIP3    H152912   2.438   2.609  17.058 -0.8170  0.2702  0.2337
10499TIP3    H252913   2.502   2.624  17.195  2.2339 -0.9164 -0.9837
10500TIP3   OH252914   2.471   3.856  12.615  0.0360 -0.9614  0.2756
10500TIP3    H152915   2.401   3.857  12.680 -0.5825 -2.0309 -0.3450
10500TIP3    H252916   2.450   3.928  12.556  0.6501  0.0738  1.2756
10501TIP3   OH252917   2.661   4.319  13.728 -0.1326  0.0502  0.0696
10501TIP3    H152918   2.734   4.315  13.790 -0.0525  0.6198  0.0183
10501TIP3    H252919   2.689   4.263  13.655  0.2271  0.2129  0.0780
10502TIP3   OH252920   3.938   1.585   6.048 -0.7218 -0.2458 -0.6882
10502TIP3    H152921   3.994   1.632   6.110 -1.0041 -0.9142  0.1008
10502TIP3    H252922   3.995   1.519   6.009 -0.8199 -0.5840 -0.2705
10503TIP3   OH252923   6.053   1.978   3.351 -0.0283  0.5789 -0.6408
10503TIP3    H152924   5.968   2.002   3.388 -0.7219 -2.1942 -0.2567
10503TIP3    H252925   6.053   2.021   3.265 -1.4154  1.3627 -0.2987
10504TIP3   OH252926   4.649   1.007   3.053  0.3320 -0.6663 -0.2547
10504TIP3    H152927   4.607   0.964   2.978  0.8154  0.8013 -1.4007
10504TIP3    H252928   4.703   0.938   3.092 -0.2333 -1.5626 -0.9916
10505TIP3   OH252929   0.731   4.737  14.279 -0.0502  0.3927  0.2226
10505TIP3    H152930   0.723   4.650  14.239  0.4013 -0.3416  1.6660
10505TIP3    H252931   0.825   4.746  14.296 -0.0590  1.2945 -0.1700
10506TIP3   OH252932   4.801   6.155  15.712 -0.1381 -0.1550  0.3222
10506TIP3    H152933   4.881   6.200  15.737  0.4091 -1.2455  0.6194
10506TIP3    H252934   4.764   6.208  15.642 -0.4608  1.6963  1.8229
10507TIP3   OH252935   5.074   5.249   0.210  0.7817  0.4501 -0.2483
10507TIP3    H152936   5.144   5.283   0.265  0.8612  0.8727 -0.6069
10507TIP3    H252937   5.104   5.263   0.121  0.6242 -0.1716 -0.4071
10508TIP3   OH252938   4.590   0.046   0.020 -0.4481 -0.1442 -0.0780
10508TIP3    H152939   4.507   0.092   0.033  0.4971  1.2832  1.2225
10508TIP3    H252940   4.615   0.066  -0.070 -2.0417 -1.5706 -0.9058
10509TIP3   OH252941   6.175   4.862   0.344 -0.1402 -0.0445 -0.4106
10509TIP3    H152942   6.208   4.951   0.339 -1.3915  0.4480 -0.2111
10509TIP3    H252943   6.079   4.871   0.345 -0.2851 -1.3253  0.4740
10510TIP3   OH252944   1.700   0.822   0.845 -0.8019  1.2414  0.3296
10510TIP3    H152945   1.776   0.782   0.803 -1.1305  0.1631  0.7175
10510TIP3    H252946   1.675   0.893   0.786 -1.3588 -0.3240 -1.4589
10511TIP3   OH252947   0.005   5.234  13.575 -0.5314  0.2939 -0.4636
10511TIP3    H152948   0.011   5.299  13.645  0.9798  0.1011 -0.3846
10511TIP3    H252949  -0.049   5.164  13.612  0.8758 -0.1605  0.8391
10512TIP3   OH252950   1.978   0.287   1.661  0.0598 -0.6571  0.1520
10512TIP3    H152951   1.934   0.283   1.576  2.5202  1.1968 -1.3626
10512TIP3    H252952   1.964   0.376   1.692  0.9090 -0.6875  0.6589
10513TIP3   OH252953   0.018   6.094   0.064 -0.0644 -0.5443 -0.6323
10513TIP3    H152954   0.073   6.023   0.098  2.1544  0.4787 -1.8281
10513TIP3    H252955  -0.012   6.062  -0.021  1.6265  0.1949 -1.5518
10514TIP3   OH252956   5.194   2.783   4.058 -0.7397  0.6133  0.4688
10514TIP3    H152957   5.107   2.798   4.094 -1.9040 -1.2627 -1.3177
10514TIP3    H252958   5.217   2.866   4.015 -0.5479  1.9072  2.9065
10515TIP3   OH252959   0.085   6.121  16.791  0.0430 -0.1989 -0.4240
10515TIP3    H152960   0.015   6.158  16.737 -0.3741 -0.4853 -0.0828
10515TIP3    H252961   0.112   6.193  16.848  1.1368  0.4021 -1.6263
10516TIP3   OH252962   2.908   2.405  12.462  1.0784  0.1180  0.8545
10516TIP3    H152963   2.880   2.431  12.550 -0.7131 -0.0163  0.3749
10516TIP3    H252964   2.913   2.487  12.413 -0.0657  0.0133  0.5363
10517TIP3   OH252965   0.687   5.757  16.033 -0.2657  0.9241  0.4841
10517TIP3    H152966   0.593   5.760  16.014 -0.5852 -0.0045  1.7161
10517TIP3    H252967   0.699   5.820  16.104  0.1968  1.6245 -0.2130
10518TIP3   OH252968   4.992   3.772   1.333  0.4264 -0.1915 -0.3818
10518TIP3    H152969   4.970   3.763   1.425 -1.4583 -1.0632 -0.8752
10518TIP3    H252970   5.087   3.772   1.331  0.5039 -0.4716  1.5199
10519TIP3   OH252971   3.170   6.464  13.091  0.7420 -0.3410 -0.0271
10519TIP3    H152972   3.263   6.441  13.099  0.2982 -1.9062  1.2438
10519TIP3    H252973   3.154   6.468  12.997  1.5320 -2.6967 -0.3252
10520TIP3   OH252974   3.494   0.818   3.331  0.0320  0.0159  0.0267
10520TIP3    H152975   3.502   0.756   3.259 -0.7900  0.4335 -0.4381
10520TIP3    H252976   3.413   0.865   3.313 -0.0557  0.2922  1.1030
10521TIP3   OH252977   0.445   3.301   1.363  0.3326  0.2019 -0.1994
10521TIP3    H152978   0.410   3.385   1.332  0.8330  0.3189 -0.4589
10521TIP3    H252979   0.404   3.288   1.448 -1.4884 -0.3814 -1.1123
10522TIP3   OH252980   4.176   5.051  12.103 -0.6315 -0.3571 -0.0369
10522TIP3    H152981   4.188   5.006  12.019  1.3299  1.0521 -0.5847
10522TIP3    H252982   4.138   4.984  12.160 -0.4679 -1.8542 -1.5841
10523TIP3   OH252983   0.400   5.282   0.328 -1.3850 -0.1209 -0.3040
10523TIP3    H152984   0.363   5.337   0.397 -1.4751 -0.4040 -0.1217
10523TIP3    H252985   0.325   5.256   0.275 -1.3419 -0.0632 -0.3938
10524TIP3   OH252986   3.822   0.609   2.643 -0.2385  0.1432  0.1725
10524TIP3    H152987   3.759   0.679   2.624 -0.2983  0.1815  0.5082
10524TIP3    H252988   3.868   0.596   2.560 -0.2685  0.5367  0.0905
10525TIP3   OH252989   3.347   1.924  13.027 -0.0665 -0.0072 -0.6118
10525TIP3    H152990   3.403   1.855  12.992  0.4047 -0.5490  1.0985
10525TIP3    H252991   3.284   1.942  12.958  0.1207 -1.7796 -1.2862
10526TIP3   OH252992   6.200   4.204  14.158  0.4846  0.2454 -0.1422
10526TIP3    H152993   6.192   4.206  14.254  2.1653  1.1242  0.0172
10526TIP3    H252994   6.248   4.123  14.140 -1.1881 -0.7411 -0.4145
10527TIP3   OH252995   3.110   3.662   2.094 -0.1387  0.4798 -0.2456
10527TIP3    H152996   3.090   3.751   2.125 -2.3861  0.6381 -1.8974
10527TIP3    H252997   3.166   3.676   2.018  2.1380  0.2643  1.2993
10528TIP3   OH252998   2.084   4.420   4.989  0.0719 -0.3470  0.0646
10528TIP3    H152999   2.097   4.461   5.075  1.5492 -0.5328 -0.0485
10528TIP3    H253000   2.164   4.439   4.941  0.4757 -2.6099 -0.2943
10529TIP3   OH253001   5.164   5.445  14.283 -0.2957 -0.0906  0.6171
10529TIP3    H153002   5.226   5.456  14.212  0.1930  0.8095  1.1685
10529TIP3    H253003   5.180   5.356  14.315 -0.7389 -0.6208 -0.5799
10530TIP3   OH253004   6.454   1.615   4.662  0.2715  0.3333  0.2724
10530TIP3    H153005   6.367   1.654   4.660 -0.9557 -2.1273  1.2366
10530TIP3    H253006   6.494   1.650   4.742 -0.8693 -0.4558  1.2236
10531TIP3   OH253007   1.104   2.454  16.701  0.7157  0.3657 -0.4910
10531TIP3    H153008   1.057   2.449  16.617  0.7780  0.2845 -0.5208
10531TIP3    H253009   1.133   2.545  16.706  0.6772  0.3810 -0.5386
10532TIP3   OH253010   5.553   1.217   4.735 -0.3791  0.0674 -0.1729
10532TIP3    H153011   5.527   1.125   4.744 -2.0117  0.5507  0.5633
10532TIP3    H253012   5.645   1.220   4.761 -0.8160 -1.0822  1.6890
10533TIP3   OH253013   4.282   6.569   0.876  0.3491  0.2583  0.2057
10533TIP3    H153014   4.202   6.581   0.825  1.3979  1.5302 -1.2051
10533TIP3    H253015   4.334   6.507   0.825  0.2974 -0.5884  1.1333
10534TIP3   OH253016   0.127   0.257  14.106 -0.0222 -0.4941  0.4980
10534TIP3    H153017   0.085   0.325  14.054  0.7307 -0.0509  0.4458
10534TIP3    H253018   0.089   0.175  14.076  1.6241 -0.4365 -2.0259
10535TIP3   OH253019   6.652   2.832   1.447 -0.0635 -0.0174 -0.2528
10535TIP3    H153020   6.650   2.834   1.542  1.0653  1.5944 -0.2184
10535TIP3    H253021   6.611   2.749   1.424 -1.3273  0.0373  1.5803
10536TIP3   OH253022   6.162   0.513  16.186  0.2582  0.2332  0.1938
10536TIP3    H153023   6.121   0.600  16.186 -0.1604  0.0444 -0.6224
10536TIP3    H253024   6.222   0.515  16.111  1.0875  0.1887  0.8317
10537TIP3   OH253025   4.467   1.853   4.573 -0.3044 -0.2088 -0.0539
10537TIP3    H153026   4.521   1.877   4.498 -0.1529 -1.1491 -0.2554
10537TIP3    H253027   4.517   1.785   4.617 -0.9952 -0.5707  0.1727
10538TIP3   OH253028   3.093   5.149  12.451 -0.2249  0.4179 -0.0860
10538TIP3    H153029   3.093   5.114  12.362  0.8594 -0.1854  0.1313
10538TIP3    H253030   3.120   5.076  12.506  1.2178  1.3168  0.4825
10539TIP3   OH253031   1.299   5.401  17.094 -0.2171 -0.2725  0.2857
10539TIP3    H153032   1.341   5.315  17.102  0.3350 -0.1160 -0.6900
10539TIP3    H253033   1.335   5.453  17.166 -0.6385 -0.8865  0.9454
10540TIP3   OH253034   1.729   1.700   3.995  0.3500 -0.1035  0.2748
10540TIP3    H153035   1.751   1.750   4.074 -1.1669  0.8458  0.1227
10540TIP3    H253036   1.642   1.729   3.971 -1.3105 -3.8663  1.0116
10541TIP3   OH253037   1.421   1.889   5.318  0.5034 -0.8720  0.1155
10541TIP3    H153038   1.328   1.870   5.320  0.5787 -1.4203 -1.0927
10541TIP3    H253039   1.436   1.933   5.235  0.9601  1.3017  1.2563
10542TIP3   OH253040   4.898   4.005   1.809  0.6055  0.2684 -0.1097
10542TIP3    H153041   4.987   4.031   1.832  0.5635  0.6361 -0.3445
10542TIP3    H253042   4.861   4.083   1.766  0.1726  0.1201 -0.0098
10543TIP3   OH253043   6.281   5.170   0.893 -0.4440  0.2006  0.0445
10543TIP3    H153044   6.335   5.103   0.852  1.1021  0.3624  1.6843
10543TIP3    H253045   6.249   5.223   0.820  0.9806 -0.3789 -1.0471
10544TIP3   OH253046   2.293   0.203  12.922  0.0928 -0.1292 -0.0046
10544TIP3    H153047   2.241   0.144  12.867  0.0372  1.1340 -1.3542
10544TIP3    H253048   2.268   0.180  13.011 -2.2251 -0.0884 -0.5806
10545TIP3   OH253049   0.609   5.355  11.427  0.1917 -0.1226 -0.7269
10545TIP3    H153050   0.590   5.417  11.497  0.4595 -0.2577 -0.5330
10545TIP3    H253051   0.535   5.363  11.367  0.7336  1.1516 -1.2530
10546TIP3   OH253052   1.247   1.300   1.086  0.6375 -0.4368 -0.1228
10546TIP3    H153053   1.224   1.252   1.166 -0.9515 -1.6537 -1.2516
10546TIP3    H253054   1.163   1.331   1.052  1.3409  0.4414 -1.1039
10547TIP3   OH253055   2.486   5.121   0.868 -0.5152 -0.2089 -0.2744
10547TIP3    H153056   2.517   5.117   0.958  0.3260 -0.0168 -0.5469
10547TIP3    H253057   2.456   5.211   0.857  0.9757  0.2631 -0.6827
10548TIP3   OH253058   5.188   6.505  16.817  0.0165  0.1405  0.0576
10548TIP3    H153059   5.118   6.451  16.783 -0.7429  1.2830 -0.2665
10548TIP3    H253060   5.144   6.576  16.863  0.9795  0.3876  0.6423
10549TIP3   OH253061   1.017   6.091   3.984  0.1690 -0.4271 -0.0944
10549TIP3    H153062   1.071   6.169   3.970  0.6981 -0.7695  0.0370
10549TIP3    H253063   1.073   6.032   4.034 -0.4886 -0.5995  0.4469
10550TIP3   OH253064   6.333   4.726  13.727 -0.3648  0.2141 -0.7420
10550TIP3    H153065   6.300   4.677  13.803 -1.1740 -0.3248 -1.4316
10550TIP3    H253066   6.258   4.775  13.695  0.3504  1.6743 -0.2761
10551TIP3   OH253067   2.755   5.015  16.154  0.2703 -0.1711 -0.0035
10551TIP3    H153068   2.735   5.101  16.117  0.4976  0.4299  1.2099
10551TIP3    H253069   2.832   4.985  16.105  1.2131  1.0769  0.6347
10552TIP3   OH253070   4.479   5.265  14.039 -0.2650  0.4564  0.0447
10552TIP3    H153071   4.510   5.350  14.006  1.0245  0.3254  0.8643
10552TIP3    H253072   4.553   5.230  14.088 -1.4629 -0.2392  1.4290
10553TIP3   OH253073   6.542   4.706   5.432 -0.2533  0.3155 -0.1255
10553TIP3    H153074   6.483   4.781   5.419 -0.5007  0.2338  0.5013
10553TIP3    H253075   6.625   4.735   5.394 -0.1993  1.1063  0.5690
10554TIP3   OH253076   5.693   3.122   5.799 -0.9364 -0.2627 -0.1237
10554TIP3    H153077   5.724   3.043   5.842 -2.3024 -0.0874  1.2466
10554TIP3    H253078   5.723   3.114   5.708  0.9841 -1.1984  0.5618
10555TIP3   OH253079   3.420   3.856  14.780  0.2426  0.7361 -0.7497
10555TIP3    H153080   3.343   3.913  14.788 -0.6735 -0.5517 -0.0198
10555TIP3    H253081   3.494   3.916  14.772 -0.2103  2.1998  3.6524
10556TIP3   OH253082   6.740   0.611   3.198 -0.5989 -0.2193  0.1127
10556TIP3    H153083   6.834   0.601   3.186 -0.4729  1.7731 -0.8709
10556TIP3    H253084   6.702   0.534   3.154  0.5209 -0.8053  0.1262
10557TIP3   OH253085   2.438   2.801   6.467 -0.0905 -0.3384 -0.2758
10557TIP3    H153086   2.429   2.706   6.458 -1.4596 -0.2080 -0.4451
10557TIP3    H253087   2.363   2.827   6.520  0.5629  0.5904  0.2121
10558TIP3   OH253088   0.740   4.914   0.357 -0.3008  0.1237  0.5241
10558TIP3    H153089   0.812   4.954   0.309  0.0704 -0.7028  0.3852
10558TIP3    H253090   0.679   4.986   0.373  0.7348  0.9227  1.0075
10559TIP3   OH253091   2.330   1.675   0.594 -0.0344 -0.0359  0.0950
10559TIP3    H153092   2.299   1.730   0.666 -2.5135  0.3175 -1.1278
10559TIP3    H253093   2.328   1.733   0.518  3.0336 -0.2411 -0.2779
10560TIP3   OH253094   0.516   4.056   0.556 -0.5613  0.0092  0.7129
10560TIP3    H153095   0.520   3.961   0.570  0.4039  0.0551  0.7819
10560TIP3    H253096   0.529   4.094   0.643  1.2928  0.2226  0.3911
10561TIP3   OH253097   6.068   2.182  14.743 -0.4275  0.2419  0.3778
10561TIP3    H153098   6.060   2.237  14.666 -0.8285  0.6218  0.6853
10561TIP3    H253099   6.159   2.152  14.742 -0.6244 -0.3383 -0.6249
10562TIP3   OH253100   1.756   6.351   1.185  0.1505  0.4010  0.3517
10562TIP3    H153101   1.703   6.336   1.263  0.0176 -1.1206 -0.0060
10562TIP3    H253102   1.816   6.421   1.210  0.0878 -0.0368  1.8072
10563TIP3   OH253103   2.325   1.496  16.017  0.2070 -0.2307  0.1332
10563TIP3    H153104   2.287   1.484  16.104 -1.3100 -1.0008 -0.5917
10563TIP3    H253105   2.328   1.408  15.979 -1.0905  0.2849 -1.3127
10564TIP3   OH253106   2.190   1.730   4.249 -0.0964 -0.3561  0.1877
10564TIP3    H153107   2.218   1.819   4.229 -1.6031  0.4116  1.2391
10564TIP3    H253108   2.271   1.683   4.267  0.6844  1.0172  0.4504
10565TIP3   OH253109   0.473   5.979   3.135 -0.1812 -0.5961  0.2999
10565TIP3    H153110   0.507   5.946   3.218 -0.6174 -2.2828 -0.1505
10565TIP3    H253111   0.501   6.071   3.132  0.7151 -0.7886  1.8229
10566TIP3   OH253112   0.487   1.506  13.435 -0.4460 -0.5197  0.5634
10566TIP3    H153113   0.394   1.489  13.451 -0.2177 -0.7403  1.7864
10566TIP3    H253114   0.495   1.510  13.340 -1.5784 -1.2125  0.4188
10567TIP3   OH253115   4.809   4.840   2.448 -0.1374  0.1780 -0.3396
10567TIP3    H153116   4.780   4.796   2.368 -1.4421 -0.3436  0.4019
10567TIP3    H253117   4.770   4.927   2.444  2.0224  1.1964 -1.5509
10568TIP3   OH253118   1.181   6.052   4.795  0.1870  0.1305 -0.0595
10568TIP3    H153119   1.169   5.983   4.730  3.1363 -0.7891  0.2204
10568TIP3    H253120   1.117   6.032   4.863 -1.1869 -0.4031 -1.4470
10569TIP3   OH253121   6.281   6.029   5.120  0.1027 -0.0282 -0.0378
10569TIP3    H153122   6.226   6.106   5.137  1.2053  0.6396  0.6457
10569TIP3    H253123   6.327   6.014   5.202 -0.6584 -1.9305  0.1038
10570TIP3   OH253124   0.971   3.797  13.431  0.5223  0.1896 -0.4785
10570TIP3    H153125   0.889   3.822  13.389  0.2483 -1.2706 -0.8914
10570TIP3    H253126   0.948   3.720  13.483  1.9190 -1.2489 -1.8784
10571TIP3   OH253127   0.853   0.683   1.666 -0.4729  0.0378 -0.0169
10571TIP3    H153128   0.793   0.683   1.741 -0.4777  0.3457 -0.0222
10571TIP3    H253129   0.835   0.600   1.622  0.9370 -1.1313  1.4589
10572TIP3   OH253130   0.230   3.750  10.569  0.0366 -0.1910  0.0229
10572TIP3    H153131   0.177   3.689  10.518  2.6973 -2.2621 -0.4569
10572TIP3    H253132   0.293   3.785  10.507  1.1746 -0.1629  1.1549
10573TIP3   OH253133   3.984   6.504  13.193  0.4499  0.3874 -0.2762
10573TIP3    H153134   4.023   6.496  13.280 -0.5311 -0.9312  0.0820
10573TIP3    H253135   4.037   6.570  13.149  0.0883  2.1748  1.7888
10574TIP3   OH253136   1.385   1.987  13.923 -0.2915  0.3210  0.0210
10574TIP3    H153137   1.410   1.957  14.010  2.0177  1.0699 -0.3005
10574TIP3    H253138   1.347   2.074  13.937 -1.5400 -0.2602  0.3978
10575TIP3   OH253139   0.909   0.826   2.280 -0.2854  0.0093 -0.1503
10575TIP3    H153140   0.919   0.737   2.246 -0.1151  0.5618 -1.6356
10575TIP3    H253141   0.949   0.823   2.366 -2.2434 -1.9017  0.7949
10576TIP3   OH253142   3.674   4.336  15.627 -0.7082 -0.3521 -0.1997
10576TIP3    H153143   3.726   4.261  15.600  2.5552  1.2573  1.0387
10576TIP3    H253144   3.641   4.373  15.545 -1.1117 -2.2092 -0.9255
10577TIP3   OH253145   5.109   6.309  12.677  0.8881 -0.1630 -0.4916
10577TIP3    H153146   5.084   6.393  12.637 -0.5543  1.3467  3.1671
10577TIP3    H253147   5.134   6.332  12.766 -2.6165 -3.8729  1.7737
10578TIP3   OH253148   5.613   1.012  12.425  0.7088  0.2089 -0.3250
10578TIP3    H153149   5.571   1.091  12.390  1.7412  1.1898  0.5785
10578TIP3    H253150   5.610   1.023  12.520  1.4429 -0.5198 -0.2056
10579TIP3   OH253151   1.890   1.220   2.617  1.0879  0.0703 -0.3622
10579TIP3    H153152   1.843   1.242   2.536  0.8590 -0.8103 -0.4754
10579TIP3    H253153   1.947   1.147   2.592  0.1624 -0.9914  0.5343
10580TIP3   OH253154   1.707   1.307  13.167  0.2740 -0.3706  0.5369
10580TIP3    H153155   1.766   1.381  13.181 -1.1755  0.7028  1.3475
10580TIP3    H253156   1.686   1.276  13.255  0.1921 -1.1912  0.2381
10581TIP3   OH253157   2.582   5.940  11.828  0.0951 -0.0091  0.2749
10581TIP3    H153158   2.569   5.938  11.733 -0.1817 -0.6079  0.3202
10581TIP3    H253159   2.529   5.867  11.861 -0.2755  0.5546  0.9493
10582TIP3   OH253160   6.220   0.944   1.478 -0.0844 -0.0547 -0.1638
10582TIP3    H153161   6.249   0.853   1.475  0.2441  0.0231  0.4215
10582TIP3    H253162   6.300   0.995   1.488 -0.3438  0.2137  0.7206
10583TIP3   OH253163   0.277   5.516   4.261  0.1595  0.2718  0.1271
10583TIP3    H153164   0.186   5.493   4.241 -0.7917  0.4262  3.6034
10583TIP3    H253165   0.323   5.432   4.261 -0.3779 -0.0299  0.0321
10584TIP3   OH253166   2.528   0.327  10.918 -0.6323 -0.0201 -0.5443
10584TIP3    H153167   2.462   0.283  10.970  0.6341  0.8986  2.0369
10584TIP3    H253168   2.584   0.257  10.884  0.7967 -0.6288  2.7045
10585TIP3   OH253169   2.214   1.003  10.599 -0.0932 -0.2745  0.3363
10585TIP3    H153170   2.178   0.970  10.517 -2.1762  3.0036 -0.2566
10585TIP3    H253171   2.230   0.924  10.652 -0.3110 -2.3820 -2.5018
10586TIP3   OH253172   1.990   2.803  10.799  0.3521  0.3147 -0.5078
10586TIP3    H153173   1.944   2.838  10.875 -0.3408 -0.6535 -0.4574
10586TIP3    H253174   2.007   2.879  10.744 -3.2599  0.5820 -1.5521
10587TIP3   OH253175   1.878   5.389  15.224 -0.2959  0.7649 -0.1796
10587TIP3    H153176   1.902   5.297  15.209  0.9437  0.3681  3.3574
10587TIP3    H253177   1.962   5.435  15.230 -0.7987  1.6031  0.7769
10588TIP3   OH253178   2.704   4.529  13.981 -0.6533 -0.1117 -0.0164
10588TIP3    H153179   2.610   4.526  14.002 -0.5349  1.3548  0.8543
10588TIP3    H253180   2.743   4.463  14.037 -0.8856  0.9209  1.4235
10589TIP3   OH253181   0.223   1.580  12.806  0.0498 -0.1174  0.0041
10589TIP3    H153182   0.207   1.504  12.862 -0.0810  0.5985  0.9678
10589TIP3    H253183   0.147   1.637  12.819 -0.2137 -0.1499 -1.2869
10590TIP3   OH253184   2.526   0.103   6.902  0.3782  0.4839 -0.1520
10590TIP3    H153185   2.469   0.027   6.894  0.5441  0.3392  0.0621
10590TIP3    H253186   2.614   0.067   6.911  0.2298  0.5921  2.6640
10591TIP3   OH253187   5.783   3.560   5.496  0.1201  0.3878 -0.3044
10591TIP3    H153188   5.866   3.566   5.449  0.1620  1.6107 -0.0913
10591TIP3    H253189   5.801   3.597   5.582 -0.0464 -1.4910  0.5910
10592TIP3   OH253190   5.059   3.580  11.802  0.1493 -0.0067 -0.1083
10592TIP3    H153191   5.087   3.580  11.710  0.6435 -0.2706  0.0381
10592TIP3    H253192   4.971   3.617  11.800 -0.3502 -1.1727 -0.8411
10593TIP3   OH253193   2.863   1.081  13.263  0.3271  0.2146 -0.7238
10593TIP3    H153194   2.776   1.123  13.262 -0.1070 -0.6666 -1.5006
10593TIP3    H253195   2.916   1.137  13.320 -0.9354  0.4165  0.3066
10594TIP3   OH253196   5.956   0.616   1.553  0.0613 -0.6323  0.4480
10594TIP3    H153197   5.950   0.650   1.464 -0.3180 -0.9169  0.3640
10594TIP3    H253198   5.994   0.688   1.603  1.8959 -1.0576 -0.2585
10595TIP3   OH253199   5.555   5.958  14.640 -0.5134  0.3423 -0.0783
10595TIP3    H153200   5.471   5.912  14.643  0.1900 -0.9439  1.1860
10595TIP3    H253201   5.614   5.904  14.693  1.4443  0.5294 -1.9075
10596TIP3   OH253202   2.090   2.111  14.684  0.2560 -0.2165  0.1341
10596TIP3    H153203   2.005   2.153  14.674 -0.0262 -0.9518 -0.7340
10596TIP3    H253204   2.071   2.017  14.677  0.9997 -0.4445  1.0197
10597TIP3   OH253205   0.355   3.151  12.863  0.6336 -0.1974 -0.4078
10597TIP3    H153206   0.278   3.147  12.807 -0.2371  0.0022  0.7380
10597TIP3    H253207   0.339   3.086  12.931 -0.4520  2.5105  2.1286
10598TIP3   OH253208   0.179   0.442   1.287  0.0912 -0.2750  0.3432
10598TIP3    H153209   0.261   0.412   1.249  0.4008  1.0315 -0.0804
10598TIP3    H253210   0.139   0.363   1.324  1.5104 -0.9416  0.5297
10599TIP3   OH253211   5.010   3.427   0.418  0.3431 -0.1339 -0.5150
10599TIP3    H153212   5.028   3.406   0.326 -0.3684 -0.5724 -0.5661
10599TIP3    H253213   5.087   3.475   0.447  0.6125 -0.0559 -1.3212
10600TIP3   OH253214   0.031   0.879   0.651 -0.4543  0.0217  0.8192
10600TIP3    H153215   0.073   0.945   0.596  0.8232  0.3614  2.1519
10600TIP3    H253216  -0.054   0.917   0.674 -0.3836  0.5050  0.3008
10601TIP3   OH253217   6.078   3.767  15.435  0.2959  0.0280 -0.7330
10601TIP3    H153218   6.108   3.750  15.524 -0.3763 -0.3802 -0.5776
10601TIP3    H253219   6.128   3.705  15.381 -1.1958 -1.6221 -0.3220
10602TIP3   OH253220   0.432   2.082   1.949 -0.0779  0.0197  0.2762
10602TIP3    H153221   0.454   2.024   1.876 -0.3937 -0.6456  0.6940
10602TIP3    H253222   0.485   2.051   2.022  0.4721  0.8821  0.2639
10603TIP3   OH253223   5.484   0.750   5.134 -0.0953 -0.1031  0.6932
10603TIP3    H153224   5.496   0.827   5.078  1.0047 -0.2073  0.7623
10603TIP3    H253225   5.430   0.780   5.206  0.1947  0.5707  0.6336
10604TIP3   OH253226   4.808   1.082   4.714  0.4498 -0.2892 -0.0732
10604TIP3    H153227   4.764   1.136   4.648 -0.2305  1.7279  1.9133
10604TIP3    H253228   4.864   1.024   4.663 -2.4013 -1.0877 -2.6045
10605TIP3   OH253229   0.898   1.546   2.717 -0.4736 -0.3029  0.1734
10605TIP3    H153230   0.839   1.609   2.758  1.0657  1.7845 -0.6444
10605TIP3    H253231   0.962   1.525   2.785  0.7726  1.4416 -0.3744
10606TIP3   OH253232   2.659   4.414   5.088 -1.0523 -0.0509 -0.0427
10606TIP3    H153233   2.639   4.496   5.133 -0.6201  0.6688 -1.1048
10606TIP3    H253234   2.751   4.399   5.106 -0.9638  0.0592 -0.3918
10607TIP3   OH253235   3.405   6.295   2.181  0.2787  0.4429  0.1083
10607TIP3    H153236   3.482   6.340   2.147  0.0464 -1.6844 -3.7250
10607TIP3    H253237   3.438   6.212   2.215 -0.0105  0.8663  1.4909
10608TIP3   OH253238   3.962   2.230   4.115 -0.0731 -0.0411  0.3679
10608TIP3    H153239   4.017   2.238   4.192 -0.0053  0.7132  0.2402
10608TIP3    H253240   3.899   2.161   4.138 -0.7295  0.9004  1.4988
10609TIP3   OH253241   4.559   5.389  16.671 -0.0878 -0.8963 -0.2246
10609TIP3    H153242   4.498   5.463  16.674  1.1574  0.2177 -1.0360
10609TIP3    H253243   4.523   5.325  16.733 -0.7258  0.7577  1.1964
10610TIP3   OH253244   4.177   5.075  16.421  0.1418  0.7675  0.1718
10610TIP3    H153245   4.165   5.121  16.504 -2.0233 -0.5265  0.6537
10610TIP3    H253246   4.188   4.984  16.446 -0.0648  0.4236 -0.9493
10611TIP3   OH253247   5.710   4.432   5.524  0.3524 -0.3008  0.0637
10611TIP3    H153248   5.653   4.502   5.555  0.4132 -0.4435  0.5145
10611TIP3    H253249   5.785   4.476   5.487  0.6542 -0.1301  0.8622
10612TIP3   OH253250   4.673   6.643  15.519  0.7872  0.1646  0.1939
10612TIP3    H153251   4.606   6.574  15.512  1.4253 -0.3880 -0.6441
10612TIP3    H253252   4.720   6.623  15.599  0.2867  0.2611  0.5204
10613TIP3   OH253253   0.122   4.570   3.602  0.0938 -0.0661  0.5231
10613TIP3    H153254   0.085   4.490   3.640 -1.2281 -0.4272 -1.3724
10613TIP3    H253255   0.051   4.634   3.605  0.4997  0.4104  0.2106
10614TIP3   OH253256   4.885   0.285  11.224  0.2228  0.0832  0.3351
10614TIP3    H153257   4.869   0.222  11.153  3.9222 -0.2509 -0.4316
10614TIP3    H253258   4.865   0.370  11.185  0.3315 -0.2505 -0.4778
10615TIP3   OH253259   2.110   5.671   5.459 -0.8770  0.2697 -0.3045
10615TIP3    H153260   2.015   5.661   5.464 -0.7928  0.1809  1.7696
10615TIP3    H253261   2.141   5.651   5.547  1.0659  0.4303 -0.9125
10616TIP3   OH253262   2.554   1.227   0.838  0.0670  1.0249  0.2527
10616TIP3    H153263   2.554   1.132   0.826 -0.2106  0.6277  2.8894
10616TIP3    H253264   2.645   1.247   0.863 -0.2201  1.2248  1.1451
10617TIP3   OH253265   1.501   1.770   4.232 -0.1725  0.3914 -0.5419
10617TIP3    H153266   1.471   1.739   4.147  0.3856 -0.5071 -0.4258
10617TIP3    H253267   1.483   1.697   4.292  3.3390 -0.7603 -0.6929
10618TIP3   OH253268   2.654   6.252   3.999 -0.0380 -0.2213 -0.6336
10618TIP3    H153269   2.699   6.302   4.067 -1.9474  1.0829 -0.2378
10618TIP3    H253270   2.706   6.268   3.920  0.2441  1.2098 -0.2074
10619TIP3   OH253271   2.172   5.226  12.416  0.7738 -0.2077 -0.1902
10619TIP3    H153272   2.248   5.182  12.454  0.2448  0.3577  1.5909
10619TIP3    H253273   2.202   5.315  12.399  1.3095 -0.6957 -2.1563
10620TIP3   OH253274   1.299   4.839  15.595  0.1439  0.1488 -0.9053
10620TIP3    H153275   1.299   4.771  15.662 -1.8805 -0.3787 -1.3627
10620TIP3    H253276   1.365   4.811  15.531  0.8597 -0.2331 -0.0112
10621TIP3   OH253277   4.358   6.477   1.427 -0.8252  0.3493  0.0502
10621TIP3    H153278   4.409   6.458   1.349 -1.4824 -0.6822 -0.1413
10621TIP3    H253279   4.422   6.502   1.493 -0.1410 -0.2425 -0.3878
10622TIP3   OH253280   2.206   5.719   0.838 -0.4376 -0.1718 -0.2254
10622TIP3    H153281   2.126   5.743   0.885 -0.2415  2.6311 -1.1838
10622TIP3    H253282   2.204   5.770   0.758  2.6831  0.6174  0.0699
10623TIP3   OH253283   5.865   5.197   2.768 -0.9593  0.3024 -0.5133
10623TIP3    H153284   5.836   5.241   2.848  1.2998 -0.2952  0.7048
10623TIP3    H253285   5.823   5.111   2.772 -0.2779 -0.0018  0.4419
10624TIP3   OH253286   6.438   6.517   6.234  0.2197  0.2567 -0.4872
10624TIP3    H153287   6.418   6.507   6.141  0.8588  0.6573 -0.6772
10624TIP3    H253288   6.534   6.526   6.237  0.2847 -0.4729  0.2755
10625TIP3   OH253289   3.170   1.416  16.935 -0.4552  0.4626 -0.5919
10625TIP3    H153290   3.222   1.366  16.872  1.0968 -0.5974  1.4418
10625TIP3    H253291   3.233   1.445  17.001 -2.3095 -0.1898  1.5643
10626TIP3   OH253292   1.446   1.957  15.137  0.1201  0.4080  0.1747
10626TIP3    H153293   1.501   1.940  15.213 -0.7329  0.6398  0.8709
10626TIP3    H253294   1.357   1.934  15.166 -0.3326  1.2523 -0.4888
10627TIP3   OH253295   2.987   4.198   4.399  0.0185  0.0593  0.2243
10627TIP3    H153296   2.938   4.273   4.363 -0.5235 -0.3139  0.1829
10627TIP3    H253297   3.054   4.180   4.333  1.1995  1.5198  0.9583
10628TIP3   OH253298   1.407   4.163   3.464 -0.3988  0.8449 -0.2605
10628TIP3    H153299   1.378   4.235   3.519  0.2137  0.4588  0.5831
10628TIP3    H253300   1.493   4.139   3.498 -0.2800  0.1885 -0.9846
10629TIP3   OH253301   5.222   4.637  14.743 -0.1392  0.2285  0.4097
10629TIP3    H153302   5.190   4.703  14.805  0.9976  0.2222  1.0167
10629TIP3    H253303   5.316   4.632  14.760 -0.0653 -0.8717 -0.2862
10630TIP3   OH253304   3.329   4.958   5.575  0.3165 -0.5641  0.0389
10630TIP3    H153305   3.242   4.936   5.608 -0.2830  0.0702 -1.0829
10630TIP3    H253306   3.345   5.046   5.608  1.2102 -1.2368  1.5248
10631TIP3   OH253307   6.247   2.573   0.699  0.2991  0.4450 -0.5176
10631TIP3    H153308   6.196   2.627   0.760  0.2755 -0.0419 -0.0949
10631TIP3    H253309   6.308   2.633   0.659  1.7543  0.4351  1.5241
10632TIP3   OH253310   1.582   3.933   5.986 -0.1562  0.1890 -0.3493
10632TIP3    H153311   1.559   3.948   5.894 -3.2377 -1.1582  0.0714
10632TIP3    H253312   1.505   3.962   6.035  0.1144 -1.9947  1.5594
10633TIP3   OH253313   0.286   0.484   1.918 -0.1255  0.1644 -0.3457
10633TIP3    H153314   0.216   0.434   1.959  0.0974  0.5848  0.5576
10633TIP3    H253315   0.259   0.575   1.926 -0.2715  0.2359 -1.5074
10634TIP3   OH253316   6.137   5.515  15.927 -0.4796 -0.5771 -0.2264
10634TIP3    H153317   6.043   5.534  15.933 -0.4263  0.0122 -1.0143
10634TIP3    H253318   6.161   5.546  15.840  0.5877 -0.1218  0.2211
10635TIP3   OH253319   4.782   2.676  11.166  0.1782 -0.7429 -0.2000
10635TIP3    H153320   4.834   2.649  11.090 -0.2302 -3.6049  0.4107
10635TIP3    H253321   4.693   2.684  11.132  0.5179  1.5097 -0.6899
10636TIP3   OH253322   3.450   3.891  15.919 -0.4820 -0.0641 -0.3623
10636TIP3    H153323   3.512   3.894  15.992 -0.0138  1.1968 -0.7950
10636TIP3    H253324   3.475   3.963  15.862 -1.5314 -0.3469 -1.2260
10637TIP3   OH253325   0.293   3.306  13.953 -0.3023  0.1319 -1.0416
10637TIP3    H153326   0.319   3.253  14.028  0.0109  2.3479  0.4886
10637TIP3    H253327   0.222   3.256  13.913 -1.2003 -0.6557  1.3477
10638TIP3   OH253328   2.914   3.500   5.668  0.0163 -0.2545 -0.0663
10638TIP3    H153329   2.932   3.488   5.761  2.3288 -0.3483 -0.4885
10638TIP3    H253330   2.910   3.411   5.632 -0.1684 -0.1993 -0.1852
10639TIP3   OH253331   4.626   4.819  16.074 -0.0239  0.3910 -0.2351
10639TIP3    H153332   4.543   4.769  16.076 -1.0742  2.0193 -1.0915
10639TIP3    H253333   4.619   4.874  15.996  1.0446  1.9566  0.7235
10640TIP3   OH253334   1.227   2.701   1.500  0.4904  0.3272  0.0745
10640TIP3    H153335   1.154   2.684   1.440 -0.6810 -0.5725  1.6658
10640TIP3    H253336   1.295   2.740   1.445 -1.4119  1.8356 -1.3540
10641TIP3   OH253337   1.518   1.871  13.312  0.7850 -0.0186  0.3664
10641TIP3    H153338   1.538   1.875  13.405  1.9010 -2.1162  0.2688
10641TIP3    H253339   1.555   1.952  13.276  0.8413  0.5377  1.6393
10642TIP3   OH253340   5.657   3.570   1.144 -0.8344 -0.3578  0.5889
10642TIP3    H153341   5.562   3.573   1.151 -1.0460 -1.5273 -1.0814
10642TIP3    H253342   5.674   3.576   1.050  0.8752  1.8490  0.9498
10643TIP3   OH253343   4.674   2.705   5.457 -0.0818  0.1589  0.0505
10643TIP3    H153344   4.596   2.740   5.414  0.9410  0.3832 -1.7011
10643TIP3    H253345   4.653   2.708   5.550 -1.5557  1.6786 -0.2887
10644TIP3   OH253346   2.287   0.174   4.243 -0.1201 -0.3358 -0.2250
10644TIP3    H153347   2.314   0.266   4.241 -2.0731  0.3172  0.3640
10644TIP3    H253348   2.215   0.170   4.179 -0.2032 -1.3921 -0.0746
10645TIP3   OH253349   6.040   4.378   0.564 -0.4340 -0.1579 -0.1813
10645TIP3    H153350   6.079   4.452   0.610  0.0404  0.5981 -1.7270
10645TIP3    H253351   5.951   4.408   0.544 -0.6477 -0.4935  0.2620
10646TIP3   OH253352   2.548   4.698   1.666 -0.7503 -0.2064  0.1696
10646TIP3    H153353   2.493   4.637   1.617  0.1672 -0.5831 -0.3955
10646TIP3    H253354   2.575   4.764   1.602  0.0414 -0.4237  0.2701
10647TIP3   OH253355   1.465   1.302  12.157 -0.4225  0.1346  0.5987
10647TIP3    H153356   1.435   1.221  12.197 -0.9648 -0.1295 -0.3086
10647TIP3    H253357   1.552   1.317  12.194 -0.9367 -0.0564  1.9047
10648TIP3   OH253358   2.921   5.476  15.690  0.4168 -0.2924  0.0570
10648TIP3    H153359   2.985   5.427  15.741  0.9900 -1.0328 -1.3159
10648TIP3    H253360   2.972   5.541  15.642  0.0685 -0.4593 -0.5514
10649TIP3   OH253361   4.927   1.034   0.661 -0.1365 -0.5051  0.2406
10649TIP3    H153362   4.835   1.007   0.665  0.0479 -1.2235 -0.1322
10649TIP3    H253363   4.928   1.122   0.698 -0.8354 -0.8418  1.1171
10650TIP3   OH253364   3.121   3.470  13.381  0.1006 -0.2698  0.2129
10650TIP3    H153365   3.045   3.521  13.353 -0.4596 -0.3132  1.5402
10650TIP3    H253366   3.178   3.533  13.425 -0.5891 -0.7268  1.8486
10651TIP3   OH253367   1.928   2.270  15.211 -0.0391 -0.4164 -0.4554
10651TIP3    H153368   1.980   2.221  15.146  1.5964  0.3417  0.2111
10651TIP3    H253369   1.889   2.341  15.160  0.6833 -0.2169 -0.7521
10652TIP3   OH253370   2.080   1.674  16.541 -0.6104  0.1075 -0.3942
10652TIP3    H153371   2.119   1.756  16.571 -0.6832  0.3584 -0.9904
10652TIP3    H253372   2.029   1.698  16.464 -0.1615 -0.5900 -0.9196
10653TIP3   OH253373   5.128   2.006  17.343  0.5422  0.2248 -0.3042
10653TIP3    H153374   5.198   2.059  17.306 -0.5554  0.6011 -2.0143
10653TIP3    H253375   5.161   1.916  17.341  1.1098  0.4418 -0.7433
10654TIP3   OH253376   6.134   4.538  17.354 -0.2476  0.0310 -0.2226
10654TIP3    H153377   6.179   4.563  17.435 -1.1259  0.2030  0.2198
10654TIP3    H253378   6.082   4.615  17.331  1.3220  0.6509 -1.9300
10655TIP3   OH253379   4.842   4.194   0.632 -0.3976 -0.7678  0.1772
10655TIP3    H153380   4.895   4.273   0.635  0.7331 -1.4882 -0.3596
10655TIP3    H253381   4.804   4.193   0.544  0.0067 -1.0843  0.0045
10656TIP3   OH253382   3.865   4.156  16.136 -0.7033  0.1806  0.1746
10656TIP3    H153383   3.881   4.240  16.179  1.0884 -0.2815  0.5006
10656TIP3    H253384   3.782   4.168  16.090 -0.9837  1.7949  1.0129
10657TIP3   OH253385   5.722   0.417   1.541  0.2637  0.0311  0.4874
10657TIP3    H153386   5.798   0.475   1.528 -0.6439  0.9246 -1.1647
10657TIP3    H253387   5.756   0.329   1.521  0.8762  0.4212 -0.2600
10658TIP3   OH253388   0.925   0.372  13.851  0.2655 -1.1554 -0.4682
10658TIP3    H153389   0.845   0.400  13.807  1.0222 -0.1042 -1.2193
10658TIP3    H253390   0.898   0.296  13.903 -1.9364  0.9706  1.7872
10659TIP3   OH253391   0.747   6.707  16.098 -0.7014  0.1635  0.1430
10659TIP3    H153392   0.831   6.662  16.112  0.3012  1.7073 -0.5694
10659TIP3    H253393   0.745   6.724  16.003 -1.3214  1.0374  0.3007
10660TIP3   OH253394   5.027   0.284  14.502 -0.1052 -0.5015  0.1124
10660TIP3    H153395   5.033   0.269  14.596 -0.3966 -1.6616 -0.0347
10660TIP3    H253396   4.939   0.254  14.479  0.2610 -1.0197 -0.6514
10661TIP3   OH253397   4.508   3.352  11.613  0.9509 -0.4031  0.1104
10661TIP3    H153398   4.592   3.314  11.639  0.6529 -2.2477 -1.4002
10661TIP3    H253399   4.515   3.360  11.518  0.3324  1.8443  0.1952
10662TIP3   OH253400   4.933   4.032  15.608  0.3950  0.5772 -0.2226
10662TIP3    H153401   4.947   3.949  15.654  1.1042  0.5049 -0.5391
10662TIP3    H253402   4.838   4.041  15.602  0.3076 -0.0819  0.0524
10663TIP3   OH253403   2.913   2.866   2.815 -0.8916  0.8321  0.2013
10663TIP3    H153404   2.901   2.937   2.751 -0.4702  0.5367 -0.2174
10663TIP3    H253405   2.836   2.871   2.871 -0.9428  1.5259  0.0824
10664TIP3   OH253406   3.574   0.067   0.705 -0.5592 -0.5768  0.0008
10664TIP3    H153407   3.539   0.105   0.625 -0.3840  0.1594  0.2702
10664TIP3    H253408   3.532  -0.019   0.711  0.4340 -1.2268 -1.5959
10665TIP3   OH253409   1.681   0.016  16.810  1.1453 -0.3003 -0.3744
10665TIP3    H153410   1.614  -0.050  16.794  0.9698 -0.2190  0.0045
10665TIP3    H253411   1.763  -0.025  16.784  1.2793 -1.3271  1.4865
10666TIP3   OH253412   6.168   3.374   1.606  0.2029  0.1054  0.3682
10666TIP3    H153413   6.217   3.295   1.630 -0.0544 -0.9255 -2.1680
10666TIP3    H253414   6.076   3.347   1.610  0.1552 -0.1286 -1.6423
10667TIP3   OH253415   5.041   4.898  15.317  0.0476  0.2094 -0.0143
10667TIP3    H153416   5.067   4.931  15.403 -1.6308 -2.3262  1.6101
10667TIP3    H253417   5.104   4.828  15.298  1.3552  1.7531 -1.6673
10668TIP3   OH253418   2.582   6.447   6.456  0.3276 -0.3969 -0.1625
10668TIP3    H153419   2.649   6.406   6.401 -0.4210 -0.1676 -1.2795
10668TIP3    H253420   2.571   6.388   6.530  1.1625 -0.8532 -0.3954
10669TIP3   OH253421   6.001   6.502   1.936  0.3815 -0.2047  0.4352
10669TIP3    H153422   5.910   6.510   1.906  0.6148 -0.1066 -0.2581
10669TIP3    H253423   6.053   6.545   1.868  1.0018 -0.8034  0.5131
10670TIP3   OH253424   4.971   4.361  15.283  0.1079  0.1196  0.4094
10670TIP3    H153425   4.897   4.340  15.341  0.0263 -1.0855 -0.1020
10670TIP3    H253426   5.027   4.418  15.336 -0.5376 -0.0107  1.2659
10671TIP3   OH253427   5.937   0.329  13.690 -0.1545 -0.0280  0.2296
10671TIP3    H153428   5.902   0.248  13.653  0.0817 -0.6803  1.3879
10671TIP3    H253429   5.990   0.301  13.764  0.7547  1.1266  0.0542
10672TIP3   OH253430   0.454   6.102   0.795 -0.5116 -0.4765 -0.1988
10672TIP3    H153431   0.408   6.183   0.816  2.3902  1.0896  0.6743
10672TIP3    H253432   0.515   6.089   0.868 -0.5626 -3.2255 -0.5365
10673TIP3   OH253433   6.580   2.502  17.009  0.0799 -0.1875  0.2231
10673TIP3    H153434   6.657   2.463  17.050 -0.0555 -0.2015  0.4656
10673TIP3    H253435   6.542   2.558  17.076  1.1060  1.5603 -0.5794
10674TIP3   OH253436   3.118   1.564  15.955 -0.2779  0.0422 -0.2283
10674TIP3    H153437   3.038   1.513  15.970 -1.4020  1.1928 -1.9577
10674TIP3    H253438   3.096   1.652  15.983  1.2151 -0.0664  1.4803
10675TIP3   OH253439   5.697   4.846   2.105  0.1888 -0.6589 -0.4001
10675TIP3    H153440   5.641   4.801   2.042  0.3151 -1.1749 -0.1556
10675TIP3    H253441   5.636   4.889   2.165  0.0304 -1.6283  0.1567
10676TIP3   OH253442   4.381   0.220  10.618  0.5858 -0.2068 -0.1872
10676TIP3    H153443   4.327   0.210  10.697  0.5518 -1.9078 -0.3915
10676TIP3    H253444   4.318   0.216  10.546  0.6529  1.0281 -0.3200
10677TIP3   OH253445   3.903   1.773  11.551  0.2126  0.3129 -0.1508
10677TIP3    H153446   3.960   1.847  11.530  0.9768  0.8624  3.1924
10677TIP3    H253447   3.920   1.755  11.644 -0.7820 -3.3628 -0.5039
10678TIP3   OH253448   3.851   6.067   4.821  0.5189  0.4572 -0.0150
10678TIP3    H153449   3.940   6.032   4.825  0.2242 -0.2155  3.9271
10678TIP3    H253450   3.862   6.162   4.828  0.9321  0.4025  0.0946
10679TIP3   OH253451   0.031   1.751  17.265  0.1810  0.3055  0.3900
10679TIP3    H153452   0.080   1.830  17.244 -1.1459  1.0088 -0.2095
10679TIP3    H253453   0.041   1.741  17.360 -0.6083  1.9109  0.6763
10680TIP3   OH253454   2.270   0.197  17.370 -0.1970 -0.5308  0.5166
10680TIP3    H153455   2.234   0.110  17.353 -0.2935 -0.3613 -0.1764
10680TIP3    H253456   2.201   0.242  17.418 -0.6642 -0.4165 -0.2504
10681TIP3   OH253457   3.775   1.560   4.500  0.1194  0.5645  0.6843
10681TIP3    H153458   3.693   1.601   4.528 -0.5815  0.7447 -1.4525
10681TIP3    H253459   3.825   1.632   4.461  0.6403  0.1607  0.6003
10682TIP3   OH253460   3.783   0.561   6.591  0.1535  0.1124  0.7332
10682TIP3    H153461   3.713   0.497   6.604 -0.4822  0.2623 -1.4286
10682TIP3    H253462   3.770   0.625   6.661 -2.1647  0.3240  0.2238
10683TIP3   OH253463   1.087   1.235  14.932  0.4145  0.0994 -0.1617
10683TIP3    H153464   1.074   1.273  14.845 -0.8490 -0.8763 -0.4423
10683TIP3    H253465   1.121   1.306  14.985  0.0145  1.0641 -1.1518
10684TIP3   OH253466   1.164   1.943   1.459 -0.2926 -0.0027 -0.0107
10684TIP3    H153467   1.178   1.896   1.541  1.2024 -0.6288 -0.5878
10684TIP3    H253468   1.142   1.874   1.396 -0.4057  0.3516 -0.3591
10685TIP3   OH253469   0.834   0.414   2.992  0.3672 -0.7289  0.0061
10685TIP3    H153470   0.800   0.325   2.982  0.2753 -0.5944 -0.9061
10685TIP3    H253471   0.873   0.435   2.907  1.0046 -0.1506  0.4267
10686TIP3   OH253472   5.384   0.428  13.594  0.6219  0.5818  0.5863
10686TIP3    H153473   5.318   0.417  13.662 -1.4324 -1.1793 -1.5416
10686TIP3    H253474   5.462   0.385  13.630 -0.0255  0.7285  2.2568
10687TIP3   OH253475   5.999   6.236  12.820 -0.4084 -0.3774 -0.4315
10687TIP3    H153476   6.017   6.321  12.778  0.3543  0.4916  1.5323
10687TIP3    H253477   6.061   6.176  12.780  0.4884  0.4858 -0.3866
10688TIP3   OH253478   0.551   3.803   4.531  0.5029  0.3237  0.1818
10688TIP3    H153479   0.593   3.849   4.458  0.1795  1.6318  0.7946
10688TIP3    H253480   0.617   3.805   4.601  0.5208 -0.2473  0.1876
10689TIP3   OH253481   0.105   0.201   1.379 -0.1340  0.5507  0.4097
10689TIP3    H153482   0.020   0.172   1.412  0.2014 -1.8272 -0.6314
10689TIP3    H253483   0.146   0.122   1.344  1.4827  2.0679 -1.3561
10690TIP3   OH253484   2.846   1.193   5.046 -0.0596  0.3155  0.4687
10690TIP3    H153485   2.881   1.116   5.091  1.7688  1.5977  1.3552
10690TIP3    H253486   2.876   1.184   4.956 -1.7781 -1.1021 -0.0108
10691TIP3   OH253487   5.829   4.347   2.490 -0.5037 -0.2997 -0.1508
10691TIP3    H153488   5.779   4.350   2.572  2.9799 -2.8992  2.3389
10691TIP3    H253489   5.828   4.255   2.464  2.4646 -0.4213 -0.1678
10692TIP3   OH253490   5.723   4.382  17.264  0.3544 -0.0189 -0.2074
10692TIP3    H153491   5.659   4.347  17.326  1.2365 -0.3920  0.5130
10692TIP3    H253492   5.707   4.333  17.183 -1.3162  1.0071 -0.5502
10693TIP3   OH253493   5.453   3.898  12.868  0.4088  0.2935 -0.0043
10693TIP3    H153494   5.415   3.823  12.913  0.8059  0.1309  0.0666
10693TIP3    H253495   5.413   3.898  12.781  0.4466 -0.0297 -0.0195
10694TIP3   OH253496   4.400   2.152  12.453  1.0524 -0.1566  0.8141
10694TIP3    H153497   4.457   2.180  12.525  1.9569  0.1230  0.0046
10694TIP3    H253498   4.360   2.233  12.421  1.7439 -0.0958  0.0915
10695TIP3   OH253499   0.400   0.190  16.378  0.0924 -0.7338  0.1866
10695TIP3    H153500   0.339   0.252  16.417  0.2724 -0.1359 -0.4581
10695TIP3    H253501   0.375   0.186  16.286  0.4748 -1.1459  0.0938
10696TIP3   OH253502   6.427   6.486  12.004 -0.4671  0.2017  0.0311
10696TIP3    H153503   6.371   6.563  12.008  1.1445  1.6169 -2.2407
10696TIP3    H253504   6.383   6.426  11.943  0.7230  1.6508 -2.3966
10697TIP3   OH253505   5.850   1.211   4.239 -0.2722  0.0461  0.1364
10697TIP3    H153506   5.824   1.264   4.163 -1.1047  0.7578  0.9068
10697TIP3    H253507   5.854   1.273   4.312  0.2985 -0.6729  0.7371
10698TIP3   OH253508   6.617   3.173   3.382 -0.6985 -0.1136  0.3434
10698TIP3    H153509   6.547   3.162   3.318 -1.5814 -1.8533  1.5310
10698TIP3    H253510   6.604   3.102   3.445  0.8311  0.8281  1.8216
10699TIP3   OH253511   1.956   3.602  13.746  0.5204  0.1616  0.2859
10699TIP3    H153512   1.861   3.596  13.731  0.8105  0.6239 -2.3260
10699TIP3    H253513   1.980   3.517  13.781 -0.7996 -0.1519  0.4995
10700TIP3   OH253514   4.681   1.396  17.078  0.6350 -0.2985  0.0268
10700TIP3    H153515   4.720   1.430  17.158  0.9475 -0.5052 -0.0375
10700TIP3    H253516   4.751   1.347  17.035  0.9497  1.1901 -1.2154
10701TIP3   OH253517   1.268   0.104  15.156 -0.0261 -0.4381 -0.5040
10701TIP3    H153518   1.272   0.151  15.073  1.2311  0.0706 -0.1743
10701TIP3    H253519   1.235   0.017  15.133  0.4979 -0.3692 -1.5746
10702TIP3   OH253520   1.551   4.015  13.731 -0.0747  0.2501 -0.3080
10702TIP3    H153521   1.571   3.990  13.641  0.1213  1.6189 -0.6762
10702TIP3    H253522   1.579   3.941  13.784  0.7394 -0.1661 -1.2876
10703TIP3   OH253523   0.821   3.174  14.629  0.2883 -0.2856  0.5141
10703TIP3    H153524   0.816   3.211  14.541  1.0621 -0.6645  0.2927
10703TIP3    H253525   0.884   3.230  14.675  0.4737 -0.5423  0.5774
10704TIP3   OH253526   2.486   4.364  15.463 -0.2845 -1.0945  0.3607
10704TIP3    H153527   2.474   4.353  15.558  0.6435 -1.9495  0.3858
10704TIP3    H253528   2.568   4.320  15.444  0.8641  1.2429 -0.4427
10705TIP3   OH253529   0.304   6.565   5.286 -0.2709  0.3114 -0.2902
10705TIP3    H153530   0.262   6.507   5.350 -0.9596 -0.7518 -1.6264
10705TIP3    H253531   0.380   6.601   5.331 -0.2445 -1.0753  0.8420
10706TIP3   OH253532   0.851   2.144  14.500  0.1322  0.3371  0.0533
10706TIP3    H153533   0.868   2.150  14.406 -2.0011 -0.0849 -0.4176
10706TIP3    H253534   0.846   2.235  14.529  0.7105  0.4696 -0.2430
10707TIP3   OH253535   2.121   2.240   3.701 -0.3493  0.2545  0.4526
10707TIP3    H153536   2.114   2.335   3.703  0.3788  0.3469 -0.4684
10707TIP3    H253537   2.040   2.210   3.661  0.2390  0.6408 -1.1035
10708TIP3   OH253538   2.863   5.768  11.651 -0.1010  0.2279 -0.1513
10708TIP3    H153539   2.900   5.856  11.661 -0.3586  0.1615  1.7912
10708TIP3    H253540   2.789   5.780  11.591  0.7600  1.0285 -1.0972
10709TIP3   OH253541   2.761   6.615  12.142  0.0252  0.4580  0.0151
10709TIP3    H153542   2.834   6.671  12.167  0.1425 -0.0630  0.8789
10709TIP3    H253543   2.797   6.554  12.078 -0.5638  2.5940 -2.5125
10710TIP3   OH253544   4.384   2.602  14.126  0.1980  0.0325 -0.1335
10710TIP3    H153545   4.339   2.595  14.210  1.1871 -0.6511  0.3630
10710TIP3    H253546   4.316   2.629  14.064 -0.6276  0.1538  0.8040
10711TIP3   OH253547   6.671   6.292   0.423  0.7539 -0.4342  0.1721
10711TIP3    H153548   6.598   6.241   0.387 -2.0297  0.5988  3.6733
10711TIP3    H253549   6.716   6.232   0.482  0.9425 -0.3259  0.1388
10712TIP3   OH253550   6.576   0.773  15.028  0.4299  0.3153  0.2864
10712TIP3    H153551   6.490   0.731  15.029 -0.4215  1.8338 -1.4580
10712TIP3    H253552   6.583   0.811  14.940  2.9379  0.1728  0.3489
10713TIP3   OH253553   1.798   1.380  17.205 -0.0299 -0.3416  0.4550
10713TIP3    H153554   1.873   1.381  17.146 -0.5107  0.2421 -0.1595
10713TIP3    H253555   1.733   1.435  17.162 -2.3163 -3.7772 -0.9312
10714TIP3   OH253556   5.947   3.255  14.818  0.7116  0.2956  0.4768
10714TIP3    H153557   5.996   3.319  14.868  1.0695  1.2329 -1.0079
10714TIP3    H253558   6.012   3.211  14.764  0.1426  0.4873 -0.3927
10715TIP3   OH253559   6.321   5.010  16.440  0.4942  1.0547  0.1889
10715TIP3    H153560   6.328   5.066  16.517 -0.5997 -1.9624  2.6624
10715TIP3    H253561   6.235   5.032  16.403  0.1456  1.1104  1.0188
10716TIP3   OH253562   4.766   1.706  13.699  0.1496  0.1586 -0.6207
10716TIP3    H153563   4.720   1.653  13.765  0.2637  0.7433 -0.0617
10716TIP3    H253564   4.706   1.709  13.625 -0.5602  0.5879 -0.0450
10717TIP3   OH253565   3.758   4.054  14.968 -0.3336  0.0832 -0.2252
10717TIP3    H153566   3.779   4.148  14.967 -0.2197  0.0759  0.6808
10717TIP3    H253567   3.844   4.011  14.972 -0.4128 -0.0373  0.1652
10718TIP3   OH253568   2.120   4.146  13.507 -0.5594  0.0818  0.8355
10718TIP3    H153569   2.076   4.174  13.588  0.6822  1.1312  1.1709
10718TIP3    H253570   2.138   4.053  13.521 -2.8289 -0.4713  0.5826
10719TIP3   OH253571   0.487   1.118   4.509  0.4091 -0.2361 -0.1582
10719TIP3    H153572   0.526   1.107   4.423  0.4325 -1.9825  0.0318
10719TIP3    H253573   0.455   1.031   4.532 -0.8220  0.4811  1.0189
10720TIP3   OH253574   0.534   2.070   3.324 -0.0064 -0.3415  0.4713
10720TIP3    H153575   0.578   2.068   3.409 -0.0775 -1.5851  0.4835
10720TIP3    H253576   0.442   2.084   3.345 -0.2685 -2.2802  0.7088
10721TIP3   OH253577   6.509   5.614  11.185 -0.4472 -0.0298  0.4454
10721TIP3    H153578   6.450   5.542  11.209 -0.8885  0.0978 -0.2487
10721TIP3    H253579   6.451   5.686  11.161 -0.0077  0.6011  1.2137
10722TIP3   OH253580   2.317   1.113  10.859 -0.4590 -0.8877  0.3088
10722TIP3    H153581   2.326   1.181  10.926 -2.4483 -0.5311  0.2625
10722TIP3    H253582   2.407   1.088  10.839  0.4877  2.5131 -0.4828
10723TIP3   OH253583   2.279   3.412  16.880 -0.6045  0.8266 -0.4633
10723TIP3    H153584   2.215   3.351  16.917 -0.0624  0.6046  0.1286
10723TIP3    H253585   2.348   3.416  16.945  0.6919 -0.0606 -1.7092
10724TIP3   OH253586   3.632   2.344   5.459 -0.1764 -0.3553  0.2757
10724TIP3    H153587   3.545   2.322   5.491 -0.3985 -0.6085 -0.4998
10724TIP3    H253588   3.681   2.262   5.463 -0.4822 -0.6125 -0.9108
10725TIP3   OH253589   2.640   6.064  13.946 -0.2760  0.5780  0.0711
10725TIP3    H153590   2.596   5.982  13.970  0.4959  0.0714 -0.2287
10725TIP3    H253591   2.723   6.060  13.993  0.4686  0.4249 -1.2314
10726TIP3   OH253592   6.615   2.775  15.057 -0.2956 -0.1681  0.1788
10726TIP3    H153593   6.562   2.731  15.124  0.8515 -2.4724 -0.3046
10726TIP3    H253594   6.703   2.738  15.069 -0.1490 -1.0737 -2.8545
10727TIP3   OH253595   4.091   6.112  14.399  0.2905 -0.3352  0.2303
10727TIP3    H153596   4.145   6.130  14.476  2.5594  0.7651 -1.4940
10727TIP3    H253597   4.030   6.186  14.396 -0.2440 -0.7139  1.2861
10728TIP3   OH253598   5.569   0.530   0.319 -0.0272  0.4881  0.4002
10728TIP3    H153599   5.555   0.596   0.388 -0.0561  0.4801  0.4020
10728TIP3    H253600   5.489   0.477   0.320  1.6379 -2.4188  3.5023
10729TIP3   OH253601   2.147   2.545  16.864  0.4986 -0.0673  0.0621
10729TIP3    H153602   2.163   2.568  16.955 -1.5510  0.6088  0.3021
10729TIP3    H253603   2.121   2.453  16.866  1.7467 -0.4513 -0.0478
10730TIP3   OH253604   2.139   3.604  16.135 -0.1196  0.3399  0.3395
10730TIP3    H153605   2.214   3.547  16.117 -1.0548 -0.6226 -0.7161
10730TIP3    H253606   2.177   3.682  16.175  1.5638  0.2895 -1.0354
10731TIP3   OH253607   1.304   5.366   3.237  0.2372  0.3145  0.3083
10731TIP3    H153608   1.311   5.273   3.259  1.1889  0.6279  1.4546
10731TIP3    H253609   1.347   5.374   3.152 -1.6128 -0.5821 -0.7940
10732TIP3   OH253610   0.556   1.807   3.512 -0.0449 -0.3319  0.4948
10732TIP3    H153611   0.602   1.791   3.430 -1.9579  0.4545 -0.8158
10732TIP3    H253612   0.599   1.883   3.550  0.1974 -0.0424 -0.3380
10733TIP3   OH253613   0.738   0.144   1.036  0.2476  0.1498  0.4023
10733TIP3    H153614   0.701   0.141   0.948  0.2544 -0.3706  0.4106
10733TIP3    H253615   0.742   0.052   1.063  3.1471 -0.0157 -0.2886
10734TIP3   OH253616   4.026   6.470  10.689 -0.4349 -0.2674 -0.6899
10734TIP3    H153617   4.090   6.491  10.756  0.4489 -1.9588 -0.9555
10734TIP3    H253618   3.941   6.488  10.730  0.1280 -0.2634  0.4981
10735TIP3   OH253619   5.094   0.180  12.515 -0.6350  0.2235  0.2566
10735TIP3    H153620   5.020   0.120  12.512 -0.9880  0.6691 -0.3867
10735TIP3    H253621   5.164   0.134  12.469  0.1311 -1.0023  2.5442
10736TIP3   OH253622   4.228   4.619  10.652 -0.4300  0.2399  0.5818
10736TIP3    H153623   4.220   4.537  10.700  1.5945 -1.2846 -1.4885
10736TIP3    H253624   4.139   4.655  10.652 -1.4479 -2.0654  1.3481
10737TIP3   OH253625   2.230   6.032   5.259 -0.0323 -0.7882 -0.2787
10737TIP3    H153626   2.246   6.034   5.165 -2.0392 -0.1059 -0.6586
10737TIP3    H253627   2.234   6.123   5.287 -2.1513 -0.6372 -0.2806
10738TIP3   OH253628   0.570   1.371  16.842 -0.3125 -0.1158 -0.4985
10738TIP3    H153629   0.542   1.279  16.847  0.5876 -0.3753 -0.0302
10738TIP3    H253630   0.539   1.401  16.757 -0.6330 -0.8501 -0.6456
10739TIP3   OH253631   4.272   3.581   2.068 -0.7944  0.1013 -0.3647
10739TIP3    H153632   4.215   3.629   2.008 -0.6439 -0.2543 -0.7990
10739TIP3    H253633   4.352   3.566   2.019 -0.9072 -0.7596 -0.3113
10740TIP3   OH253634   3.153   4.791   3.821  0.1501 -0.1383  0.5324
10740TIP3    H153635   3.209   4.857   3.863  0.2365  0.0135  0.1806
10740TIP3    H253636   3.187   4.784   3.732  1.2387 -1.8831  1.0230
10741TIP3   OH253637   6.277   6.374  13.842 -0.2065 -0.2338  0.4075
10741TIP3    H153638   6.350   6.387  13.782 -0.1371 -1.3734  0.2320
10741TIP3    H253639   6.225   6.304  13.803 -2.1395  1.4355 -0.1445
10742TIP3   OH253640   2.170   1.840   4.906  0.5789  0.2244 -0.5165
10742TIP3    H153641   2.145   1.844   4.998 -1.2008 -3.0478 -0.6913
10742TIP3    H253642   2.247   1.783   4.904 -0.1636 -0.7899 -1.1196
10743TIP3   OH253643   2.959   3.167   3.540 -0.2215  0.1210  0.2217
10743TIP3    H153644   2.926   3.181   3.629  0.2539 -1.3594  0.6632
10743TIP3    H253645   3.053   3.182   3.546 -0.2563  0.5204 -0.1562
10744TIP3   OH253646   5.125   5.211   4.275 -0.5341 -0.1963 -0.0196
10744TIP3    H153647   5.190   5.142   4.291  0.6007  1.2335  2.0397
10744TIP3    H253648   5.153   5.250   4.192 -0.5944 -1.5073 -0.6949
10745TIP3   OH253649   5.974   3.823  15.823  0.3564 -0.3885 -0.5971
10745TIP3    H153650   6.031   3.866  15.887 -0.9070  1.4995 -0.6518
10745TIP3    H253651   6.021   3.830  15.740  0.8149 -0.4141 -0.3436
10746TIP3   OH253652   5.975   5.706  13.842  0.4865  0.5135 -0.8824
10746TIP3    H153653   5.880   5.716  13.848 -0.0221 -2.5140 -2.0586
10746TIP3    H253654   6.006   5.786  13.800 -1.3889  1.9223  0.2716
10747TIP3   OH253655   5.683   4.636   0.060  0.7031  0.5833  0.0698
10747TIP3    H153656   5.720   4.548   0.062  0.4136  0.4484 -0.4167
10747TIP3    H253657   5.756   4.693   0.035  1.0246  0.5566  0.9200
10748TIP3   OH253658   2.329   3.836  14.946 -0.1769  0.2083 -0.0214
10748TIP3    H153659   2.297   3.850  15.035  1.4646  0.6155  0.5360
10748TIP3    H253660   2.387   3.910  14.929  0.6779 -0.6299 -0.8775
10749TIP3   OH253661   4.430   3.305   4.804 -0.3181  0.1250 -0.5944
10749TIP3    H153662   4.446   3.237   4.738  0.4517  1.9598 -2.3784
10749TIP3    H253663   4.503   3.296   4.866 -0.2093 -0.6308 -0.8253
10750TIP3   OH253664   0.572   4.728   6.083  0.7333 -0.3993 -0.2219
10750TIP3    H153665   0.500   4.711   6.145  2.1931 -3.4538  0.8581
10750TIP3    H253666   0.646   4.680   6.120  2.6626  0.5907 -2.5950
10751TIP3   OH253667   0.879   6.106  13.425 -0.5067 -0.2713  0.3209
10751TIP3    H153668   0.789   6.073  13.433 -0.6476 -0.2412 -0.9658
10751TIP3    H253669   0.900   6.095  13.332 -0.0504  1.9306  0.1090
10752TIP3   OH253670   3.261   5.356  14.023 -0.5975 -0.3335 -0.1693
10752TIP3    H153671   3.226   5.306  14.097 -0.1249 -1.7900 -0.8915
10752TIP3    H253672   3.356   5.355  14.036 -0.4880 -0.8518 -0.9291
10753TIP3   OH253673   4.687   1.841   5.526  0.2100 -0.2046  0.1773
10753TIP3    H153674   4.726   1.754   5.518  0.2411 -0.0627 -1.7370
10753TIP3    H253675   4.699   1.865   5.618  1.7021 -1.5148  0.3623
10754TIP3   OH253676   3.314   4.882   6.018 -0.5816 -0.0990 -0.4934
10754TIP3    H153677   3.364   4.933   6.082 -0.1217 -1.1425  0.0148
10754TIP3    H253678   3.370   4.882   5.940  0.5452 -1.7309  0.2510
10755TIP3   OH253679   6.661   1.876   6.104  0.1624  0.1628  0.2041
10755TIP3    H153680   6.611   1.813   6.155 -0.7423  0.6017 -0.1356
10755TIP3    H253681   6.635   1.961   6.138 -1.4053  0.5525 -1.7659
10756TIP3   OH253682   1.314   0.530   0.593  1.1057  0.0837 -0.1621
10756TIP3    H153683   1.222   0.534   0.620  0.6092 -0.9479 -1.6132
10756TIP3    H253684   1.361   0.577   0.662 -0.4252  0.0335  0.9609
10757TIP3   OH253685   2.819   4.375  14.180 -0.5219  0.0811 -0.0225
10757TIP3    H153686   2.914   4.389  14.181 -0.4915 -0.1262  1.1453
10757TIP3    H253687   2.804   4.302  14.240 -1.5014  0.6748  0.4926
10758TIP3   OH253688   4.838   0.384  15.202 -0.1709 -0.2664 -0.0608
10758TIP3    H153689   4.757   0.415  15.160  0.1880 -0.2075 -0.7274
10758TIP3    H253690   4.894   0.462  15.205 -0.4482 -0.0915  1.1993
10759TIP3   OH253691   2.859   0.269   4.603 -0.4464 -0.5528  0.3903
10759TIP3    H153692   2.862   0.192   4.546 -1.1697 -1.0094  0.9485
10759TIP3    H253693   2.922   0.330   4.564  0.6427 -1.6829  0.2982
10760TIP3   OH253694   6.133   3.006   4.662  0.5876 -0.3253  0.4369
10760TIP3    H153695   6.104   2.941   4.598  1.0374  2.0067 -2.3963
10760TIP3    H253696   6.080   3.084   4.644  2.9294  1.4553  0.6274
10761TIP3   OH253697   6.562   4.372   4.228 -0.5142  0.0093  0.4492
10761TIP3    H153698   6.611   4.455   4.225 -0.2268 -0.1771 -0.3214
10761TIP3    H253699   6.622   4.308   4.190 -1.1649 -0.3305 -0.0089
10762TIP3   OH253700   6.431   0.820   1.747 -0.0391 -0.1353  0.4640
10762TIP3    H153701   6.458   0.809   1.656  0.3099 -0.8730  0.6479
10762TIP3    H253702   6.357   0.761   1.757  1.4285 -1.9307  1.2864
10763TIP3   OH253703   6.531   0.836  14.757 -0.1727  0.4679 -0.0600
10763TIP3    H153704   6.515   0.753  14.712 -1.8684  0.3713  0.6392
10763TIP3    H253705   6.444   0.865  14.786  0.3252  2.6255 -0.4989
10764TIP3   OH253706   4.406   3.741   0.350  0.1610 -0.2833 -0.5030
10764TIP3    H153707   4.427   3.653   0.379 -3.0826 -1.2198 -0.6414
10764TIP3    H253708   4.355   3.779   0.421  1.6944  1.6486 -0.3436
10765TIP3   OH253709   1.110   6.631  14.448 -0.0617  0.0769 -0.2663
10765TIP3    H153710   1.037   6.646  14.388  0.4204 -2.7554 -1.7338
10765TIP3    H253711   1.161   6.562  14.406  2.7336  1.0101  1.3819
10766TIP3   OH253712   3.497   0.002   6.716  0.1113  0.2313 -0.3395
10766TIP3    H153713   3.588   0.016   6.743  0.6539 -3.1005  0.0332
10766TIP3    H253714   3.445   0.033   6.791  1.1970 -1.2665  1.1049
10767TIP3   OH253715   3.545   4.840  12.858 -0.7720  0.0401  0.6555
10767TIP3    H153716   3.560   4.920  12.908  0.0013 -0.3118  1.0014
10767TIP3    H253717   3.449   4.835  12.850 -0.8318  0.9664  0.6670
10768TIP3   OH253718   2.831   1.003  10.629  0.0517  0.1936  0.4642
10768TIP3    H153719   2.849   0.940  10.699 -0.5987 -1.6829 -0.9763
10768TIP3    H253720   2.913   1.009  10.580  0.2038  0.7202  0.7782
10769TIP3   OH253721   2.765   1.080  15.385 -0.1443  0.1970 -0.0507
10769TIP3    H153722   2.760   0.986  15.397  1.6869  0.0766  0.0587
10769TIP3    H253723   2.743   1.094  15.293 -0.0972 -0.3598 -0.1470
10770TIP3   OH253724   2.955   1.414  12.774 -0.2423  0.0102 -1.0772
10770TIP3    H153725   3.037   1.368  12.759 -1.1727 -1.3532 -2.3395
10770TIP3    H253726   2.967   1.498  12.730  0.4722 -0.1672 -1.2397
10771TIP3   OH253727   0.012   2.756   1.044  0.4976 -0.3940  0.0167
10771TIP3    H153728   0.042   2.745   1.134  0.2336 -1.0991  0.0250
10771TIP3    H253729  -0.043   2.834   1.046  0.8730 -0.1360  0.3664
10772TIP3   OH253730   5.188   6.055   3.079  0.0278 -0.4058 -0.5084
10772TIP3    H153731   5.147   6.028   2.997 -0.3984 -1.1198 -0.0713
10772TIP3    H253732   5.233   5.976   3.111  0.5128 -0.0329 -0.2407
10773TIP3   OH253733   2.500   4.912  13.261 -0.0151  0.3326 -0.1015
10773TIP3    H153734   2.436   4.963  13.211 -0.1270  0.2505 -0.0443
10773TIP3    H253735   2.497   4.951  13.349 -0.4192 -0.0549  0.0571
10774TIP3   OH253736   4.977   2.281   1.901  0.1404 -0.3700  0.4831
10774TIP3    H153737   4.995   2.352   1.963  0.3097  0.3403 -0.3611
10774TIP3    H253738   5.045   2.289   1.835 -0.3705 -0.7700 -0.1015
10775TIP3   OH253739   5.696   0.753   5.379 -0.3986  0.3097  0.1254
10775TIP3    H153740   5.645   0.783   5.454 -0.8974 -1.8764  0.7205
10775TIP3    H253741   5.632   0.715   5.320  0.1938  0.4081 -0.5897
10776TIP3   OH253742   5.881   2.785   1.829  0.1902 -0.1745  0.1355
10776TIP3    H153743   5.828   2.721   1.781  0.3891 -1.1653  1.1762
10776TIP3    H253744   5.950   2.732   1.870  0.5592  0.7567  0.7447
10777TIP3   OH253745   3.617   4.283   4.296  0.1746 -0.3566  0.5030
10777TIP3    H153746   3.528   4.318   4.307  1.0780  3.2172 -1.7230
10777TIP3    H253747   3.644   4.258   4.385 -1.9949  1.3456  1.7445
10778TIP3   OH253748   3.605   1.045   6.745 -0.1330  0.0138 -0.4173
10778TIP3    H153749   3.532   1.078   6.797  0.2779 -2.2428  1.7620
10778TIP3    H253750   3.679   1.100   6.771 -0.0446 -0.7628  1.1111
10779TIP3   OH253751   6.501   0.719   5.181  0.1483 -0.1925 -0.3017
10779TIP3    H153752   6.582   0.760   5.152 -0.4128  0.1134 -1.5270
10779TIP3    H253753   6.516   0.625   5.171  1.0782 -0.2888  1.5440
10780TIP3   OH253754   2.657   2.739  14.900  0.1368 -0.2542  0.4154
10780TIP3    H153755   2.727   2.798  14.872 -0.0474 -0.3731 -0.3022
10780TIP3    H253756   2.592   2.743  14.830  0.9905 -2.7994 -0.6300
10781TIP3   OH253757   4.869   4.106   2.841 -0.0422  0.1097  0.0630
10781TIP3    H153758   4.890   4.055   2.763  1.1395  1.0567 -0.2778
10781TIP3    H253759   4.922   4.067   2.911  0.4776  0.5516 -0.0830
10782TIP3   OH253760   2.671   3.751   3.122  0.4435 -0.4068 -0.4909
10782TIP3    H153761   2.709   3.667   3.147 -1.3440 -1.1786 -0.2383
10782TIP3    H253762   2.654   3.743   3.028 -0.0805 -0.4695 -0.3912
10783TIP3   OH253763   5.988   0.211  13.330 -0.1497 -0.2486  0.2016
10783TIP3    H153764   6.038   0.155  13.390 -0.6466 -1.3598 -0.3920
10783TIP3    H253765   5.946   0.150  13.271 -2.4685  0.6283  0.8489
10784TIP3   OH253766   2.664   6.597  14.215  0.1405  0.0359  1.0016
10784TIP3    H153767   2.740   6.647  14.243  0.6258  0.2725 -0.6002
10784TIP3    H253768   2.680   6.580  14.122 -1.1337 -1.0695  0.9574
10785TIP3   OH253769   5.898   2.976   0.264  0.6025  0.8161  0.2720
10785TIP3    H153770   5.811   3.015   0.271  0.3438  0.2214  0.4437
10785TIP3    H253771   5.950   3.042   0.217  0.4031  1.7102  1.2722
10786TIP3   OH253772   4.661   6.604   4.603 -0.7373 -0.0146 -0.0782
10786TIP3    H153773   4.715   6.528   4.580 -1.6955 -0.4309 -1.0646
10786TIP3    H253774   4.668   6.662   4.527 -0.1681  0.8200  0.5869
10787TIP3   OH253775   4.988   2.861   2.510 -0.4799 -0.1750 -0.6406
10787TIP3    H153776   4.894   2.876   2.520 -0.5565 -0.0561 -1.4695
10787TIP3    H253777   5.009   2.795   2.575 -0.4949  2.1358  1.8624
10788TIP3   OH253778   2.495   4.886  16.054  0.4056  0.0880 -0.0652
10788TIP3    H153779   2.542   4.854  15.977 -0.3695 -0.9170 -0.1330
10788TIP3    H253780   2.561   4.936  16.103  0.9668  0.5273 -1.2475
10789TIP3   OH253781   2.879   0.255  16.326  0.0763  0.4409 -0.3916
10789TIP3    H153782   2.838   0.295  16.249 -2.5063  0.3325  0.8464
10789TIP3    H253783   2.843   0.167  16.330  2.6907 -0.7456 -0.8180
10790TIP3   OH253784   4.393   4.136   3.763 -0.1783 -0.5953 -0.1731
10790TIP3    H153785   4.414   4.222   3.727 -2.0826  0.7000  1.5817
10790TIP3    H253786   4.437   4.074   3.704 -0.3586  1.4663 -2.6549
10791TIP3   OH253787   5.198   3.387   5.596 -0.0730 -0.3531  0.0763
10791TIP3    H153788   5.231   3.401   5.685  0.3844 -1.1660  0.0403
10791TIP3    H253789   5.246   3.451   5.543 -1.0029  0.7673  0.5333
10792TIP3   OH253790   2.815   3.795  12.578 -0.5096  0.7716 -0.5589
10792TIP3    H153791   2.833   3.703  12.598 -0.0279  1.0976  0.5447
10792TIP3    H253792   2.742   3.818  12.634 -0.1189  1.2782 -0.2476
10793TIP3   OH253793   0.730   6.533   4.371 -0.3405  0.5675 -0.6929
10793TIP3    H153794   0.773   6.577   4.298 -0.1562  1.4182 -0.0913
10793TIP3    H253795   0.774   6.569   4.449 -0.3628 -0.4953 -0.1713
10794TIP3   OH253796   6.719   1.881  15.143  0.5185  0.5110  0.1638
10794TIP3    H153797   6.758   1.867  15.056 -0.9791  0.8021 -0.5939
10794TIP3    H253798   6.729   1.975  15.159  1.6433  0.3011  0.7471
10795TIP3   OH253799   0.668   6.296  15.569  0.2702  0.1864 -0.1455
10795TIP3    H153800   0.741   6.285  15.507 -1.1576 -0.3652 -1.8136
10795TIP3    H253801   0.676   6.387  15.599  1.1126  0.4123 -0.9907
10796TIP3   OH253802   0.447   6.277  11.724 -0.8974 -0.4813  0.2110
10796TIP3    H153803   0.454   6.185  11.698  0.5782 -0.1119 -0.8533
10796TIP3    H253804   0.454   6.325  11.641  2.1597  0.7002  1.0257
10797TIP3   OH253805   2.332   5.011   6.330 -0.2276 -0.1730  0.1792
10797TIP3    H153806   2.291   4.937   6.375  0.7599 -1.4729 -0.9485
10797TIP3    H253807   2.337   5.080   6.396 -2.1533 -0.7234  0.9662
10798TIP3   OH253808   2.181   1.502  16.309 -0.1298  0.4183  0.0474
10798TIP3    H153809   2.137   1.431  16.356 -2.8842  0.7302 -1.8400
10798TIP3    H253810   2.161   1.580  16.360  1.1840  0.1862  0.9982
10799TIP3   OH253811   4.009   1.004   4.336 -0.3081  0.2777 -0.0213
10799TIP3    H153812   3.964   1.052   4.406 -0.5813 -0.6713  0.4745
10799TIP3    H253813   4.065   0.942   4.382 -0.3017 -0.1899 -0.6448
10800TIP3   OH253814   5.537   3.276  16.256 -0.6313 -0.5195 -0.0488
10800TIP3    H153815   5.564   3.202  16.202 -0.6739  1.2523 -2.6877
10800TIP3    H253816   5.610   3.291  16.315 -0.2871 -2.1421 -0.0277
10801TIP3   OH253817   4.603   3.920  14.670  0.0751 -0.3737  0.1490
10801TIP3    H153818   4.666   3.848  14.680 -0.2681 -0.6810  0.1074
10801TIP3    H253819   4.565   3.931  14.757 -0.4434 -0.7713 -0.0244
10802TIP3   OH253820   3.447   1.380  13.282  0.5033 -0.2526 -0.5769
10802TIP3    H153821   3.484   1.341  13.203 -0.3448 -2.2585 -0.0509
10802TIP3    H253822   3.478   1.471  13.281  2.2610 -0.8068 -2.0913
10803TIP3   OH253823   4.855   5.802  11.504 -0.3877 -0.1179  0.0686
10803TIP3    H153824   4.895   5.835  11.585 -1.5652  0.9152  0.2793
10803TIP3    H253825   4.810   5.879  11.468  0.1758 -0.5531 -1.6142
10804TIP3   OH253826   2.685   4.381   5.882 -0.4288 -0.8174 -0.3063
10804TIP3    H153827   2.641   4.459   5.848  0.1326 -0.3855 -0.0572
10804TIP3    H253828   2.626   4.309   5.861 -1.0078 -0.3111 -0.4373
10805TIP3   OH253829   3.891   6.296   3.057 -0.1256 -0.1288 -0.9863
10805TIP3    H153830   3.960   6.298   2.990 -0.1257  0.8642 -0.9673
10805TIP3    H253831   3.932   6.251   3.132  0.3410  0.0273 -1.1441
10806TIP3   OH253832   1.400   5.338   0.661 -0.2735  0.4151 -0.6735
10806TIP3    H153833   1.410   5.429   0.634  2.5652  0.4019 -0.0585
10806TIP3    H253834   1.389   5.342   0.756  3.7893  0.1648 -0.0120
10807TIP3   OH253835   4.163   3.300   5.823  0.2285 -0.4687  0.6981
10807TIP3    H153836   4.125   3.238   5.760  1.7698 -0.8464  0.0885
10807TIP3    H253837   4.158   3.254   5.907  2.1935 -1.8920  0.1192
10808TIP3   OH253838   6.185   4.281  13.085  0.2718 -0.9297 -0.0567
10808TIP3    H153839   6.239   4.302  13.162 -1.1927  0.3488  0.7023
10808TIP3    H253840   6.096   4.274  13.120 -0.2198 -1.9060 -1.4238
10809TIP3   OH253841   5.336   2.072  15.779  0.0976  0.1668 -0.1380
10809TIP3    H153842   5.253   2.025  15.785 -0.3848  1.0321  0.1826
10809TIP3    H253843   5.314   2.163  15.802  1.2533  0.2709  0.6806
10810TIP3   OH253844   4.027   4.298  13.171 -0.6681 -0.5274  0.2624
10810TIP3    H153845   3.985   4.228  13.219  0.6859 -1.0573  0.7097
10810TIP3    H253846   4.112   4.263  13.145 -0.3689  0.5956 -0.3839
10811TIP3   OH253847   5.008   5.467   0.839 -0.7822  0.0710 -0.0711
10811TIP3    H153848   5.091   5.437   0.876 -1.6368 -1.6453  0.5928
10811TIP3    H253849   4.996   5.555   0.875  0.6312  0.2622 -0.0105
10812TIP3   OH253850   2.154   1.677  10.845  0.3693  0.0225  0.0110
10812TIP3    H153851   2.075   1.643  10.803 -0.0306  0.4542  0.3929
10812TIP3    H253852   2.179   1.609  10.908  0.6650 -0.3888 -0.5483
10813TIP3   OH253853   1.144   4.458   2.671 -0.2143  0.3519 -0.4117
10813TIP3    H153854   1.235   4.448   2.698 -0.2960  1.5954  0.3930
10813TIP3    H253855   1.108   4.523   2.731 -1.9034 -0.7905 -0.1136
10814TIP3   OH253856   0.903   2.959   2.283  0.4059  0.3518 -0.2522
10814TIP3    H153857   0.869   3.039   2.322  0.6484  0.9531 -1.2265
10814TIP3    H253858   0.886   2.968   2.189  1.0348 -0.4312 -0.4619
10815TIP3   OH253859   4.029   6.148   5.964 -0.3241  0.4798 -0.1202
10815TIP3    H153860   4.064   6.237   5.954  0.1922  0.4644  1.3809
10815TIP3    H253861   4.105   6.091   5.951 -0.2588  0.3436  0.8257
10816TIP3   OH253862   4.913   2.728   0.074 -0.1252 -0.0066  0.8893
10816TIP3    H153863   4.924   2.744  -0.020  2.9405  0.2669  1.1794
10816TIP3    H253864   4.880   2.811   0.109 -0.5350  0.1473  0.1518
10817TIP3   OH253865   1.934   5.812  14.721 -0.1082  0.4025 -0.3911
10817TIP3    H153866   1.918   5.791  14.629  0.4672 -1.0102 -0.1912
10817TIP3    H253867   1.849   5.803  14.764 -0.3684  1.0193 -0.7579
10818TIP3   OH253868   1.462   2.880  16.406 -0.9064  1.0347 -0.2754
10818TIP3    H153869   1.483   2.789  16.426 -1.7484  0.5469 -1.4720
10818TIP3    H253870   1.411   2.910  16.480  0.4957  0.9783  0.7596
10819TIP3   OH253871   1.687   4.913   0.635  0.2586  0.1699  0.2639
10819TIP3    H153872   1.689   4.846   0.566 -0.0491  0.9862 -0.5619
10819TIP3    H253873   1.771   4.904   0.679 -0.5132 -2.0247  1.4228
10820TIP3   OH253874   1.519   1.144  15.592 -0.0376  0.3635  0.0775
10820TIP3    H153875   1.596   1.139  15.534 -0.1044 -0.5106  0.0409
10820TIP3    H253876   1.550   1.107  15.675 -0.5562 -0.5364 -0.1087
10821TIP3   OH253877   1.859   0.304   2.669  0.3217 -0.5195  0.0795
10821TIP3    H153878   1.893   0.305   2.579 -0.7185  0.9257 -0.3203
10821TIP3    H253879   1.765   0.313   2.659  0.2051 -0.2606  1.3342
10822TIP3   OH253880   4.570   0.812  15.647  0.0543  0.0883 -0.4744
10822TIP3    H153881   4.656   0.781  15.620  0.2485 -0.6063  0.8863
10822TIP3    H253882   4.582   0.905  15.664  0.2445  0.2440 -1.3979
10823TIP3   OH253883   3.174   1.251  12.878  0.4068 -1.1903  0.0313
10823TIP3    H153884   3.099   1.206  12.917 -1.3964  1.0695 -0.5719
10823TIP3    H253885   3.191   1.324  12.938  1.6057 -1.1996 -0.2778
10824TIP3   OH253886   0.937   2.089  13.728  0.2912  0.1469  0.2823
10824TIP3    H153887   0.941   2.012  13.672  0.4809 -0.9879  1.8042
10824TIP3    H253888   0.845   2.115  13.725  0.1005 -0.5095  0.2408
10825TIP3   OH253889   4.324   5.600  14.224  0.1004  0.0527  0.1151
10825TIP3    H153890   4.328   5.678  14.279 -0.3581 -0.0841  0.3448
10825TIP3    H253891   4.414   5.566  14.225 -0.0996 -0.5357  1.6477
10826TIP3   OH253892   0.448   0.778  13.223 -0.0369 -0.3354 -0.3395
10826TIP3    H153893   0.483   0.842  13.162  0.4761  0.0958  0.3896
10826TIP3    H253894   0.381   0.824  13.272 -0.9703 -0.8882 -1.0634
10827TIP3   OH253895   0.468   5.630   4.858  0.1179 -0.3088  0.0843
10827TIP3    H153896   0.469   5.649   4.765 -1.6018 -1.5377 -0.2358
10827TIP3    H253897   0.420   5.703   4.897 -1.1595 -0.9001 -0.3254
10828TIP3   OH253898   6.737   3.706  12.571  0.1884  0.0536  0.0344
10828TIP3    H153899   6.753   3.687  12.478  0.0632  0.4168 -0.0614
10828TIP3    H253900   6.642   3.698  12.581 -0.3469  3.6119 -0.7180
10829TIP3   OH253901   2.371   6.703  12.663  0.0891 -0.1323  0.2052
10829TIP3    H153902   2.420   6.774  12.705 -0.8867  0.4301  0.4358
10829TIP3    H253903   2.423   6.624  12.682  0.9790  0.4543  0.2943
10830TIP3   OH253904   3.001   5.094  11.918  0.1648 -0.1880  0.3371
10830TIP3    H153905   2.958   5.024  11.869  1.0929 -0.6229  0.1079
10830TIP3    H253906   2.941   5.168  11.912 -1.2649 -1.2098  1.3450
10831TIP3   OH253907   5.780   4.199  17.069 -0.1241  0.3194  0.4994
10831TIP3    H153908   5.874   4.215  17.060 -0.5566  1.6981 -2.9599
10831TIP3    H253909   5.771   4.104  17.063  0.9649  0.2653 -0.6593
10832TIP3   OH253910   1.578   1.944   0.765  0.3291 -0.1729  0.0971
10832TIP3    H153911   1.558   1.937   0.672 -1.4544  1.5225  0.2674
10832TIP3    H253912   1.637   1.871   0.783  0.5605 -0.6615 -2.2997
10833TIP3   OH253913   2.951   0.095   4.006  0.4442  0.1826  0.1538
10833TIP3    H153914   2.870   0.044   4.016  0.0068  0.7968 -0.2282
10833TIP3    H253915   2.930   0.181   4.041  0.6328  0.6418 -0.8339
10834TIP3   OH253916   0.397   2.413   3.625 -0.3078 -0.8968 -0.1881
10834TIP3    H153917   0.314   2.411   3.672 -1.2661 -0.2762 -1.7559
10834TIP3    H253918   0.456   2.462   3.682 -1.3852 -0.2554  0.4117
10835TIP3   OH253919   0.189   3.364  16.333 -0.1014  0.0339  0.2221
10835TIP3    H153920   0.122   3.432  16.324 -0.0795  0.0836  0.4359
10835TIP3    H253921   0.165   3.317  16.412  0.0603 -0.0099  0.2450
10836TIP3   OH253922   3.041   1.838   5.730  0.5436  0.1701  0.3663
10836TIP3    H153923   3.095   1.788   5.791 -1.0066  0.6402  2.2348
10836TIP3    H253924   2.971   1.777   5.706 -0.4794  0.8699  1.4262
10837TIP3   OH253925   2.050   3.117  14.635 -0.0006  0.1900 -0.3745
10837TIP3    H153926   2.036   3.064  14.713  0.2191 -1.5378 -1.4501
10837TIP3    H253927   2.111   3.185  14.663  0.8821 -0.9973  0.7385
10838TIP3   OH253928   2.858   4.946  11.269 -0.1508 -0.8185  0.3570
10838TIP3    H153929   2.902   4.923  11.351 -0.4909 -1.6319  0.3230
10838TIP3    H253930   2.919   5.004  11.224 -0.0587 -0.1528  1.2866
10839TIP3   OH253931   0.371   0.944   3.397 -0.2785  0.4924  0.3729
10839TIP3    H153932   0.444   0.923   3.338 -1.1490  0.0626 -0.5792
10839TIP3    H253933   0.303   0.978   3.339 -1.5635 -0.9729  0.9549
10840TIP3   OH253934   2.134   3.044   6.221  0.4736 -0.2136  0.4383
10840TIP3    H153935   2.095   3.117   6.270  1.5584 -0.0705  1.1178
10840TIP3    H253936   2.228   3.055   6.233  0.7350 -0.5507 -1.1901
10841TIP3   OH253937   0.921   6.618   2.352 -0.3937  0.2055 -0.0101
10841TIP3    H153938   0.964   6.571   2.280  1.1706 -1.0772  1.6593
10841TIP3    H253939   0.897   6.549   2.415 -0.9552  1.3539  1.0770
10842TIP3   OH253940   3.327   1.022   2.743  0.0143  0.0497 -0.4915
10842TIP3    H153941   3.253   1.048   2.798 -0.3825 -1.7785 -0.0684
10842TIP3    H253942   3.293   0.948   2.692  1.6928 -1.2676  0.1794
10843TIP3   OH253943   0.676   5.908   1.778 -0.4833  0.6386 -0.1549
10843TIP3    H153944   0.762   5.901   1.819 -0.5846  0.9063  0.1113
10843TIP3    H253945   0.616   5.926   1.851 -0.9539 -0.7511 -0.1712
10844TIP3   OH253946   5.950   0.757   5.857 -0.6932 -0.1873  0.1734
10844TIP3    H153947   5.989   0.712   5.932  0.8755 -0.1754 -0.5826
10844TIP3    H253948   6.021   0.811   5.823 -1.7979  0.8933 -0.4786
10845TIP3   OH253949   2.844   2.365  12.112  0.1913  0.2160 -0.2303
10845TIP3    H153950   2.892   2.434  12.066 -1.4136  0.1023 -2.2185
10845TIP3    H253951   2.847   2.392  12.204  3.5608  0.4301 -0.2845
10846TIP3   OH253952   2.976   4.601   3.962  0.0609  0.2908 -0.1588
10846TIP3    H153953   3.033   4.655   3.906 -0.3121  0.9919  0.1160
10846TIP3    H253954   2.910   4.663   3.994  0.6335  0.0556  1.5760
10847TIP3   OH253955   6.679   2.250  11.569  0.3231 -0.5015  0.6142
10847TIP3    H153956   6.679   2.327  11.627  1.4945 -0.4640  0.5808
10847TIP3    H253957   6.636   2.281  11.489  0.7606  0.1304  0.6075
10848TIP3   OH253958   0.736   5.871  13.982  0.1774 -0.0113  0.1832
10848TIP3    H153959   0.785   5.919  13.915 -1.7574  0.8978 -0.6645
10848TIP3    H253960   0.753   5.920  14.063 -1.2933  1.8740 -0.5606
10849TIP3   OH253961   5.569   5.998  16.361 -0.1427 -0.0118 -0.1653
10849TIP3    H153962   5.552   6.075  16.416 -1.8096 -0.7605  0.4587
10849TIP3    H253963   5.664   5.992  16.357  0.0359  1.8889  0.0172
10850TIP3   OH253964   3.665   2.534  16.517 -0.1853 -0.0720  0.3026
10850TIP3    H153965   3.613   2.455  16.500  1.5991 -1.1573 -0.3905
10850TIP3    H253966   3.711   2.515  16.598  0.4622  0.1331 -0.0091
10851TIP3   OH253967   6.528   3.965  14.537  0.1768  0.0473 -0.4647
10851TIP3    H153968   6.562   3.877  14.522  0.2320  0.1061 -0.6799
10851TIP3    H253969   6.435   3.952  14.559  0.7359 -0.2873  2.0594
10852TIP3   OH253970   0.505   0.486   5.564 -0.2235 -0.2242  0.0113
10852TIP3    H153971   0.518   0.548   5.493 -0.5335 -1.3988 -1.0982
10852TIP3    H253972   0.557   0.410   5.540  0.8345 -0.1109  1.7721
10853TIP3   OH253973   1.354   3.778   3.702 -0.4652  0.2189 -0.5282
10853TIP3    H153974   1.294   3.822   3.641 -2.1967 -1.3678 -0.0617
10853TIP3    H253975   1.353   3.686   3.674 -0.2234 -0.2823  1.0435
10854TIP3   OH253976   5.288   4.041  15.765 -0.1872  0.4300  0.9170
10854TIP3    H153977   5.377   4.039  15.801 -0.6215  0.0014  1.9967
10854TIP3    H253978   5.298   4.003  15.678  0.3130 -2.0610  1.9591
10855TIP3   OH253979   2.894   5.442  12.182  1.0385 -0.4680 -0.5325
10855TIP3    H153980   2.972   5.407  12.139  1.0993 -1.3000  0.2195
10855TIP3    H253981   2.907   5.421  12.275  0.5621  0.6184 -0.2084
10856TIP3   OH253982   3.476   0.763  16.863 -0.6091 -0.5790  0.0443
10856TIP3    H153983   3.513   0.844  16.898  1.3768 -1.4698  0.0997
10856TIP3    H253984   3.525   0.747  16.782 -2.1862 -0.8388 -0.9202
10857TIP3   OH253985   1.902   5.529  16.829 -0.4021 -0.5340  0.6007
10857TIP3    H153986   1.872   5.596  16.767  3.0633  0.9035  0.2505
10857TIP3    H253987   1.883   5.566  16.915 -0.6708 -0.2278  0.4129
10858TIP3   OH253988   6.719   2.212   4.221  0.8483 -0.0083  0.6587
10858TIP3    H153989   6.723   2.177   4.132 -1.0423 -0.4150  0.7031
10858TIP3    H253990   6.790   2.167   4.267  1.8136  0.1677 -0.6074
10859TIP3   OH253991   3.018   0.884  17.194 -0.1092 -0.3443  0.1182
10859TIP3    H153992   3.035   0.975  17.216 -2.5721  0.4754 -0.9473
10859TIP3    H253993   3.058   0.873  17.107  0.8367 -0.5330  0.5662
10860TIP3   OH253994   6.152   1.467  16.572  0.3082 -1.1327 -0.0271
10860TIP3    H153995   6.229   1.491  16.624 -1.9384  4.3627  1.5072
10860TIP3    H253996   6.182   1.472  16.481  2.5207 -3.1247  0.4918
10861TIP3   OH253997   1.594   2.108  11.411  0.0620 -0.6157  0.0255
10861TIP3    H153998   1.689   2.108  11.411  0.1351  0.9007  2.3120
10861TIP3    H253999   1.570   2.015  11.406  1.6941 -1.1446  1.2223
10862TIP3   OH254000   1.166   1.723  12.304  0.1656  0.2370  0.5118
10862TIP3    H154001   1.102   1.670  12.352 -0.6423  1.3451  0.7259
10862TIP3    H254002   1.187   1.672  12.226  0.5580 -1.0464  1.4372
10863TIP3   OH254003   1.627   2.531  14.745  0.3983 -0.1546 -0.1957
10863TIP3    H154004   1.693   2.573  14.800 -0.1441  1.0503 -0.4237
10863TIP3    H254005   1.563   2.495  14.807 -0.0019  0.8471  0.0042
10864TIP3   OH254006   0.153   5.444   1.498 -1.0760  0.2878  0.0101
10864TIP3    H154007   0.116   5.527   1.527  1.3482  0.8177  1.9001
10864TIP3    H254008   0.244   5.464   1.476 -0.1064 -2.0222  1.5261
10865TIP3   OH254009   0.106   6.661  17.140 -0.5981 -0.1517  0.4804
10865TIP3    H154010   0.018   6.623  17.142 -0.6919 -0.0918 -0.9058
10865TIP3    H254011   0.156   6.609  17.203 -1.3147 -1.0636  0.3300
10866TIP3   OH254012   1.472   4.938   2.494 -0.1990 -0.7790 -0.7046
10866TIP3    H154013   1.549   4.977   2.453 -0.7143 -0.3019 -1.2320
10866TIP3    H254014   1.481   4.844   2.476  0.5544 -0.8037 -0.2493
10867TIP3   OH254015   6.125   2.191  13.653  0.3902 -0.0912  0.0074
10867TIP3    H154016   6.030   2.193  13.640  0.7847  0.1963 -3.8764
10867TIP3    H254017   6.144   2.267  13.708 -1.2845  2.9134 -3.1876
10868TIP3   OH254018   0.199   6.636  12.358  0.1097 -0.0979 -0.2204
10868TIP3    H154019   0.135   6.571  12.329  0.0981  0.3966 -1.3721
10868TIP3    H254020   0.279   6.586  12.372 -0.3064 -0.5944  0.4386
10869TIP3   OH254021   2.054   3.204  14.062  0.1511 -0.1800  0.2367
10869TIP3    H154022   2.138   3.248  14.068  1.0176 -1.5712 -1.0162
10869TIP3    H254023   2.005   3.252  13.996 -0.7035  1.5839  2.0601
10870TIP3   OH254024   0.310   5.224  16.980 -0.0890 -0.3846 -0.3764
10870TIP3    H154025   0.319   5.230  16.885  0.8367  0.5064 -0.2422
10870TIP3    H254026   0.392   5.184  17.010 -0.5659 -1.1029  0.0258
10871TIP3   OH254027   3.704   3.502   5.460 -0.1171 -0.2505  0.1346
10871TIP3    H154028   3.711   3.471   5.550 -2.2563 -1.0520  0.0859
10871TIP3    H254029   3.769   3.450   5.412 -0.4032 -1.3348  0.8704
10872TIP3   OH254030   0.907   1.928   5.831 -0.0357 -0.2852 -0.1341
10872TIP3    H154031   0.835   1.865   5.828  0.2188 -0.5938  0.1580
10872TIP3    H254032   0.879   1.999   5.772  0.5165 -1.5557 -2.0093
10873TIP3   OH254033   4.656   4.328  15.888  0.1484  0.0923  0.6240
10873TIP3    H154034   4.681   4.366  15.972 -1.9203  0.0978  1.2809
10873TIP3    H254035   4.668   4.399  15.825 -1.0487  1.0167  1.3967
10874TIP3   OH254036   4.897   6.296  16.161 -0.3172  0.5706 -0.0694
10874TIP3    H154037   4.827   6.278  16.223  0.6615 -1.1968  0.5873
10874TIP3    H254038   4.978   6.278  16.210  0.4706 -1.6186 -2.0127
10875TIP3   OH254039   6.442   0.005  11.700 -0.0328  0.0788 -0.6193
10875TIP3    H154040   6.455   0.062  11.775 -0.0502  1.4513 -1.6378
10875TIP3    H254041   6.352   0.021  11.672 -0.2104 -0.8321 -0.6242
10876TIP3   OH254042   0.924   0.065  12.362 -0.6333 -0.2841 -0.0784
10876TIP3    H154043   0.997   0.008  12.340 -1.1254 -0.8507 -0.2540
10876TIP3    H254044   0.857   0.007  12.399 -0.1735  0.5205  2.1674
10877TIP3   OH254045   4.750   0.741  16.975  0.0327 -0.1542 -0.4094
10877TIP3    H154046   4.718   0.823  16.939  0.8575 -0.3118 -1.5769
10877TIP3    H254047   4.758   0.756  17.069  0.7585  1.3003 -0.6874
10878TIP3   OH254048   2.043   1.106  16.961  0.4161  0.4271  0.0097
10878TIP3    H154049   2.094   1.152  17.028  2.6556  1.8860 -2.4923
10878TIP3    H254050   2.049   1.161  16.883 -2.4191 -0.9554 -1.3766
10879TIP3   OH254051   2.975   5.218  14.057 -0.2783 -0.3328 -0.0209
10879TIP3    H154052   2.908   5.222  14.124 -0.6089 -1.3133 -0.2736
10879TIP3    H254053   3.050   5.177  14.101  0.3390  1.1865  0.3931
10880TIP3   OH254054   4.657   3.293   3.581  0.3164  0.2237 -0.0008
10880TIP3    H154055   4.590   3.309   3.648  0.7273 -0.2083  0.5300
10880TIP3    H254056   4.611   3.304   3.498 -0.0284  1.5421  0.3363
10881TIP3   OH254057   2.936   1.197  11.905  0.0347  0.0345  0.3465
10881TIP3    H154058   2.898   1.214  11.819 -1.7973  1.0369  1.2854
10881TIP3    H254059   2.994   1.122  11.891 -0.5040 -0.0724 -1.6674
10882TIP3   OH254060   3.304   6.433  15.988 -0.0170  0.3520  0.3177
10882TIP3    H154061   3.328   6.355  16.040 -0.5457  0.7455  1.1799
10882TIP3    H254062   3.285   6.500  16.054  0.5403  1.2484 -0.4225
10883TIP3   OH254063   5.123   0.562  14.925 -0.1164  0.1073 -0.0230
10883TIP3    H154064   5.215   0.570  14.950 -0.5605  1.0436  1.4164
10883TIP3    H254065   5.076   0.566  15.008 -1.3881 -1.9307 -0.5776
10884TIP3   OH254066   3.969   6.472   4.330 -0.2279  0.0821  0.7651
10884TIP3    H154067   4.059   6.488   4.301 -0.2939 -0.4716  0.2200
10884TIP3    H254068   3.924   6.555   4.317  0.1444  0.2921  0.8053
10885TIP3   OH254069   1.150   3.725  15.713  0.4496  0.2275  0.3339
10885TIP3    H154070   1.187   3.693  15.796 -0.0751 -2.5920 -0.4410
10885TIP3    H254071   1.222   3.717  15.650  0.0779 -0.1994 -0.0409
10886TIP3   OH254072   4.397   5.846  15.073 -0.1905 -0.1194  0.3340
10886TIP3    H154073   4.473   5.874  15.124 -0.5232 -1.7047  1.7709
10886TIP3    H254074   4.420   5.758  15.041 -1.1671 -0.3615  0.2493
10887TIP3   OH254075   2.851   5.957   6.174 -0.4700 -0.0304  0.0458
10887TIP3    H154076   2.915   5.962   6.103  0.4384  0.5461  0.8737
10887TIP3    H254077   2.865   5.871   6.213 -0.5983 -0.1344 -0.1375
10888TIP3   OH254078   6.035   4.036   1.188  0.2972  0.4881 -0.5595
10888TIP3    H154079   6.094   4.047   1.262 -1.0440 -1.4072  0.8750
10888TIP3    H254080   5.951   4.071   1.219 -0.2208 -0.1193 -1.2469
10889TIP3   OH254081   2.408   6.192  14.700  0.0958  0.1061  0.3853
10889TIP3    H154082   2.394   6.244  14.620  1.1459  1.5463  1.0922
10889TIP3    H254083   2.497   6.158  14.692 -0.6264 -1.7861 -0.1349
10890TIP3   OH254084   4.555   4.609   4.649 -0.0898 -0.0005  0.2664
10890TIP3    H154085   4.536   4.524   4.611 -0.6855  0.6752 -0.9811
10890TIP3    H254086   4.625   4.645   4.595 -0.5009  0.7066  0.1935
10891TIP3   OH254087   6.716   5.625   4.614 -0.6587 -0.3150  0.0842
10891TIP3    H154088   6.772   5.618   4.691 -0.8419 -1.1370  0.1565
10891TIP3    H254089   6.707   5.535   4.583  0.6168  0.1210 -1.7749
10892TIP3   OH254090   6.328   6.040   2.098 -0.2095  0.5922 -0.2386
10892TIP3    H154091   6.368   6.107   2.043  0.7230  2.1667  2.1687
10892TIP3    H254092   6.248   6.081   2.132 -1.6627 -0.9531 -1.6300
10893TIP3   OH254093   4.992   3.137   1.897  0.4632  0.5165  0.2156
10893TIP3    H154094   4.926   3.117   1.963 -0.8242  0.8724 -0.9135
10893TIP3    H254095   4.989   3.232   1.887  0.5789  0.4648 -0.3874
10894TIP3   OH254096   2.249   3.734   0.493  0.1518 -0.0354 -0.0170
10894TIP3    H154097   2.166   3.776   0.517 -0.0085 -0.0448 -0.5259
10894TIP3    H254098   2.285   3.792   0.426  0.1130 -0.5082 -0.4507
10895TIP3   OH254099   3.202   1.916  15.421 -0.2537 -0.0443  0.3020
10895TIP3    H154100   3.261   1.841  15.415 -2.4993 -1.9195  0.5204
10895TIP3    H254101   3.154   1.916  15.338 -1.0509  0.4876  0.7495
10896TIP3   OH254102   5.564   4.225   1.028  0.6801 -0.5619 -0.0824
10896TIP3    H154103   5.534   4.139   1.058  0.4194 -0.5121 -0.1885
10896TIP3    H254104   5.564   4.217   0.932  2.1402 -0.9319 -0.0744
10897TIP3   OH254105   4.607   6.559  14.954  0.1792 -0.2388 -0.8831
10897TIP3    H154106   4.579   6.644  14.989 -1.5998 -1.7072  1.5078
10897TIP3    H254107   4.677   6.530  15.012 -1.6478 -1.9473  0.5736
10898TIP3   OH254108   2.825   6.722   4.241 -0.1987  0.5222  0.0706
10898TIP3    H154109   2.780   6.715   4.326 -1.6721  1.0523 -0.6230
10898TIP3    H254110   2.837   6.816   4.228  1.1870  0.3801  0.2608
10899TIP3   OH254111   6.148   4.683   4.456 -0.2813  0.2513 -0.5895
10899TIP3    H154112   6.194   4.679   4.540 -0.1043 -0.6892 -0.7222
10899TIP3    H254113   6.151   4.594   4.423  1.5470  0.9906 -2.6259
10900TIP3   OH254114   4.587   2.572   2.580 -0.5095 -0.4056  0.5988
10900TIP3    H154115   4.508   2.623   2.598  0.0097  0.6166  0.0876
10900TIP3    H254116   4.646   2.635   2.538  0.0174 -1.5314 -0.3931
10901TIP3   OH254117   4.473   3.573  10.585 -0.2451  0.5700 -0.0058
10901TIP3    H154118   4.432   3.496  10.626 -1.1210  0.6637 -0.6790
10901TIP3    H254119   4.554   3.540  10.547 -0.2585  0.1283  0.3424
10902TIP3   OH254120   6.120   1.152   5.863  0.7978  0.6017  0.3969
10902TIP3    H154121   6.039   1.158   5.914  0.1588  2.4111 -0.7286
10902TIP3    H254122   6.123   1.061   5.834  0.0605  0.0842  1.8117
10903TIP3   OH254123   1.020   5.223  17.187 -0.0247 -0.1794 -0.1486
10903TIP3    H154124   1.048   5.132  17.188  0.5643 -0.1124  3.2315
10903TIP3    H254125   1.102   5.274  17.183 -0.3685  0.2748 -2.5820
10904TIP3   OH254126   3.779   6.408  11.339  0.1055  0.0233 -0.2485
10904TIP3    H154127   3.743   6.352  11.270 -1.3200 -0.5603  0.8991
10904TIP3    H254128   3.872   6.388  11.339  0.3705  0.8968 -2.7239
10905TIP3   OH254129   1.791   4.243  16.774  0.1379  0.2584 -0.0948
10905TIP3    H154130   1.703   4.240  16.810  0.7136 -0.5258  1.3143
10905TIP3    H254131   1.815   4.152  16.759  0.7826  0.4503 -0.2875
10906TIP3   OH254132   0.759   4.719  13.166  0.2825 -0.2758  0.6938
10906TIP3    H154133   0.743   4.751  13.255  1.1024  1.6210  0.2232
10906TIP3    H254134   0.855   4.718  13.159  0.2234  0.3692 -0.4033
10907TIP3   OH254135   4.295   4.951  14.731  0.7352  0.6278  0.6509
10907TIP3    H154136   4.309   4.868  14.776 -1.8077  0.9208  2.1659
10907TIP3    H254137   4.292   4.927  14.638 -0.2007 -1.0429  1.0611
10908TIP3   OH254138   4.023   0.646  14.391 -0.4963 -0.0264 -0.0267
10908TIP3    H154139   4.113   0.613  14.395  0.3364  2.1726  0.7702
10908TIP3    H254140   3.982   0.617  14.472 -0.1665 -0.0946  0.1151
10909TIP3   OH254141   5.683   1.114   6.195 -0.2595 -0.7915  0.2315
10909TIP3    H154142   5.615   1.181   6.196 -0.1535 -0.6018 -1.3931
10909TIP3    H254143   5.635   1.031   6.196 -0.6014 -0.6610 -1.4478
10910TIP3   OH254144   1.451   3.051   5.426 -0.1595 -0.1507  0.3398
10910TIP3    H154145   1.496   3.108   5.363 -0.8464 -1.0774 -1.0436
10910TIP3    H254146   1.511   2.978   5.439 -0.4950 -0.5310 -0.1710
10911TIP3   OH254147   5.152   6.080  16.062  0.3676  0.0993 -0.2659
10911TIP3    H154148   5.076   6.035  16.099 -0.6752  0.5261 -1.7890
10911TIP3    H254149   5.173   6.148  16.126 -0.7027  0.1352  0.0721
10912TIP3   OH254150   4.168   2.393   0.652 -0.0854  0.0422 -0.7331
10912TIP3    H154151   4.159   2.363   0.562 -0.3005  1.0647 -1.0695
10912TIP3    H254152   4.190   2.486   0.645 -1.2676  0.4360  0.2622
10913TIP3   OH254153   3.757   0.741  12.066 -0.1309  0.5273 -0.4389
10913TIP3    H154154   3.726   0.830  12.049  1.0472  0.8344 -1.1511
10913TIP3    H254155   3.804   0.716  11.986 -0.5594 -0.8009 -0.3114
10914TIP3   OH254156   3.438   5.452  17.359 -0.2229  0.0144 -0.1632
10914TIP3    H154157   3.387   5.431  17.281  2.0717 -2.5365 -1.1392
10914TIP3    H254158   3.494   5.525  17.332 -0.6455  0.2857 -0.3198
10915TIP3   OH254159   0.552   5.778  11.446  0.4800 -0.4305 -0.3087
10915TIP3    H154160   0.494   5.746  11.376  0.2344  0.0861 -0.3425
10915TIP3    H254161   0.634   5.800  11.401  0.2571  0.0882 -0.4705
10916TIP3   OH254162   3.430   0.906   2.259  0.8043 -0.1044  0.4459
10916TIP3    H154163   3.370   0.964   2.212 -0.3631 -0.6138  1.2522
10916TIP3    H254164   3.445   0.949   2.342 -0.9078 -1.3740  1.4887
10917TIP3   OH254165   1.837   2.045  13.340 -0.0725 -0.1318  0.4460
10917TIP3    H154166   1.849   2.051  13.435  2.3145  1.1778  0.1446
10917TIP3    H254167   1.769   2.109  13.321  0.4787  0.6900  1.1526
10918TIP3   OH254168   3.127   3.668   5.008 -0.1358 -0.5945 -0.0544
10918TIP3    H154169   3.128   3.723   5.086 -0.8933  0.0693 -0.5008
10918TIP3    H254170   3.219   3.657   4.985  0.0926 -0.7673  0.9052
10919TIP3   OH254171   5.873   4.182   5.015 -0.4406 -0.2631  0.5086
10919TIP3    H154172   5.865   4.267   4.972 -0.1736 -0.9790 -1.0406
10919TIP3    H254173   5.806   4.128   4.973  0.0602 -1.0934  0.7598
10920TIP3   OH254174   2.529   1.661   1.294  0.9536  0.2362  0.4887
10920TIP3    H154175   2.561   1.704   1.373  0.7177 -0.7377  1.1427
10920TIP3    H254176   2.527   1.729   1.228  1.5181  0.9856  1.2294
10921TIP3   OH254177   3.582   4.343  11.486  0.2624  0.4293 -0.2799
10921TIP3    H154178   3.548   4.386  11.408  2.1052  1.0281 -0.8128
10921TIP3    H254179   3.617   4.414  11.540  2.1219 -0.2058 -0.5511
10922TIP3   OH254180   1.232   6.068  16.540  0.2332 -0.1481 -0.6371
10922TIP3    H154181   1.321   6.091  16.564 -0.2212  0.5884  0.4254
10922TIP3    H254182   1.201   6.014  16.614 -0.2271 -0.3296 -0.9589
10923TIP3   OH254183   5.114   6.244  11.330 -0.8509  0.2220 -0.6161
10923TIP3    H154184   5.074   6.282  11.251  1.6344 -0.0522 -2.1190
10923TIP3    H254185   5.086   6.153  11.329  0.1238 -0.1061 -1.9626
10924TIP3   OH254186   1.453   4.218   5.074 -0.0302 -0.4675  0.2651
10924TIP3    H154187   1.380   4.177   5.027  0.4899 -0.9742 -0.1194
10924TIP3    H254188   1.530   4.172   5.042  0.4711  0.1389  0.5849
10925TIP3   OH254189   1.956   0.351   6.093  0.0415  0.0793  1.1047
10925TIP3    H154190   2.020   0.294   6.135  1.5217  0.5893 -0.3826
10925TIP3    H254191   1.983   0.439   6.118  1.0951  0.4123 -1.0120
10926TIP3   OH254192   3.374   1.058  10.667  0.3783  0.0010 -0.2833
10926TIP3    H154193   3.374   1.098  10.754  0.1874 -2.0059  0.6805
10926TIP3    H254194   3.457   1.010  10.663 -0.0647 -0.7235 -0.8178
10927TIP3   OH254195   6.012   2.147   2.831 -0.5490  0.5718  0.9031
10927TIP3    H154196   5.998   2.117   2.921 -0.7061 -0.5491  0.5157
10927TIP3    H254197   5.987   2.239   2.833 -1.2753  0.3751  1.8387
10928TIP3   OH254198   0.036   5.614  11.868  0.3254 -0.2581  0.1759
10928TIP3    H154199   0.039   5.633  11.774  0.5318  0.6377  0.3608
10928TIP3    H254200   0.013   5.697  11.908 -1.2120 -0.9525  0.8140
10929TIP3   OH254201   5.441   4.103   2.963 -0.0903 -0.7800  0.3390
10929TIP3    H154202   5.360   4.065   2.928 -0.6004  1.1834 -0.7252
10929TIP3    H254203   5.505   4.032   2.957 -1.2439 -1.7892 -0.6028
10930TIP3   OH254204   2.490   6.693   6.447  0.0025 -0.3951 -0.2060
10930TIP3    H154205   2.508   6.599   6.447 -0.2597 -0.4553 -0.9455
10930TIP3    H254206   2.408   6.702   6.399  0.7757  0.3253 -1.4619
10931TIP3   OH254207   1.587   3.632  12.795 -0.0975 -0.6588 -0.0726
10931TIP3    H154208   1.563   3.697  12.729 -0.8296 -1.1154 -0.2749
10931TIP3    H254209   1.553   3.549  12.760 -0.7195 -0.8741  0.9862
10932TIP3   OH254210   2.602   2.565   1.793  0.1322  0.2964 -0.2526
10932TIP3    H154211   2.612   2.510   1.715 -0.4499 -0.5689  0.2659
10932TIP3    H254212   2.680   2.621   1.794  0.9748 -0.8507 -0.5344
10933TIP3   OH254213   4.729   5.057   6.563 -0.1014  0.8043  0.2465
10933TIP3    H154214   4.729   5.100   6.477 -0.7403 -0.4391 -0.4195
10933TIP3    H254215   4.733   5.129   6.626  0.2219  1.7579 -0.8198
10934TIP3   OH254216   6.352   4.865   6.271 -0.3343  0.5641 -0.6003
10934TIP3    H154217   6.313   4.935   6.323  0.0625  0.6413 -0.4027
10934TIP3    H254218   6.401   4.812   6.334 -1.4234 -0.4641 -0.5895
10935TIP3   OH254219   4.636   1.883   5.090  0.0711 -0.1466 -0.7174
10935TIP3    H154220   4.563   1.860   5.033 -0.2371 -2.8579  0.6131
10935TIP3    H254221   4.696   1.809   5.083 -0.6667 -1.3873  3.4259
10936TIP3   OH254222   0.544   1.542   4.471  0.3958  0.1082  0.3160
10936TIP3    H154223   0.547   1.451   4.502 -0.9234 -0.0064  0.1681
10936TIP3    H254224   0.574   1.593   4.546 -1.6122 -0.2633  1.4555
10937TIP3   OH254225   0.861   0.457  11.547  0.0547  0.2454  0.1416
10937TIP3    H154226   0.789   0.402  11.579 -1.6710  2.7198  0.7951
10937TIP3    H254227   0.875   0.428  11.457 -1.9824 -0.1177 -0.1103
10938TIP3   OH254228   2.013   6.348   5.250 -0.0740  0.3846 -0.1333
10938TIP3    H154229   2.021   6.441   5.229  1.3862 -0.1511 -2.2740
10938TIP3    H254230   2.095   6.328   5.295 -0.2816  0.0843  0.1078
10939TIP3   OH254231   6.656   6.723   2.475  0.0600 -0.2232 -0.2607
10939TIP3    H154232   6.654   6.818   2.462 -0.9995 -0.3294 -0.9211
10939TIP3    H254233   6.574   6.692   2.438  1.0545 -1.5787 -1.4017
10940TIP3   OH254234   4.713   2.889  17.214 -0.6416  0.4579 -0.2289
10940TIP3    H154235   4.659   2.812  17.196  0.2945  0.2233 -2.3605
10940TIP3    H254236   4.797   2.870  17.173  0.2409  1.8591  0.8149
10941TIP3   OH254237   0.530   2.894  16.325  0.2703 -0.2876  0.3217
10941TIP3    H154238   0.609   2.840  16.329  1.1481  0.9639  0.6792
10941TIP3    H254239   0.563   2.984  16.330 -1.0152  0.3762 -1.8372
10942TIP3   OH254240   2.425   6.004  16.731  0.2443 -0.0379 -0.2727
10942TIP3    H154241   2.442   6.029  16.640  0.9398 -0.1657 -0.1884
10942TIP3    H254242   2.333   5.978  16.732  1.0167 -3.4649 -1.7920
10943TIP3   OH254243   5.461   2.576  12.906 -0.1433  0.3919  0.1822
10943TIP3    H154244   5.369   2.591  12.884 -0.6074 -0.3623  1.5041
10943TIP3    H254245   5.466   2.483  12.927  0.0015  1.0965  4.0194
10944TIP3   OH254246   3.804   5.467  12.684  0.0458 -0.0694 -0.1348
10944TIP3    H154247   3.729   5.470  12.625  1.8071 -0.8411 -2.5637
10944TIP3    H254248   3.782   5.529  12.754 -2.2573  0.7248 -1.4652
10945TIP3   OH254249   1.362   5.815  14.875  0.0271  0.0222 -0.3230
10945TIP3    H154250   1.449   5.795  14.841  0.7749  2.8706 -0.3345
10945TIP3    H254251   1.370   5.804  14.970  0.8120  1.4871 -0.1963
10946TIP3   OH254252   3.344   6.512   5.468 -0.7615 -0.1934  0.1615
10946TIP3    H154253   3.346   6.442   5.532 -1.8009 -0.9934 -0.6440
10946TIP3    H254254   3.352   6.468   5.383 -1.4340  0.6439 -0.3589
10947TIP3   OH254255   5.172   1.496   0.909  0.3478 -0.2637  0.1800
10947TIP3    H154256   5.206   1.576   0.950  0.4009  0.4051 -1.0958
10947TIP3    H254257   5.238   1.473   0.844 -0.8911  0.2036 -1.3107
10948TIP3   OH254258   6.608   6.727  16.907  0.0531  0.1328  0.0468
10948TIP3    H154259   6.576   6.817  16.916  0.9015  0.5677 -1.0329
10948TIP3    H254260   6.699   6.737  16.879  0.6189 -1.0772  1.3149
10949TIP3   OH254261   1.676   1.485   4.436  0.3697  0.5712  0.1293
10949TIP3    H154262   1.765   1.475   4.402 -0.5455 -0.3781 -2.2734
10949TIP3    H254263   1.631   1.405   4.408 -0.8398  0.2286  2.7705
10950TIP3   OH254264   2.887   4.911  15.325  0.1476  0.6268 -0.1804
10950TIP3    H154265   2.801   4.900  15.365  0.2648 -1.5030 -0.4121
10950TIP3    H254266   2.933   4.829  15.343  2.2321  1.8062  0.1323
10951TIP3   OH254267   2.825   6.403   5.095  0.2102 -0.0786  0.1424
10951TIP3    H154268   2.867   6.331   5.048  1.4627 -1.5116  3.1982
10951TIP3    H254269   2.867   6.403   5.181 -0.7998  3.3967  0.7896
10952TIP3   OH254270   3.281   4.718   4.585  0.0241 -0.6901  0.5665
10952TIP3    H154271   3.357   4.660   4.588 -0.1155 -0.8574  0.9234
10952TIP3    H254272   3.279   4.750   4.494  1.9098  1.1884  1.0876
10953TIP3   OH254273   2.152   0.382   0.367  0.4153 -0.5243  1.1493
10953TIP3    H154274   2.119   0.333   0.291  1.3559  0.6051 -0.0407
10953TIP3    H254275   2.206   0.319   0.415  2.5522 -0.4734 -0.9724
10954TIP3   OH254276   3.247   2.050  12.422 -0.0626 -0.4606 -0.4009
10954TIP3    H154277   3.189   2.126  12.419 -0.3640 -0.6796 -0.2783
10954TIP3    H254278   3.335   2.085  12.410 -0.0317  0.0795  1.1942
10955TIP3   OH254279   5.247   6.458  12.876 -0.2115  0.4780  0.0231
10955TIP3    H154280   5.311   6.469  12.805  1.2754 -2.9253  0.6579
10955TIP3    H254281   5.273   6.523  12.941 -0.8666  2.8401 -1.9267
10956TIP3   OH254282   2.857   6.055  15.638  0.0892  0.6067  0.0677
10956TIP3    H154283   2.936   6.087  15.596  1.2506 -2.7005 -0.5490
10956TIP3    H254284   2.793   6.126  15.627  2.3440  2.5670 -1.1689
10957TIP3   OH254285   6.412   6.356  16.114 -0.0139  0.0916 -0.0329
10957TIP3    H154286   6.488   6.410  16.091 -0.5972  1.4296  1.0602
10957TIP3    H254287   6.339   6.418  16.119 -1.0304 -1.0405 -0.2260
10958TIP3   OH254288   2.577   1.081  15.784  0.3722 -0.3226  0.1486
10958TIP3    H154289   2.548   1.054  15.872 -1.0365  0.7429  0.0567
10958TIP3    H254290   2.546   1.012  15.726  0.2972 -0.4680  0.3591
10959TIP3   OH254291   0.800   3.349   3.567 -0.0844 -0.1484 -0.0289
10959TIP3    H154292   0.840   3.378   3.485 -1.5740  0.6440 -0.5271
10959TIP3    H254293   0.854   3.387   3.636  1.1223 -0.7241 -0.6298
10960TIP3   OH254294   1.546   5.365   4.333 -0.1079  0.7243  0.1647
10960TIP3    H154295   1.541   5.450   4.289 -0.2873  0.4892 -0.2689
10960TIP3    H254296   1.469   5.317   4.303 -0.5394  0.7630  1.1678
10961TIP3   OH254297   0.039   6.294   3.184 -0.0907 -0.0781  0.4409
10961TIP3    H154298   0.048   6.199   3.194 -0.1742 -0.0072  1.2084
10961TIP3    H254299  -0.054   6.312   3.199 -0.2493  0.0271 -0.5889
10962TIP3   OH254300   2.170   1.822  11.058 -0.3786  0.0111  0.4574
10962TIP3    H154301   2.078   1.803  11.076 -0.2712 -1.0562 -0.0787
10962TIP3    H254302   2.186   1.785  10.972  0.3201  1.0194  0.1324
10963TIP3   OH254303   2.622   3.806   0.373  0.3633 -0.1152 -0.3458
10963TIP3    H154304   2.617   3.732   0.434  1.4321 -0.8073 -1.0631
10963TIP3    H254305   2.585   3.880   0.422 -1.9119 -1.3552 -0.0397
10964TIP3   OH254306   5.200   2.038   3.454 -0.6563 -0.1276 -0.0983
10964TIP3    H154307   5.207   1.966   3.517  1.4847 -0.6677 -0.8716
10964TIP3    H254308   5.139   2.006   3.388 -2.3336  0.1507  1.2297
10965TIP3   OH254309   1.241   5.085  14.548  0.1274  0.0958  0.1782
10965TIP3    H154310   1.167   5.081  14.609  0.4885 -0.2064  0.5954
10965TIP3    H254311   1.283   5.169  14.568 -0.8799  0.9194 -0.9791
10966TIP3   OH254312   0.788   6.421   2.553  0.1568  0.4240 -0.0522
10966TIP3    H154313   0.767   6.474   2.629  3.9793  0.4252  1.2139
10966TIP3    H254314   0.740   6.339   2.567 -1.4954  1.4703  0.7565
10967TIP3   OH254315   4.456   4.675  16.434 -0.3719  0.3501  0.4965
10967TIP3    H154316   4.480   4.752  16.382 -0.4931 -0.4875 -0.8205
10967TIP3    H254317   4.520   4.608  16.411  0.0257  0.1738  1.9997
10968TIP3   OH254318   0.205   4.317  15.347 -0.0377 -0.0101  0.2989
10968TIP3    H154319   0.290   4.281  15.319 -0.2423 -0.5881  0.4107
10968TIP3    H254320   0.159   4.335  15.265 -0.0685 -0.3338  0.2428
10969TIP3   OH254321   4.711   2.083   3.920 -0.1226  0.3061 -0.4723
10969TIP3    H154322   4.660   2.026   3.979 -2.1416  1.9716 -0.4940
10969TIP3    H254323   4.645   2.123   3.864  1.6261 -0.1284 -2.9695
10970TIP3   OH254324   2.973   2.622  13.576  0.4960 -0.2592  0.7079
10970TIP3    H154325   2.930   2.594  13.495  0.3129  0.3924  0.5681
10970TIP3    H254326   2.959   2.551  13.638 -1.5734  0.2828  0.9462
10971TIP3   OH254327   1.062   6.162  15.768 -0.1715 -0.0491 -0.1395
10971TIP3    H154328   1.013   6.242  15.751  0.6162  1.0384  2.3333
10971TIP3    H254329   1.125   6.157  15.696 -1.3247  0.5946 -1.2416
10972TIP3   OH254330   1.463   2.207   6.854 -0.5716  0.3164  0.5850
10972TIP3    H154331   1.527   2.279   6.848  0.1042 -0.2745  0.5223
10972TIP3    H254332   1.463   2.169   6.766  0.7026 -1.1099  1.1602
10973TIP3   OH254333   2.757   4.576  13.493  0.0257  0.4138 -0.2226
10973TIP3    H154334   2.710   4.498  13.522  0.2141  0.7656  1.1086
10973TIP3    H254335   2.840   4.544  13.459  0.7061  0.0915  1.6035
10974TIP3   OH254336   5.182   2.872  11.511  0.0801 -0.1669  0.0738
10974TIP3    H154337   5.197   2.967  11.512  1.1053 -0.3024 -0.4705
10974TIP3    H254338   5.228   2.840  11.588 -2.3655  0.0182  1.7075
10975TIP3   OH254339   0.607   5.517   3.959  0.0720 -0.1674 -0.2715
10975TIP3    H154340   0.631   5.451   4.024  0.6876  0.2538 -0.0617
10975TIP3    H254341   0.597   5.467   3.878  3.5959 -0.2309 -0.8521
10976TIP3   OH254342   2.670   0.327   6.455  0.2072  0.2842 -0.1927
10976TIP3    H154343   2.758   0.311   6.488 -0.2800 -0.7718  0.6590
10976TIP3    H254344   2.627   0.376   6.526 -0.0532  0.3423 -0.3887
10977TIP3   OH254345   2.568   2.797  16.151  0.2453 -0.0846 -0.0412
10977TIP3    H154346   2.662   2.788  16.140  0.4097  1.8039 -0.4084
10977TIP3    H254347   2.553   2.788  16.245  1.2354  2.8670  0.4731
10978TIP3   OH254348   5.032   4.151   1.329 -0.3436 -0.7228  0.5450
10978TIP3    H154349   5.011   4.242   1.350 -0.8492 -0.8190  0.4808
10978TIP3    H254350   4.977   4.100   1.389  0.1561 -0.9865  0.7866
10979TIP3   OH254351   4.196   1.770  16.321  0.0998 -0.0648  0.0877
10979TIP3    H154352   4.236   1.757  16.236  0.6612  1.6082  0.0626
10979TIP3    H254353   4.103   1.786  16.302 -0.3398 -2.3593  0.0305
10980TIP3   OH254354   2.403   3.548   1.839  0.0978 -0.6781 -0.3476
10980TIP3    H154355   2.367   3.562   1.927 -1.9623 -4.2769 -0.4062
10980TIP3    H254356   2.493   3.519   1.855  0.2244  0.1215  0.4664
10981TIP3   OH254357   2.290   1.208  15.945  0.5017 -0.0795  0.1327
10981TIP3    H154358   2.278   1.151  15.869 -0.4869  0.2942 -0.0028
10981TIP3    H254359   2.205   1.207  15.990  0.8945  0.1828  0.8994
10982TIP3   OH254360   0.345   0.795   2.257 -0.3434 -0.3722  0.2669
10982TIP3    H154361   0.409   0.727   2.275  1.3131 -0.0890 -3.5369
10982TIP3    H254362   0.265   0.748   2.232  0.2568 -0.9465 -0.6468
10983TIP3   OH254363   1.646   0.544   0.622 -0.3127 -0.5081  0.1512
10983TIP3    H154364   1.683   0.456   0.621  0.0394 -0.3656  0.3996
10983TIP3    H254365   1.630   0.565   0.530  0.7385 -0.3547 -0.0049
10984TIP3   OH254366   0.959   1.194   0.207  0.0623 -0.1531  0.4664
10984TIP3    H154367   0.901   1.268   0.224  1.8798  1.2305  0.9532
10984TIP3    H254368   1.047   1.232   0.202  1.2430 -2.4047  1.9517
10985TIP3   OH254369   6.110   0.887   3.460 -0.7491  0.2906  0.0494
10985TIP3    H154370   6.047   0.925   3.399 -0.0161  0.4569 -0.5995
10985TIP3    H254371   6.171   0.957   3.479 -0.9212  0.2167  0.9226
10986TIP3   OH254372   3.011   4.515  13.378 -0.2394  0.3216 -0.3877
10986TIP3    H154373   3.069   4.570  13.325  1.4477 -0.8554  0.1492
10986TIP3    H254374   2.970   4.455  13.315 -0.3474  0.7065 -0.6854
10987TIP3   OH254375   6.063   2.713  12.354  0.2852  0.2098 -0.1859
10987TIP3    H154376   6.027   2.698  12.441 -0.1911  0.5244 -0.3304
10987TIP3    H254377   6.149   2.670  12.357  0.6541  0.9687  0.7205
10988TIP3   OH254378   3.587   2.679   5.547 -0.1374 -0.0973  0.1037
10988TIP3    H154379   3.595   2.744   5.477  0.6927 -0.1515  0.1427
10988TIP3    H254380   3.670   2.632   5.546 -1.0283 -1.7197 -0.4581
10989TIP3   OH254381   4.446   3.938  14.883 -0.2917 -0.5325 -1.0664
10989TIP3    H154382   4.360   3.896  14.885 -0.5030 -0.1208  0.6167
10989TIP3    H254383   4.427   4.032  14.883  0.1340 -0.4344 -0.0799
10990TIP3   OH254384   6.111   2.926   6.357 -0.6595  0.3392 -0.7439
10990TIP3    H154385   6.131   2.990   6.425 -2.6872  0.5851 -0.3231
10990TIP3    H254386   6.143   2.843   6.391  0.4677  0.8373 -0.5530
10991TIP3   OH254387   2.262   5.277   4.501  0.4517 -0.5315 -0.4940
10991TIP3    H154388   2.336   5.310   4.449  0.5768  0.4988  0.3021
10991TIP3    H254389   2.303   5.223   4.569  0.5183  0.3099  0.1500
10992TIP3   OH254390   1.145   1.272  12.670 -0.1001 -0.3234 -0.4236
10992TIP3    H154391   1.091   1.194  12.682 -0.0935 -0.6906 -2.3924
10992TIP3    H254392   1.184   1.288  12.756 -0.3668 -2.2979  0.1146
10993TIP3   OH254393   3.822   4.091  11.649  0.2761 -0.6541  0.3882
10993TIP3    H154394   3.732   4.116  11.670  0.3964 -1.1068  1.5385
10993TIP3    H254395   3.829   4.103  11.554 -0.5226  0.8544  0.4893
10994TIP3   OH254396   0.312   1.207  16.943  0.3755 -0.4496 -0.2524
10994TIP3    H154397   0.307   1.134  16.882 -0.1519 -0.0807 -0.6502
10994TIP3    H254398   0.241   1.265  16.918  0.9393  0.3214 -0.0924
10995TIP3   OH254399   5.298   1.203  15.113 -0.1219  0.2940  0.0775
10995TIP3    H154400   5.204   1.223  15.107  0.2539  1.7748 -1.9895
10995TIP3    H254401   5.331   1.265  15.178 -0.3373  0.8513 -0.3359
10996TIP3   OH254402   3.750   5.093   1.588 -0.3068 -0.7434 -0.1557
10996TIP3    H154403   3.846   5.092   1.592 -0.2564 -0.9580 -1.1938
10996TIP3    H254404   3.730   5.087   1.495 -1.3359 -0.8292  0.0638
10997TIP3   OH254405   5.387   5.974   2.153  0.1979  0.7798 -0.6014
10997TIP3    H154406   5.462   6.018   2.112 -0.5626 -0.7499 -3.9716
10997TIP3    H254407   5.311   6.020   2.118 -0.5453 -1.8485 -2.7040
10998TIP3   OH254408   4.678   1.162   5.220  0.1937 -0.3277  0.2902
10998TIP3    H154409   4.663   1.173   5.127 -0.5693  1.2805  0.5815
10998TIP3    H254410   4.621   1.088   5.245  1.1197 -1.3958 -0.6607
10999TIP3   OH254411   1.978   0.703  13.162  0.2399 -0.3966  0.2178
10999TIP3    H154412   1.910   0.667  13.105 -1.8631  1.4979  1.3781
10999TIP3    H254413   2.025   0.766  13.106 -3.2884  3.2071  0.8867
11000TIP3   OH254414   4.989   4.775   4.391  0.4474  0.1962 -0.2499
11000TIP3    H154415   4.996   4.819   4.306  1.5658 -2.5890 -1.7420
11000TIP3    H254416   4.989   4.682   4.369  1.5865 -0.6570  2.8815
11001TIP3   OH254417   1.968   0.373   6.534 -0.2928  0.4742 -0.3180
11001TIP3    H154418   2.056   0.335   6.528 -0.9856 -1.1980 -0.4657
11001TIP3    H254419   1.973   0.454   6.483  1.0505  0.2010 -0.6540
11002TIP3   OH254420   4.587   6.493   3.037  0.4310  0.0690  0.0419
11002TIP3    H154421   4.641   6.568   3.066  0.9413 -0.0627 -0.5535
11002TIP3    H254422   4.648   6.419   3.039 -0.1282 -0.3891  0.8439
11003TIP3   OH254423   2.269   2.873  11.611  0.9126  0.1612 -0.0243
11003TIP3    H154424   2.209   2.912  11.547 -0.2301 -1.0274  0.2690
11003TIP3    H254425   2.315   2.805  11.562  2.0577  1.0606 -0.2446
11004TIP3   OH254426   0.871   2.200   4.810  0.3052  0.2579  0.0471
11004TIP3    H154427   0.861   2.145   4.733 -1.5172 -0.1114  0.4964
11004TIP3    H254428   0.884   2.138   4.882  0.3169  0.5182  0.2719
11005TIP3   OH254429   2.616   2.728  12.492  0.1310  0.4489  0.0277
11005TIP3    H154430   2.559   2.688  12.558 -0.2202  1.2585  0.2334
11005TIP3    H254431   2.694   2.755  12.540  0.9960 -1.2113 -0.3647
11006TIP3   OH254432   2.339   3.002   1.290 -0.0045 -0.1260  0.2053
11006TIP3    H154433   2.335   3.021   1.384 -0.2122  0.5946  0.0514
11006TIP3    H254434   2.323   3.086   1.247 -0.1631 -0.4981 -0.4807
11007TIP3   OH254435   2.008   2.239   4.558  0.1515 -0.5044  0.0835
11007TIP3    H154436   2.014   2.145   4.545  2.4567 -0.3288 -0.5190
11007TIP3    H254437   2.008   2.276   4.469  1.3679  0.1188  0.3164
11008TIP3   OH254438   0.902   4.128   5.740 -0.4689 -0.8285  0.2938
11008TIP3    H154439   0.883   4.123   5.834  0.2750  0.1106  0.4991
11008TIP3    H254440   0.993   4.155   5.735 -1.5744  3.3365 -0.6672
11009TIP3   OH254441   2.800   6.152   4.573  0.7336 -0.0223  0.2347
11009TIP3    H154442   2.852   6.118   4.646 -0.3788 -1.8868  0.2247
11009TIP3    H254443   2.797   6.080   4.510  0.5290  1.0720 -1.0690
11010TIP3   OH254444   3.109   6.547  13.861 -0.3419 -0.4335  0.0289
11010TIP3    H154445   3.169   6.487  13.819 -0.7855 -1.3422  0.6675
11010TIP3    H254446   3.076   6.602  13.790  3.3085  2.0542 -0.0468
11011TIP3   OH254447   2.525   2.701  15.136 -0.2721  0.0327  0.1493
11011TIP3    H154448   2.595   2.651  15.176  0.1008 -0.1040 -0.6658
11011TIP3    H254449   2.562   2.734  15.054 -0.7645  0.9716  0.2896
11012TIP3   OH254450   4.904   3.340  16.553  0.2456 -0.1579 -0.6430
11012TIP3    H154451   4.857   3.257  16.541 -1.3947  0.7255 -0.5421
11012TIP3    H254452   4.984   3.315  16.601  0.0288 -1.7354 -1.0454
11013TIP3   OH254453   4.381   6.443  12.018  0.1631  0.1708 -0.2579
11013TIP3    H154454   4.292   6.433  11.985 -0.6166  2.1060  1.0025
11013TIP3    H254455   4.387   6.383  12.092 -0.3768  0.5456  0.0975
11014TIP3   OH254456   4.461   4.461   2.775  0.2906 -0.8570 -0.3557
11014TIP3    H154457   4.379   4.456   2.727  0.4712 -0.1389 -0.7562
11014TIP3    H254458   4.498   4.546   2.751  0.8149 -0.8680  0.3626
11015TIP3   OH254459   4.328   3.418  14.412  0.1624  0.9336 -0.4407
11015TIP3    H154460   4.380   3.354  14.362  0.6381 -0.3481  1.5724
11015TIP3    H254461   4.376   3.500  14.402  0.0447  0.8134 -2.3335
11016TIP3   OH254462   5.128   6.365   1.099  0.7036  0.1909 -0.2284
11016TIP3    H154463   5.082   6.355   1.015  0.0889 -0.8834  0.2314
11016TIP3    H254464   5.211   6.406   1.075  0.7590 -0.5786 -1.4422
11017TIP3   OH254465   6.294   3.607   1.553 -0.0708 -0.4091 -0.1107
11017TIP3    H154466   6.271   3.638   1.465 -1.3967  0.0836  0.3874
11017TIP3    H254467   6.233   3.536   1.570 -0.6435  0.2979  0.8762
11018TIP3   OH254468   2.965   6.601  11.740  0.1950  0.0682  0.1344
11018TIP3    H154469   2.920   6.685  11.749 -0.8353 -0.4137 -0.4249
11018TIP3    H254470   2.979   6.573  11.831  2.9122  2.0288  0.4431
11019TIP3   OH254471   0.804   1.515  11.249  0.6515  0.3316 -0.4111
11019TIP3    H154472   0.726   1.505  11.304  0.5866  0.8332 -0.4071
11019TIP3    H254473   0.782   1.585  11.188  0.0953 -1.3052 -2.1927
11020TIP3   OH254474   5.397   0.996   1.715  0.2858  0.3140  0.4130
11020TIP3    H154475   5.381   0.937   1.642 -1.5150 -1.6016  2.2397
11020TIP3    H254476   5.477   1.043   1.690 -0.2602 -0.2189 -2.7396
11021TIP3   OH254477   0.240   0.782   3.923  0.0766 -0.5718  0.2189
11021TIP3    H154478   0.234   0.824   3.837  0.6154  1.2020  1.0026
11021TIP3    H254479   0.151   0.754   3.942 -1.0462  2.9062  0.8780
11022TIP3   OH254480   4.793   5.388  13.868  0.4833  0.1906 -0.2503
11022TIP3    H154481   4.709   5.435  13.872 -0.2448 -1.1563  1.3392
11022TIP3    H254482   4.850   5.436  13.928 -0.9625 -2.0934  3.2470
11023TIP3   OH254483   4.240   6.660   1.975 -0.1864  0.1200 -1.0490
11023TIP3    H154484   4.219   6.620   1.890  0.4259 -2.6179 -0.0200
11023TIP3    H254485   4.169   6.632   2.032  1.2943 -1.3080  0.1987
11024TIP3   OH254486   6.206   5.060  15.231  0.4849  0.0393  0.0845
11024TIP3    H154487   6.132   5.012  15.195 -0.6080  1.0435  0.8706
11024TIP3    H254488   6.168   5.109  15.305  1.9424  0.5612  0.5196
11025TIP3   OH254489   1.490   2.538  11.578  0.0092  0.2378  0.0089
11025TIP3    H154490   1.533   2.584  11.651  0.8340 -0.5387  0.0331
11025TIP3    H254491   1.410   2.588  11.562  1.0574  1.9057 -0.2273
11026TIP3   OH254492   3.060   3.038   0.212  0.2234 -0.6118 -0.0497
11026TIP3    H154493   3.075   2.944   0.209 -1.2184 -0.8526 -0.9442
11026TIP3    H254494   2.972   3.049   0.176  1.1653  1.2702 -2.0027
11027TIP3   OH254495   5.146   4.362   2.270 -0.0577  0.1842  0.1729
11027TIP3    H154496   5.205   4.407   2.332  0.2589  1.5391 -1.0543
11027TIP3    H254497   5.168   4.400   2.185 -2.9739  1.0820 -0.2904
11028TIP3   OH254498   2.393   4.614   4.608  0.2080  0.1452  0.2095
11028TIP3    H154499   2.309   4.618   4.654 -0.0205 -0.2238 -0.1703
11028TIP3    H254500   2.420   4.522   4.616  1.4015  0.5807  1.7890
11029TIP3   OH254501   2.398   3.054  12.631  0.3221  0.0152  0.0066
11029TIP3    H154502   2.418   3.098  12.714  2.9686 -0.3963 -0.3396
11029TIP3    H254503   2.448   3.101  12.565  0.2233 -1.1897 -0.9693
11030TIP3   OH254504   2.320   6.245  16.920  0.1475  0.0272  0.0370
11030TIP3    H154505   2.399   6.253  16.868 -0.0023 -0.3915 -0.2648
11030TIP3    H254506   2.347   6.197  16.998  0.5590  1.4072  0.7774
11031TIP3   OH254507   3.116   2.857  16.647  0.4103  0.3315  0.3219
11031TIP3    H154508   3.055   2.930  16.658 -0.1150 -0.0906  0.2741
11031TIP3    H254509   3.127   2.823  16.735  1.1650  0.8647  0.4393
11032TIP3   OH254510   1.541   0.388  15.360  0.1081  0.0547 -0.0520
11032TIP3    H154511   1.583   0.469  15.334 -1.0932  1.2617  1.5397
11032TIP3    H254512   1.577   0.322  15.301  1.0884  1.7278 -1.4200
11033TIP3   OH254513   3.305   0.351  16.632 -0.2527  0.1874 -0.1149
11033TIP3    H154514   3.237   0.288  16.609  1.0134 -2.4455  2.6983
11033TIP3    H254515   3.291   0.370  16.724  2.1277  0.4115  0.2682
11034TIP3   OH254516   3.048   1.523  12.320  0.4326 -0.5501 -0.7011
11034TIP3    H154517   3.136   1.505  12.287  0.4110 -0.3588 -0.8655
11034TIP3    H254518   2.992   1.458  12.277  0.5819 -1.0547 -0.1402
11035TIP3   OH254519   0.643   1.533   2.237 -0.2030 -0.0038  0.4979
11035TIP3    H154520   0.600   1.469   2.293  0.5599 -0.2017  0.8681
11035TIP3    H254521   0.727   1.493   2.214  0.6311  1.1669  1.3862
11036TIP3   OH254522   5.582   1.850  11.742 -0.3786 -0.2926 -0.8207
11036TIP3    H154523   5.671   1.827  11.769 -1.1259 -2.2007  0.2000
11036TIP3    H254524   5.594   1.895  11.658  1.5188 -0.6469 -0.8008
11037TIP3   OH254525   2.463   0.765  15.015 -0.1999 -0.2514 -0.3985
11037TIP3    H154526   2.515   0.830  14.968 -1.3067 -0.0253 -1.3474
11037TIP3    H254527   2.436   0.702  14.948  0.6801 -1.6307  0.4625
11038TIP3   OH254528   6.530   3.680   3.272 -0.4927 -0.4058 -0.7495
11038TIP3    H154529   6.565   3.630   3.345  0.7607 -1.8827 -2.2850
11038TIP3    H254530   6.579   3.650   3.196 -2.4880  0.2621 -2.4058
11039TIP3   OH254531   6.253   0.558  17.191 -0.6763  0.0173 -0.5316
11039TIP3    H154532   6.228   0.640  17.234 -1.4746 -0.0097 -0.9369
11039TIP3    H254533   6.176   0.532  17.140  0.2227 -0.0059 -1.9218
11040TIP3   OH254534   2.205   4.031  12.127  0.2691 -0.3845  0.0143
11040TIP3    H154535   2.225   4.014  12.035  1.0660 -2.6333  0.5312
11040TIP3    H254536   2.148   4.108  12.126  1.2991  0.4385 -2.2475
11041TIP3   OH254537   0.874   3.749   4.258 -0.8121  0.1701  0.1035
11041TIP3    H154538   0.805   3.802   4.298 -0.4344 -0.4509  1.6253
11041TIP3    H254539   0.941   3.740   4.326  0.8823  0.8820 -1.3779
11042TIP3   OH254540   4.983   3.043  14.984 -0.0050 -0.1860 -0.4826
11042TIP3    H154541   4.889   3.036  14.963  0.2746 -1.7096 -1.4357
11042TIP3    H254542   5.005   2.956  15.017  0.8912  0.4374  0.5751
11043TIP3   OH254543   3.603   5.535  14.304  0.4582 -0.7437 -0.0435
11043TIP3    H154544   3.678   5.585  14.272 -0.8027  0.7512 -0.8179
11043TIP3    H254545   3.599   5.555  14.398 -0.3815  1.2426 -0.4340
11044TIP3   OH254546   5.074   5.749  16.621  0.3036 -0.8916  0.0745
11044TIP3    H154547   5.070   5.810  16.548  1.7497 -1.1505 -0.2431
11044TIP3    H254548   4.985   5.712  16.627 -0.1923  0.1585 -0.6370
11045TIP3   OH254549   5.964   2.758  15.704 -0.0625 -0.1237  0.5581
11045TIP3    H154550   5.941   2.674  15.743  0.0807 -0.2737  0.3220
11045TIP3    H254551   5.880   2.801  15.685 -0.1722 -0.8862 -0.7894
11046TIP3   OH254552   1.815   6.350   4.376  0.4138 -0.6351  0.1558
11046TIP3    H154553   1.894   6.299   4.357  1.0107  0.0696  0.6921
11046TIP3    H254554   1.768   6.355   4.292  0.9613 -1.0133 -0.1764
11047TIP3   OH254555   3.047   1.267   5.777 -0.0754 -0.2061 -0.5002
11047TIP3    H154556   3.141   1.283   5.769  0.2526 -0.9597  1.3948
11047TIP3    H254557   3.024   1.300   5.864 -1.2468 -1.3869 -0.3261
11048TIP3   OH254558   0.288   4.219   6.720  0.1743 -0.1935 -0.0062
11048TIP3    H154559   0.318   4.242   6.808  1.1640  1.5725 -0.7355
11048TIP3    H254560   0.194   4.239   6.721  0.0734 -0.6803  0.7930
11049TIP3   OH254561   4.157   1.717   5.557  0.3032 -0.3505 -0.1532
11049TIP3    H154562   4.191   1.802   5.585  2.1115 -0.0830 -2.7675
11049TIP3    H254563   4.118   1.680   5.635 -0.0027  2.6145  1.2347
11050TIP3   OH254564   6.187   2.200  15.814  0.6256 -0.2315 -0.2722
11050TIP3    H154565   6.138   2.226  15.892  3.0394  0.2773  1.1761
11050TIP3    H254566   6.143   2.246  15.742 -2.6807 -1.9809  0.4012
11051TIP3   OH254567   5.505   6.494   3.746  0.3445 -0.3643 -0.4138
11051TIP3    H154568   5.536   6.523   3.660 -1.9497  1.1006 -0.8076
11051TIP3    H254569   5.470   6.572   3.787 -1.5660 -1.6420  0.5207
11052TIP3   OH254570   2.623   5.112   5.107 -0.5406 -0.2035  0.2165
11052TIP3    H154571   2.550   5.050   5.106  1.3621 -2.6078  0.2326
11052TIP3    H254572   2.661   5.103   5.194  0.4906  0.0755 -0.1847
11053TIP3   OH254573   4.236   1.519  16.470 -0.0443  0.1199  0.2878
11053TIP3    H154574   4.310   1.540  16.414  0.1757 -1.5709 -0.0782
11053TIP3    H254575   4.163   1.568  16.432  0.3738 -0.0346 -0.7427
11054TIP3   OH254576   4.617   1.878   3.637  0.3074 -0.1975  0.4807
11054TIP3    H154577   4.691   1.926   3.600  0.7234 -1.3589 -0.2766
11054TIP3    H254578   4.543   1.938   3.630  0.5664 -0.0430 -1.4662
11055TIP3   OH254579   4.660   4.589  13.838 -0.3554 -0.6954  0.7557
11055TIP3    H154580   4.730   4.536  13.877  0.9282  1.0732  0.9346
11055TIP3    H254581   4.702   4.632  13.763 -0.3978  2.5038  2.4140
11056TIP3   OH254582   0.891   0.515   4.899 -0.1134  0.3653 -0.2114
11056TIP3    H154583   0.955   0.446   4.919 -1.6217 -1.3094 -0.9004
11056TIP3    H254584   0.921   0.551   4.816 -0.9478 -1.6449 -1.4691
11057TIP3   OH254585   6.252   2.012   4.542 -0.0587  0.6985  0.5205
11057TIP3    H154586   6.318   2.034   4.608 -1.6352  0.9383  2.1072
11057TIP3    H254587   6.168   2.024   4.587 -1.1756 -0.8356 -1.0039
11058TIP3   OH254588   5.765   4.346   0.455 -0.0073 -0.2771 -0.6878
11058TIP3    H154589   5.750   4.435   0.484  2.0752 -0.2995  0.7366
11058TIP3    H254590   5.690   4.296   0.488 -0.6397  0.7538 -0.5429
11059TIP3   OH254591   6.168   4.932  12.135 -0.0515 -0.2375 -0.0593
11059TIP3    H154592   6.171   4.839  12.157  0.2269 -0.5090 -1.1900
11059TIP3    H254593   6.226   4.974  12.199  1.5778 -1.1345 -0.8853
11060TIP3   OH254594   4.713   3.766   1.786 -0.2191 -0.3382 -0.3675
11060TIP3    H154595   4.748   3.854   1.800 -2.0214  0.3059  0.4648
11060TIP3    H254596   4.664   3.747   1.866 -0.6892 -1.6880 -0.9514
11061TIP3   OH254597   3.327   1.599  15.157 -0.0890  0.0825 -0.0883
11061TIP3    H154598   3.336   1.690  15.131 -0.4796  0.0028 -0.5092
11061TIP3    H254599   3.389   1.588  15.230  0.1170  0.6208 -0.1829
11062TIP3   OH254600   4.512   0.695  16.085  0.3188  0.1109 -0.7439
11062TIP3    H154601   4.568   0.768  16.059 -0.3970  0.9429 -0.0321
11062TIP3    H254602   4.568   0.640  16.139  0.5585  0.7534 -0.3205
11063TIP3   OH254603   5.462   5.265  10.788  0.1274 -0.1799  0.3636
11063TIP3    H154604   5.533   5.317  10.825  0.5832 -1.2273  1.0114
11063TIP3    H254605   5.430   5.316  10.714  1.3604  0.4401  0.2472
11064TIP3   OH254606   0.815   5.759   3.431 -0.1700  0.0618 -0.2694
11064TIP3    H154607   0.811   5.680   3.485 -0.3940 -0.0597 -0.4597
11064TIP3    H254608   0.765   5.824   3.481 -2.4765 -0.7059 -1.3852
11065TIP3   OH254609   0.917   2.805   5.858 -0.1302  0.3358  0.0333
11065TIP3    H154610   0.919   2.823   5.952 -0.6861  0.0709  0.0948
11065TIP3    H254611   0.942   2.713   5.850 -0.7576  0.1668 -0.0244
11066TIP3   OH254612   0.887   5.405  12.499 -0.0808 -0.3946  0.2860
11066TIP3    H154613   0.883   5.313  12.526 -0.3993 -0.9483 -1.5447
11066TIP3    H254614   0.800   5.440  12.521  0.5556 -0.0400  2.4828
11067TIP3   OH254615   4.013   0.408  14.754  0.2212 -0.6090  0.4153
11067TIP3    H154616   3.948   0.434  14.689  1.9101 -1.0981 -1.6079
11067TIP3    H254617   4.047   0.324  14.720  0.3418 -1.4932  2.5954
11068TIP3   OH254618   3.505   3.517  12.838 -0.1838  0.1028 -0.2289
11068TIP3    H154619   3.525   3.610  12.832 -1.9834  0.7460  2.1163
11068TIP3    H254620   3.589   3.473  12.827  1.1638  2.1677  1.1947
11069TIP3   OH254621   5.085   3.594   4.725  0.2128 -0.3968  0.2044
11069TIP3    H154622   5.135   3.522   4.687  1.4033  1.4480 -1.9507
11069TIP3    H254623   5.013   3.551   4.771  1.7999 -2.9997  0.4440
11070TIP3   OH254624   2.055   4.671  14.826 -0.4119 -0.0989  0.2623
11070TIP3    H154625   2.014   4.652  14.910  0.8618 -1.0200  0.6943
11070TIP3    H254626   2.145   4.695  14.848 -0.3382  0.6471 -0.7676
11071TIP3   OH254627   3.543   5.204   1.038  0.1621  0.3215 -0.4448
11071TIP3    H154628   3.564   5.289   1.076 -1.5162  0.1362  1.0578
11071TIP3    H254629   3.468   5.221   0.981 -0.1548 -0.1047 -0.1711
11072TIP3   OH254630   0.593   1.252   3.125  0.1127  0.1706 -1.4184
11072TIP3    H154631   0.611   1.282   3.215 -0.5871 -0.8877 -0.9081
11072TIP3    H254632   0.509   1.292   3.103 -0.6674 -1.1335 -0.8561
11073TIP3   OH254633   3.658   1.339  15.253  0.3116 -0.0030  0.6348
11073TIP3    H154634   3.564   1.335  15.236 -0.2329  0.2623  3.1694
11073TIP3    H254635   3.681   1.431  15.244 -0.0932  0.2273  1.8294
11074TIP3   OH254636   4.268   5.435  16.105 -0.1576  0.0047  0.1038
11074TIP3    H154637   4.221   5.503  16.154 -0.5311 -0.7295  0.7786
11074TIP3    H254638   4.306   5.378  16.172  0.4292 -0.2772 -0.4526
11075TIP3   OH254639   1.186   2.313   5.816  0.1345  0.3786 -0.3728
11075TIP3    H154640   1.213   2.278   5.731 -0.1887 -1.9922  0.4370
11075TIP3    H254641   1.268   2.340   5.857  0.5242 -0.3844 -0.6285
11076TIP3   OH254642   4.818   4.427  13.983  0.5827 -0.5332 -0.5755
11076TIP3    H154643   4.886   4.440  14.049 -0.8196 -2.4010  1.3793
11076TIP3    H254644   4.816   4.332  13.969 -1.9975 -0.6176 -0.0631
11077TIP3   OH254645   5.087   5.351   3.386  0.3580 -0.0895  1.0725
11077TIP3    H154646   5.158   5.406   3.353  0.4152  0.6021  2.2927
11077TIP3    H254647   5.011   5.375   3.333  0.5149  0.7956  1.2318
11078TIP3   OH254648   4.192   1.166   5.547 -0.1349 -0.0748  0.0044
11078TIP3    H154649   4.231   1.132   5.628 -1.4313  0.3282  0.8402
11078TIP3    H254650   4.245   1.243   5.526  0.8176 -0.7387 -0.0885
11079TIP3   OH254651   0.236   4.303   2.089 -0.3282 -0.0167  0.8910
11079TIP3    H154652   0.272   4.275   2.004 -0.7670  0.3448  0.5839
11079TIP3    H254653   0.299   4.367   2.122  0.1007 -0.5254  1.0724
11080TIP3   OH254654   5.943   2.865  17.046  0.1589 -0.4397  0.0091
11080TIP3    H154655   5.933   2.772  17.028  1.3254 -0.4738 -0.5348
11080TIP3    H254656   5.858   2.892  17.080 -0.2556 -1.6536 -0.0215
11081TIP3   OH254657   5.038   2.765  12.881 -0.2601  0.0422  0.2631
11081TIP3    H154658   5.004   2.844  12.839  0.3330  0.6594  0.9094
11081TIP3    H254659   5.081   2.717  12.811  2.1843  1.8531  0.3819
11082TIP3   OH254660   1.923   5.921   0.397  0.4144 -0.0046 -0.1378
11082TIP3    H154661   1.975   5.967   0.330 -0.9252 -0.7591 -1.7685
11082TIP3    H254662   1.987   5.895   0.463  1.6313  1.7214 -0.5515
11083TIP3   OH254663   6.533   4.716   6.416 -0.2544 -0.0333 -0.4216
11083TIP3    H154664   6.499   4.633   6.451  1.4991 -0.7791 -0.3765
11083TIP3    H254665   6.596   4.745   6.482 -1.5141  1.8525  0.0113
11084TIP3   OH254666   0.583   0.945   2.006 -0.3254 -0.7640 -0.1918
11084TIP3    H154667   0.601   0.860   2.047  1.4205 -0.9146 -1.1813
11084TIP3    H254668   0.543   0.922   1.922  2.7077 -0.8503 -1.7710
11085TIP3   OH254669   2.697   3.134  15.062  0.2758 -0.6533  0.0479
11085TIP3    H154670   2.744   3.062  15.105  0.4695 -0.4994  0.0953
11085TIP3    H254671   2.765   3.199  15.044 -0.1733  0.2797  1.5801
11086TIP3   OH254672   4.461   2.436  15.564 -0.4295  0.3484  0.0833
11086TIP3    H154673   4.512   2.435  15.646 -0.7711  2.0055  0.3617
11086TIP3    H254674   4.370   2.432  15.593 -0.5191 -0.5732 -0.3099
11087TIP3   OH254675   3.118   4.577   1.353 -0.4036  0.3794 -0.1574
11087TIP3    H154676   3.169   4.625   1.418  2.0959 -1.0740 -0.9154
11087TIP3    H254677   3.178   4.511   1.319 -2.5769 -0.9093 -1.7567
11088TIP3   OH254678   6.051   6.205  14.307  0.4726 -0.4084 -0.2837
11088TIP3    H154679   6.106   6.208  14.385 -0.8082  3.3796  0.6823
11088TIP3    H254680   6.108   6.234  14.236  0.9401 -1.2641 -0.2723
11089TIP3   OH254681   1.677   1.266   4.051 -0.7788  0.4352 -0.2719
11089TIP3    H154682   1.662   1.324   3.976 -0.5841 -1.8971 -2.2530
11089TIP3    H254683   1.755   1.303   4.094 -0.1019  1.1241 -1.9950
11090TIP3   OH254684   1.157   1.908   2.645 -0.3119  0.1330 -0.0371
11090TIP3    H154685   1.234   1.854   2.658 -0.2375 -0.6306 -2.9337
11090TIP3    H254686   1.097   1.882   2.715  1.8421  0.5057  2.0735
11091TIP3   OH254687   1.281   1.122  15.968 -0.2452  0.4164 -0.4237
11091TIP3    H154688   1.259   1.195  15.910  0.4588  1.3370  0.4359
11091TIP3    H254689   1.213   1.057  15.951 -1.4464  1.6520 -0.5348
11092TIP3   OH254690   2.701   3.854   3.623  0.4522  0.0291  0.0831
11092TIP3    H154691   2.794   3.851   3.602  0.5899  0.0608  0.6740
11092TIP3    H254692   2.698   3.867   3.718 -0.1418  1.8274 -0.1341
11093TIP3   OH254693   5.031   0.218   0.355 -0.2344 -0.2388  0.2190
11093TIP3    H154694   5.077   0.138   0.329 -0.0957  0.4560 -1.8163
11093TIP3    H254695   4.948   0.215   0.307  0.6673  1.8176 -1.6005
11094TIP3   OH254696   3.216   0.652   1.990 -0.1605 -0.1938  0.5707
11094TIP3    H154697   3.215   0.720   1.923  1.1250 -0.6775  0.0338
11094TIP3    H254698   3.126   0.648   2.021 -0.9911 -0.4964 -1.6771
11095TIP3   OH254699   3.739   6.088  13.273  0.0649 -0.6498 -0.6327
11095TIP3    H154700   3.786   6.144  13.335 -0.8451 -1.6790  1.0855
11095TIP3    H254701   3.802   6.019  13.251 -0.4676 -1.9599  1.5715
11096TIP3   OH254702   4.717   4.735   4.480  0.5426 -0.1847 -0.1105
11096TIP3    H154703   4.700   4.822   4.515  0.6941  0.0605 -0.6359
11096TIP3    H254704   4.812   4.730   4.471  0.4561  0.1123 -1.3558
11097TIP3   OH254705   6.297   2.019   6.396 -0.8442  0.0801  0.3303
11097TIP3    H154706   6.356   2.086   6.430 -0.0492  0.1032 -1.0198
11097TIP3    H254707   6.211   2.043   6.432 -0.1792  0.4184  1.8057
11098TIP3   OH254708   4.389   0.986  16.945  0.0872  0.4939 -0.3009
11098TIP3    H154709   4.430   1.033  17.018  2.0694 -0.0651 -1.0108
11098TIP3    H254710   4.461   0.942  16.901 -1.4606 -1.6700 -0.8052
11099TIP3   OH254711   4.788   5.278   3.724 -0.0710  0.2398  0.4234
11099TIP3    H154712   4.769   5.360   3.678 -2.4913 -0.2709  0.3450
11099TIP3    H254713   4.701   5.244   3.748  0.9369 -1.5248  1.8271
11100TIP3   OH254714   0.058   1.598  14.224 -0.0341 -0.0911 -0.0619
11100TIP3    H154715  -0.015   1.582  14.164 -0.2636 -0.5009  0.3128
11100TIP3    H254716   0.100   1.677  14.191 -0.1726 -0.2919 -0.7404
11101TIP3   OH254717   6.367   5.278  12.977  0.2657  0.8803  0.5223
11101TIP3    H154718   6.420   5.212  13.021 -0.5774  0.8293  1.4922
11101TIP3    H254719   6.347   5.240  12.891 -1.1123 -0.6380  1.4486
11102TIP3   OH254720   1.298   3.416  12.148  0.0514 -0.1202 -0.0283
11102TIP3    H154721   1.217   3.441  12.104  0.1541 -0.2081 -0.2706
11102TIP3    H254722   1.305   3.322  12.133  0.3526 -0.0630 -0.2715
11103TIP3   OH254723   6.740   1.311   0.742 -0.1483  0.3115 -0.0304
11103TIP3    H154724   6.733   1.251   0.816  1.8465  1.1127  0.8904
11103TIP3    H254725   6.721   1.398   0.779  0.0719  0.6290 -0.6400
11104TIP3   OH254726   4.023   3.198  16.637 -0.0450 -0.0552  0.0839
11104TIP3    H154727   4.033   3.212  16.543  1.1677  2.1369  0.4648
11104TIP3    H254728   3.951   3.257  16.662  0.9215  0.8472  0.7982
11105TIP3   OH254729   4.194   6.021  17.242 -0.0524  0.4493  0.0509
11105TIP3    H154730   4.164   6.109  17.218  1.2226  1.1576  0.9167
11105TIP3    H254731   4.287   6.020  17.219  0.6581  0.3421  2.5698
11106TIP3   OH254732   2.281   4.757  16.478 -0.2042 -0.0933  0.0826
11106TIP3    H154733   2.371   4.785  16.491 -0.0272  0.6909 -2.2763
11106TIP3    H254734   2.279   4.666  16.508  1.9986 -0.8928 -1.9215
11107TIP3   OH254735   2.116   5.275   4.226  0.3310 -0.0089 -0.2362
11107TIP3    H154736   2.128   5.296   4.318 -0.8519 -1.2008  0.2111
11107TIP3    H254737   2.092   5.359   4.186 -0.0232  0.3511  0.7007
11108TIP3   OH254738   0.732   6.006  14.221  0.3552  0.1855  0.4333
11108TIP3    H154739   0.737   5.978  14.313 -1.7302  0.0790  0.5519
11108TIP3    H254740   0.805   6.068  14.212  0.6437  0.1600  2.1408
11109TIP3   OH254741   5.682   2.365  13.187 -0.2417 -0.5993  1.0348
11109TIP3    H154742   5.623   2.311  13.134 -0.8658 -0.2540  1.3654
11109TIP3    H254743   5.764   2.365  13.139 -1.0102  0.3311 -0.3731
11110TIP3   OH254744   5.042   2.609   5.607 -0.1560  0.1637  0.2057
11110TIP3    H154745   5.126   2.589   5.649 -0.3940 -1.0759  0.0979
11110TIP3    H254746   4.987   2.641   5.679  0.5657  1.5734  0.1781
11111TIP3   OH254747   0.791   1.506   3.710  0.3449 -0.8396 -0.4979
11111TIP3    H154748   0.864   1.559   3.742  0.1516 -0.7069 -0.2813
11111TIP3    H254749   0.714   1.559   3.725  0.2695 -0.6969 -1.3564
11112TIP3   OH254750   5.720   0.680  12.179  0.0895 -0.3552  0.4142
11112TIP3    H154751   5.648   0.674  12.241 -0.6162  0.0679 -0.3497
11112TIP3    H254752   5.708   0.765  12.137  1.2385 -0.1225  0.5217
11113TIP3   OH254753   2.871   6.241   2.824  0.0072  0.1456 -0.0442
11113TIP3    H154754   2.928   6.195   2.762 -1.4969 -1.9621  0.0394
11113TIP3    H254755   2.849   6.174   2.889 -4.0645  0.2172 -1.1112
11114TIP3   OH254756   6.661   1.092  12.952 -0.2336  0.0977  0.4231
11114TIP3    H154757   6.585   1.112  13.007 -2.8797 -2.7955 -1.8234
11114TIP3    H254758   6.628   1.100  12.863  2.3507 -0.5975 -0.6646
11115TIP3   OH254759   0.557   4.218  13.576  0.5024 -0.3857 -0.3233
11115TIP3    H154760   0.539   4.150  13.641  0.3331  0.0432  0.0820
11115TIP3    H254761   0.650   4.209  13.557  0.7053 -0.0698  0.4909
11116TIP3   OH254762   3.886   3.374  17.259 -0.2597  0.2481  0.0425
11116TIP3    H154763   3.847   3.459  17.277 -1.7774 -0.0950 -1.3664
11116TIP3    H254764   3.940   3.388  17.181  0.6272  0.1979  0.6255
11117TIP3   OH254765   2.345   6.519   3.080  0.0610 -0.1464 -0.0459
11117TIP3    H154766   2.256   6.502   3.050 -0.1091 -0.5798  0.6889
11117TIP3    H254767   2.401   6.486   3.010 -0.3582  0.4400 -0.6675
11118TIP3   OH254768   4.062   1.300   1.512  0.3091  0.0102  0.1559
11118TIP3    H154769   4.070   1.336   1.600 -0.3058  1.6663 -0.4360
11118TIP3    H254770   4.054   1.376   1.455 -0.7963 -1.0581 -1.1839
11119TIP3   OH254771   3.632   5.696  10.851  0.3442 -0.8221  0.4928
11119TIP3    H154772   3.554   5.685  10.797 -0.1387  1.4497  0.6349
11119TIP3    H254773   3.682   5.766  10.808  0.7250 -0.0593  2.1034
11120TIP3   OH254774   1.014   5.624  16.031  0.2416 -0.3566  0.2295
11120TIP3    H154775   0.935   5.676  16.017 -0.6576 -1.8539 -0.5815
11120TIP3    H254776   0.982   5.534  16.036  1.9332 -1.0257 -0.4070
11121TIP3   OH254777   3.907   5.837  13.795 -0.6993  0.1867 -0.1706
11121TIP3    H154778   3.837   5.772  13.806  0.1665 -0.7813 -0.2107
11121TIP3    H254779   3.971   5.814  13.863 -0.5522  1.2460  0.0595
11122TIP3   OH254780   5.080   1.319   3.831  0.1903  0.1796  0.1880
11122TIP3    H154781   4.986   1.314   3.849 -0.0866  0.1492 -1.1803
11122TIP3    H254782   5.118   1.252   3.888 -0.6141  0.1717  0.7347
11123TIP3   OH254783   4.145   4.073   0.295  0.4403 -0.0549  0.1151
11123TIP3    H154784   4.098   4.074   0.378  1.2489  2.5950  0.6513
11123TIP3    H254785   4.095   4.132   0.238  0.2690 -1.3134 -1.0987
11124TIP3   OH254786   5.837   5.520   0.475  0.1223 -0.7795  0.3719
11124TIP3    H154787   5.885   5.545   0.554 -1.4101  2.7294  0.3737
11124TIP3    H254788   5.890   5.554   0.403 -0.0776 -1.0311  0.1041
11125TIP3   OH254789   2.658   4.866   1.439  0.0377  0.1270  0.7163
11125TIP3    H154790   2.667   4.934   1.505  1.0191  0.4091  0.3019
11125TIP3    H254791   2.743   4.822   1.437 -0.2151 -0.3565  0.1589
11126TIP3   OH254792   2.997   5.172   2.145  0.5869 -0.6709  0.2878
11126TIP3    H154793   3.010   5.105   2.077 -0.5733  0.0063 -0.6261
11126TIP3    H254794   3.052   5.245   2.117  0.7569 -0.6959  0.5455
11127TIP3   OH254795   3.926   1.045  11.974  0.3642  0.2433  0.0798
11127TIP3    H154796   3.832   1.031  11.968  0.0342  1.3552  1.9626
11127TIP3    H254797   3.964   0.960  11.953 -1.1271 -0.6146  0.7119
11128TIP3   OH254798   6.359   3.906  13.193  0.3645  0.1261 -0.0148
11128TIP3    H154799   6.354   3.930  13.101 -1.0071  0.9006  0.2250
11128TIP3    H254800   6.425   3.966  13.230  0.6453  0.0638 -0.4101
11129TIP3   OH254801   4.569   5.770   5.403  0.8113 -0.1833  0.4714
11129TIP3    H154802   4.658   5.749   5.373  1.2800  1.1635  0.8608
11129TIP3    H254803   4.529   5.685   5.419  1.7744 -0.8382 -0.4403
11130TIP3   OH254804   1.747   0.984   4.024  0.1763  0.3317 -0.2699
11130TIP3    H154805   1.672   0.935   4.059 -0.9045  0.1168 -2.6845
11130TIP3    H254806   1.724   1.076   4.037  0.3900  0.2552  0.7124
11131TIP3   OH254807   5.220   0.089   1.780 -0.1504  0.2047  0.2039
11131TIP3    H154808   5.224   0.006   1.733  0.6496  0.6500 -0.5557
11131TIP3    H254809   5.301   0.092   1.831 -0.8114 -0.0778  1.2771
11132TIP3   OH254810   3.873   4.624  14.852 -0.3999  0.0710 -0.6582
11132TIP3    H154811   3.832   4.544  14.819  0.6169 -0.6242 -0.2848
11132TIP3    H254812   3.802   4.673  14.893 -0.7256 -1.5219  0.7906
11133TIP3   OH254813   0.771   5.864  14.458  0.3828 -0.3357 -0.4393
11133TIP3    H154814   0.698   5.820  14.502 -0.4108 -0.4166 -1.7913
11133TIP3    H254815   0.843   5.801  14.463  1.8256  1.2602  4.5510
11134TIP3   OH254816   5.092   1.569   0.582  0.5877 -0.8342  0.4715
11134TIP3    H154817   5.155   1.498   0.581  1.0006 -0.4797 -0.7419
11134TIP3    H254818   5.135   1.639   0.631  0.1400 -1.4240  1.7557
11135TIP3   OH254819   6.642   5.224  10.874 -0.0598  0.2061  0.3875
11135TIP3    H154820   6.727   5.211  10.918  1.0570  0.4233 -1.5888
11135TIP3    H254821   6.589   5.270  10.939  1.5932  0.7772  1.4212
11136TIP3   OH254822   3.296   2.199   0.858  0.6012 -0.0258 -0.1814
11136TIP3    H154823   3.362   2.175   0.924  0.3848  0.9203  0.4120
11136TIP3    H254824   3.284   2.293   0.871 -1.1142 -0.2388 -0.0505
11137TIP3   OH254825   3.046   4.996   5.997 -0.1613  0.0995 -0.7931
11137TIP3    H154826   3.136   4.964   6.002  0.2232  0.9087 -2.0299
11137TIP3    H254827   3.048   5.064   5.930 -1.8096 -0.2217 -1.2180
11138TIP3   OH254828   6.190   3.573  10.985  0.0710  0.2768 -0.4843
11138TIP3    H154829   6.173   3.569  10.891  1.5187  1.8907 -0.8587
11138TIP3    H254830   6.232   3.489  11.005  0.2191  0.1232 -1.3812
11139TIP3   OH254831   0.981   1.020  12.632  0.1750  0.6915 -0.2355
11139TIP3    H154832   0.938   1.034  12.547  0.5687  0.9594 -0.3940
11139TIP3    H254833   0.909   1.008  12.694 -0.1308  1.1560 -0.4940
11140TIP3   OH254834   6.010   6.192  12.244  0.3632  0.5659  0.3121
11140TIP3    H154835   5.985   6.265  12.302  1.4141  0.1384  1.3373
11140TIP3    H254836   5.932   6.177  12.190 -1.1554  0.1401  2.4861
11141TIP3   OH254837   3.519   3.715   1.228  0.2047  0.1634 -0.2834
11141TIP3    H154838   3.502   3.798   1.184 -2.1188 -0.7302 -1.2250
11141TIP3    H254839   3.610   3.721   1.257  0.3927  2.6176 -1.1826
11142TIP3   OH254840   1.282   5.987   1.334 -0.5279  0.3176 -0.0512
11142TIP3    H154841   1.298   6.046   1.408  0.8131  0.5174 -0.4735
11142TIP3    H254842   1.283   5.899   1.373 -1.0221  0.4827  0.3453
11143TIP3   OH254843   4.253   1.092  15.744 -0.2684  0.0969 -0.2071
11143TIP3    H154844   4.192   1.070  15.815 -1.2667 -0.3637 -1.1880
11143TIP3    H254845   4.321   1.025  15.750 -0.2523  0.1603  0.4118
11144TIP3   OH254846   5.238   5.833  14.435 -0.2672  0.5567 -0.3746
11144TIP3    H154847   5.294   5.794  14.502 -1.7394 -0.1029  0.5054
11144TIP3    H254848   5.219   5.762  14.375 -1.4014  0.3699  0.1851
11145TIP3   OH254849   5.975   3.782   1.096 -0.1418 -0.1241 -0.3292
11145TIP3    H154850   5.963   3.729   1.175  1.5875  0.4742  0.3926
11145TIP3    H254851   6.012   3.864   1.128 -0.3634  0.5285 -1.6759
11146TIP3   OH254852   5.688   4.737  15.229 -0.5173 -0.1452 -0.6583
11146TIP3    H154853   5.717   4.807  15.287  0.1518 -1.2882  0.4695
11146TIP3    H254854   5.642   4.781  15.158 -2.5227  1.2857  1.3647
11147TIP3   OH254855   2.276   4.818  17.089  0.0695  0.1589  0.1590
11147TIP3    H154856   2.221   4.740  17.091 -0.3399  0.4519  0.5351
11147TIP3    H254857   2.285   4.839  16.996 -0.4889  0.1239  0.0939
11148TIP3   OH254858   1.091   2.201   1.350 -0.2737  0.1129 -0.7052
11148TIP3    H154859   1.100   2.109   1.375  1.4617  0.2635 -0.5943
11148TIP3    H254860   1.105   2.249   1.432 -0.8775  0.4773 -0.8175
11149TIP3   OH254861   5.114   0.249   5.052 -0.0181  0.6651  0.0703
11149TIP3    H154862   5.160   0.323   5.014  0.9956  0.6577  1.2358
11149TIP3    H254863   5.074   0.283   5.132  0.7635 -0.1116  0.8088
11150TIP3   OH254864   0.364   0.995  11.982  0.2065 -0.0044  0.0205
11150TIP3    H154865   0.407   0.983  11.898  1.9928 -1.6256  1.0744
11150TIP3    H254866   0.333   1.085  11.981  1.1411  0.3428 -1.9452
11151TIP3   OH254867   5.664   0.003   6.238  0.0097  0.2341 -0.1491
11151TIP3    H154868   5.697   0.060   6.308 -0.8728 -0.5370  0.9423
11151TIP3    H254869   5.743  -0.025   6.191  0.8734 -0.7510  1.7456
11152TIP3   OH254870   5.149   2.548  14.836  0.4601  0.0913 -0.1559
11152TIP3    H154871   5.232   2.597  14.834  0.9363 -0.7085 -0.8241
11152TIP3    H254872   5.168   2.468  14.787 -0.6710 -0.1805 -0.1674
11153TIP3   OH254873   3.703   4.185   2.101 -0.0395  0.2654  0.2426
11153TIP3    H154874   3.788   4.156   2.135  0.0597 -0.8957 -0.9089
11153TIP3    H254875   3.698   4.277   2.124  0.6847 -0.0856  2.0096
11154TIP3   OH254876   0.157   6.186  11.654  0.2405  0.3745 -0.2087
11154TIP3    H154877   0.147   6.280  11.664 -0.6892  0.4014 -1.1935
11154TIP3    H254878   0.072   6.156  11.621  0.6022 -0.7723 -0.1460
11155TIP3   OH254879   0.427   4.400   4.201 -0.0689  0.3406 -0.3342
11155TIP3    H154880   0.396   4.405   4.291  1.8945 -1.1500  0.5135
11155TIP3    H254881   0.487   4.474   4.192  0.3495  0.0319 -0.1296
11156TIP3   OH254882   1.285   2.961   0.814 -0.8181 -0.7162  0.2925
11156TIP3    H154883   1.334   2.973   0.733 -0.7830 -1.2318  0.2300
11156TIP3    H254884   1.245   3.046   0.831 -0.7036 -0.5635 -0.1840
11157TIP3   OH254885   3.144   3.393   3.415  0.4352  0.1045 -0.1558
11157TIP3    H154886   3.150   3.297   3.420  1.0921  0.1511  0.1112
11157TIP3    H254887   3.199   3.424   3.487  1.1724  0.6838 -0.9395
11158TIP3   OH254888   1.912   5.818   3.455 -0.2064  0.4535  0.4675
11158TIP3    H154889   1.964   5.853   3.528  0.0885 -0.0478  0.5038
11158TIP3    H254890   1.907   5.724   3.472 -1.5046  0.5507  0.6926
11159TIP3   OH254891   3.891   4.009   1.028  0.5026  0.0163  0.2679
11159TIP3    H154892   3.881   3.934   0.970  0.6349  0.3928 -0.2540
11159TIP3    H254893   3.857   4.083   0.977  1.8061  0.5773  0.1738
11160TIP3   OH254894   0.803   0.227   5.100 -0.1442  0.5368 -0.7425
11160TIP3    H154895   0.719   0.234   5.055 -0.6325 -1.7705 -0.3121
11160TIP3    H254896   0.822   0.133   5.100  0.4664  0.5632  2.6947
11161TIP3   OH254897   1.960   5.856  14.127 -0.2938 -0.4354 -0.1753
11161TIP3    H154898   1.879   5.808  14.106 -1.4670  1.2326  0.3319
11161TIP3    H254899   1.940   5.947  14.106  1.8295 -0.1114 -0.9933
11162TIP3   OH254900   6.428   3.401  10.487 -0.0871 -0.2794 -0.6322
11162TIP3    H154901   6.406   3.326  10.542  0.2387  0.7428  0.9682
11162TIP3    H254902   6.516   3.427  10.516 -1.4675  2.7980  1.3879
11163TIP3   OH254903   0.212   2.511   3.845  0.6266  0.5836 -0.2017
11163TIP3    H154904   0.198   2.597   3.807  0.7316  0.3719 -0.7313
11163TIP3    H254905   0.137   2.497   3.903  1.7236  1.9818  1.6738
11164TIP3   OH254906   3.464   1.302   2.349 -0.0750 -0.5047 -0.2817
11164TIP3    H154907   3.477   1.309   2.254  0.9895  0.6645 -0.0772
11164TIP3    H254908   3.498   1.385   2.384  1.1833 -1.6200  1.2850
11165TIP3   OH254909   1.240   4.546  14.014  0.0503 -0.0210  0.2788
11165TIP3    H154910   1.314   4.591  14.054 -0.2694  4.0061 -2.9187
11165TIP3    H254911   1.165   4.605  14.028 -1.1325 -0.9594 -1.6075
11166TIP3   OH254912   6.354   2.456  17.234 -0.1034  0.6724 -0.5035
11166TIP3    H154913   6.378   2.366  17.211  0.3686  1.4506 -3.3220
11166TIP3    H254914   6.437   2.499  17.255 -0.0418  1.0428 -1.4739
11167TIP3   OH254915   3.200   4.353  17.098  0.4366  0.4860 -0.4189
11167TIP3    H154916   3.159   4.273  17.066 -0.5807  1.2699 -1.1479
11167TIP3    H254917   3.210   4.408  17.020 -2.7235  2.7177  0.5316
11168TIP3   OH254918   2.418   4.236  16.602 -0.2341 -0.0983  0.1893
11168TIP3    H154919   2.389   4.166  16.660 -0.1531 -1.7345 -1.6599
11168TIP3    H254920   2.398   4.205  16.514 -2.9477  3.4478 -0.6909
11169TIP3   OH254921   5.244   1.576  17.018  0.1942  0.5073 -0.1949
11169TIP3    H154922   5.187   1.653  17.022 -1.1183 -0.4737  1.1860
11169TIP3    H254923   5.333   1.612  17.016 -0.3145  2.0822  1.7360
11170TIP3   OH254924   2.405   2.048  15.511 -0.1399  0.1260 -0.3390
11170TIP3    H154925   2.382   2.101  15.435  0.8611  1.2733  0.1283
11170TIP3    H254926   2.501   2.045  15.509 -0.1627 -1.4066 -0.1562
11171TIP3   OH254927   1.817   6.171   5.215  0.0588 -0.0891  0.0565
11171TIP3    H154928   1.820   6.149   5.122 -0.4649  3.3545 -0.9229
11171TIP3    H254929   1.889   6.233   5.226 -0.7999  0.6751  1.5893
11172TIP3   OH254930   3.575   4.307  12.566  0.0305 -0.0225 -0.3548
11172TIP3    H154931   3.555   4.276  12.654  2.3999 -0.3629  0.1080
11172TIP3    H254932   3.508   4.265  12.511 -0.1255 -1.6088  0.9738
11173TIP3   OH254933   3.511   2.613   6.363 -0.8627  0.1064 -0.1024
11173TIP3    H154934   3.475   2.532   6.327  1.3705 -1.1260  0.2883
11173TIP3    H254935   3.454   2.632   6.438 -1.7839 -0.7294 -0.5607
11174TIP3   OH254936   6.722   3.269  13.546 -0.2384  0.5799 -0.0897
11174TIP3    H154937   6.736   3.227  13.461 -1.9920 -1.4078  0.5200
11174TIP3    H254938   6.811   3.288  13.577  0.4737  0.5708 -1.9586
11175TIP3   OH254939   2.271   0.191   3.457 -0.0996  0.1700  0.6980
11175TIP3    H154940   2.275   0.126   3.387 -1.4401  2.7486 -1.9630
11175TIP3    H254941   2.332   0.259   3.431  0.8733  0.3414  3.1331
11176TIP3   OH254942   5.844   2.211   1.441 -0.1725  0.1038  0.0524
11176TIP3    H154943   5.776   2.169   1.388 -2.0812  1.7200  1.0733
11176TIP3    H254944   5.826   2.304   1.434  1.5026  0.5343  0.9791
11177TIP3   OH254945   4.530   3.926  14.378  0.2219 -0.4937  0.1302
11177TIP3    H154946   4.613   3.945  14.334  0.2972 -0.4109  0.3082
11177TIP3    H254947   4.542   3.959  14.467 -0.1169 -0.1803  0.0622
11178TIP3   OH254948   4.703   4.206   2.297 -0.0340  0.1257 -0.2240
11178TIP3    H154949   4.611   4.183   2.282  0.4284 -1.5908 -0.7075
11178TIP3    H254950   4.710   4.214   2.392 -1.0343  2.0406 -0.2619
11179TIP3   OH254951   3.139   3.762  15.148  0.3179  0.4762  0.1066
11179TIP3    H154952   3.080   3.774  15.222 -2.3468 -0.1538 -1.7677
11179TIP3    H254953   3.121   3.837  15.091  0.3117 -0.4324 -1.1366
11180TIP3   OH254954   5.870   1.311   6.316 -0.5535  0.3025 -0.4716
11180TIP3    H154955   5.800   1.273   6.263  0.6298  1.2603 -2.8675
11180TIP3    H254956   5.950   1.275   6.278  0.3707  1.0013  0.7430
11181TIP3   OH254957   4.943   5.643  15.992 -0.1839 -0.3745  0.3287
11181TIP3    H154958   4.932   5.710  16.059  0.7112 -1.0883  1.2339
11181TIP3    H254959   4.993   5.685  15.923  0.0846 -0.0152  0.7388
11182TIP3   OH254960   1.973   0.807   1.337  0.3120  0.3722  0.1627
11182TIP3    H154961   2.010   0.720   1.322  0.8159  0.5642  0.2713
11182TIP3    H254962   1.882   0.799   1.309  0.8735  0.3901 -1.8422
11183TIP3   OH254963   2.511   4.360   1.645  0.0870  0.1103 -0.0379
11183TIP3    H154964   2.555   4.285   1.605 -0.9559  0.1275 -1.3005
11183TIP3    H254965   2.429   4.369   1.595 -0.1513  1.6297  0.5698
11184TIP3   OH254966   2.925   5.029   0.197 -0.1027  0.0100  0.5117
11184TIP3    H154967   2.951   5.110   0.240  0.6121  0.3762 -0.5725
11184TIP3    H254968   2.832   5.040   0.178  0.2134  1.0243 -0.5490
11185TIP3   OH254969   3.031   6.353   0.654 -0.0931 -0.0291  0.1036
11185TIP3    H154970   3.075   6.280   0.609 -0.9038  0.1263 -0.9522
11185TIP3    H254971   3.084   6.429   0.634 -0.4362  0.0346 -0.5768
11186TIP3   OH254972   5.799   2.536  14.095  0.4849  0.3646 -0.2341
11186TIP3    H154973   5.878   2.538  14.041  0.9821  1.9166  0.5090
11186TIP3    H254974   5.766   2.447  14.084  1.2372  0.2659 -2.1099
11187TIP3   OH254975   5.972   1.638   4.986 -0.2153 -0.3109  0.1408
11187TIP3    H154976   5.886   1.610   4.955  0.3213 -0.2939 -1.4525
11187TIP3    H254977   6.005   1.563   5.035 -0.4361 -0.9830 -0.7177
11188TIP3   OH254978   5.754   3.731  11.625  0.1522 -0.2441  0.0799
11188TIP3    H154979   5.704   3.781  11.560 -2.7873  0.4666  2.6673
11188TIP3    H254980   5.742   3.640  11.600  1.7066  0.0426 -2.0387
11189TIP3   OH254981   3.894   3.747  17.334  0.0071  0.5817  0.3060
11189TIP3    H154982   3.915   3.725  17.425 -1.8823 -1.3936  0.3419
11189TIP3    H254983   3.813   3.700  17.316  0.5820  0.5185 -2.5829
11190TIP3   OH254984   1.306   0.180   6.333 -0.3914  0.2977 -0.3704
11190TIP3    H154985   1.232   0.120   6.347 -0.6203  0.5620 -0.4383
11190TIP3    H254986   1.267   0.267   6.338 -0.1931  0.4303 -1.0551
11191TIP3   OH254987   6.460   1.784  15.181 -0.6613 -0.3450  0.5667
11191TIP3    H154988   6.433   1.835  15.258 -2.2511 -0.6307  0.2417
11191TIP3    H254989   6.548   1.754  15.202 -0.6093  0.5453  1.7782
11192TIP3   OH254990   0.059   6.741  11.939 -0.2275 -0.0736 -0.4130
11192TIP3    H154991   0.117   6.766  12.011 -0.1139 -1.3048 -0.0638
11192TIP3    H254992   0.039   6.824  11.895  2.8806  0.2590 -1.3997
11193TIP3   OH254993   1.700   1.505  11.102  0.8114 -0.2149  0.5013
11193TIP3    H154994   1.668   1.533  11.016 -1.1580 -1.4210  0.7666
11193TIP3    H254995   1.758   1.432  11.083  1.6613  0.5365  0.1324
11194TIP3   OH254996   5.696   2.360  15.966 -0.0871 -0.2564  0.0178
11194TIP3    H154997   5.626   2.363  15.901  0.8680 -2.2437 -1.1828
11194TIP3    H254998   5.764   2.419  15.932  0.2581 -1.0119 -0.6259
11195TIP3   OH254999   2.232   5.916  14.006  0.6729  0.1663 -0.1355
11195TIP3    H155000   2.155   5.860  14.012 -0.2638  1.4570  0.3248
11195TIP3    H255001   2.261   5.927  14.096  0.0453  1.4543 -0.0602
11196TIP3   OH255002   0.186   2.951  13.451  0.0018 -0.3540  0.4433
11196TIP3    H155003   0.115   3.012  13.429 -1.5926 -2.0600  0.6063
11196TIP3    H255004   0.194   2.895  13.373  1.7814  0.3134  0.0985
11197TIP3   OH255005   5.216   0.964   0.015  0.8083  0.0894  0.3721
11197TIP3    H155006   5.297   0.951  -0.035  0.8060  3.7513 -0.8951
11197TIP3    H255007   5.154   0.996  -0.050 -0.3859  1.3219  2.0558
11198TIP3   OH255008   2.483   2.300  13.783 -0.1184 -0.5513 -0.2464
11198TIP3    H155009   2.389   2.283  13.784 -0.7045  2.2404  0.5516
11198TIP3    H255010   2.492   2.388  13.746  2.3551 -1.3438 -1.8388
11199TIP3   OH255011   6.453   2.738  12.769  0.2544 -0.4949 -0.0214
11199TIP3    H155012   6.498   2.805  12.718 -1.8061  0.0458 -1.2178
11199TIP3    H255013   6.392   2.786  12.824 -0.5415 -1.3290 -0.1610
11200TIP3   OH255014   3.912   0.105  11.870 -0.1164  0.0581 -0.1038
11200TIP3    H155015   3.971   0.126  11.798  0.7544  0.1874  0.6234
11200TIP3    H255016   3.959   0.134  11.949 -1.5766  1.0910  0.4378
11201TIP3   OH255017   3.861   5.233   0.548 -0.0297 -0.7757 -0.3394
11201TIP3    H155018   3.947   5.276   0.550  0.8563 -2.4645 -0.2827
11201TIP3    H255019   3.810   5.278   0.616  1.0764 -0.2931  0.2027
11202TIP3   OH255020   1.199   3.833  13.884 -0.0588 -0.9927  0.3240
11202TIP3    H155021   1.286   3.793  13.883  0.5954  0.3570 -1.3975
11202TIP3    H255022   1.139   3.760  13.869  0.6644 -2.0629  2.2673
11203TIP3   OH255023   6.245   0.821  13.561 -0.1829 -0.2027 -0.3134
11203TIP3    H155024   6.162   0.841  13.517 -1.3529  0.5185  2.0387
11203TIP3    H255025   6.219   0.769  13.638  1.6106 -0.4585  0.1610
11204TIP3   OH255026   1.190   2.756   2.045 -0.9731 -0.1999 -0.1963
11204TIP3    H155027   1.096   2.772   2.039 -1.4330 -1.9658  1.3725
11204TIP3    H255028   1.221   2.760   1.955 -2.2926  1.6519 -0.6388
11205TIP3   OH255029   1.365   4.610   3.731 -0.2343  0.4198 -0.3877
11205TIP3    H155030   1.398   4.639   3.816 -0.2696 -1.6229  0.3806
11205TIP3    H255031   1.425   4.648   3.667  0.2314  1.3775  0.5878
11206TIP3   OH255032   1.067   5.873   3.714 -0.5833  0.4462 -0.1461
11206TIP3    H155033   1.080   5.816   3.638  4.0416 -0.3175  0.9276
11206TIP3    H255034   1.045   5.813   3.785  1.5679  0.2096  0.3902
11207TIP3   OH255035   0.777   3.754  15.297 -1.0143 -0.5433 -0.3630
11207TIP3    H155036   0.829   3.729  15.373  0.2483 -0.3472 -1.1330
11207TIP3    H255037   0.797   3.687  15.231 -1.1221 -0.0299 -0.9262
11208TIP3   OH255038   2.858   6.730  13.086  0.2959 -0.6602 -0.1479
11208TIP3    H155039   2.935   6.733  13.029 -0.0494  0.6238 -0.5714
11208TIP3    H255040   2.806   6.657  13.051  1.4062 -1.7223  0.3093
11209TIP3   OH255041   5.583   3.272  11.952  0.1901  0.0764  0.1338
11209TIP3    H155042   5.500   3.305  11.919 -0.7693 -1.8234  0.5079
11209TIP3    H255043   5.621   3.347  12.000 -1.4190  0.9040  0.1890
11210TIP3   OH255044   0.353   1.088  15.370  0.8458  0.1484  0.0382
11210TIP3    H155045   0.322   1.004  15.336 -0.3829  1.2034 -1.6339
11210TIP3    H255046   0.276   1.145  15.367  1.4024  1.0952  2.0688
11211TIP3   OH255047   0.086   2.348  17.025 -0.1584  0.0151 -0.1602
11211TIP3    H155048   0.179   2.342  17.045 -0.2928  0.4113  0.6469
11211TIP3    H255049   0.081   2.346  16.930  0.7699  1.1753 -0.2570
11212TIP3   OH255050   0.155   6.385   5.495  0.5645 -0.2744  0.2668
11212TIP3    H155051   0.139   6.336   5.575  0.2896 -1.4932 -0.5120
11212TIP3    H255052   0.074   6.377   5.445  1.4571 -1.3745 -1.0732
11213TIP3   OH255053   0.085   0.718  15.994 -0.3452 -0.3633 -0.0726
11213TIP3    H155054   0.085   0.783  16.063 -1.8047 -0.3508 -0.0465
11213TIP3    H255055   0.106   0.767  15.914  0.9155 -0.3041  0.2819
11214TIP3   OH255056   4.039   2.824   0.040  0.0905  0.0635 -0.3756
11214TIP3    H155057   3.978   2.882   0.085  0.0758 -0.7765  0.7306
11214TIP3    H255058   3.997   2.738   0.045 -0.2688  0.0379 -2.6753
11215TIP3   OH255059   2.348   1.750  11.849  0.4427  0.1786  0.2225
11215TIP3    H155060   2.435   1.721  11.823  0.1911  0.6630 -1.3188
11215TIP3    H255061   2.293   1.672  11.844  0.6003  0.0679  0.2371
11216TIP3   OH255062   6.125   0.912  15.823 -0.1262  0.0670  0.2294
11216TIP3    H155063   6.079   0.834  15.853  1.2033 -1.1345 -0.7390
11216TIP3    H255064   6.137   0.899  15.729  0.4739  1.2584  0.1239
11217TIP3   OH255065   6.411   0.965  13.183 -0.4371  0.0998  0.3899
11217TIP3    H155066   6.400   0.924  13.097  0.2953  0.4835  0.1101
11217TIP3    H255067   6.485   0.918  13.223 -0.2011  0.5196  0.4461
11218TIP3   OH255068   2.456   5.640   6.211  0.4384  0.1353  0.5034
11218TIP3    H155069   2.545   5.664   6.236 -0.0304  1.0670  1.3319
11218TIP3    H255070   2.413   5.723   6.190 -0.1793 -0.3228 -0.1133
11219TIP3   OH255071   6.231   5.772  14.372 -0.2745  0.2573 -0.2351
11219TIP3    H155072   6.203   5.801  14.459  1.4239 -1.8049  1.0909
11219TIP3    H255073   6.156   5.790  14.316 -1.2693  2.0880  1.5256
11220TIP3   OH255074   1.264   0.335  15.295 -0.0203  0.0595  0.0965
11220TIP3    H155075   1.290   0.267  15.233 -1.2163 -1.1142  0.8292
11220TIP3    H255076   1.346   0.380  15.316  0.5836 -0.2332 -1.4587
11221TIP3   OH255077   1.870   3.731  12.628  0.1636 -0.2741 -0.1901
11221TIP3    H155078   1.844   3.653  12.580  2.0996 -0.6607 -0.6881
11221TIP3    H255079   1.787   3.772  12.654 -0.9003 -1.5937 -1.3484
11222TIP3   OH255080   1.049   6.541  16.618  0.4553  0.3942 -0.2995
11222TIP3    H155081   0.971   6.531  16.672  0.4716  2.5193  0.2104
11222TIP3    H255082   1.016   6.560  16.531  0.4122 -0.1471 -0.4009
11223TIP3   OH255083   3.048   3.524  12.130  0.0717  0.1197  0.7977
11223TIP3    H155084   2.965   3.498  12.169 -0.1424 -0.4334 -0.0206
11223TIP3    H255085   3.080   3.594  12.187 -1.1623  0.6447  0.8570
11224TIP3   OH255086   0.467   3.228  13.671  0.5497  0.3905 -0.1781
11224TIP3    H155087   0.452   3.134  13.658  0.1123  0.5490 -0.8297
11224TIP3    H255088   0.478   3.237  13.766 -0.0552 -0.2324 -0.0387
11225TIP3   OH255089   2.285   0.240  13.763 -0.5368  0.1188  0.1579
11225TIP3    H155090   2.263   0.146  13.760 -3.0584  0.5893  1.0296
11225TIP3    H255091   2.360   0.249  13.705 -1.0489 -2.2471 -1.0089
11226TIP3   OH255092   6.228   3.813   2.357  0.2556 -0.0266  0.9308
11226TIP3    H155093   6.222   3.754   2.432 -0.1288  0.3631  1.2102
11226TIP3    H255094   6.194   3.763   2.283  1.9678 -0.9347  0.6950
11227TIP3   OH255095   2.219   0.555  17.173 -0.6001  0.4761  0.2453
11227TIP3    H155096   2.231   0.555  17.078  0.6700  0.3877  0.3930
11227TIP3    H255097   2.303   0.586  17.207 -1.1258  0.7287  1.3332
11228TIP3   OH255098   2.393   0.696  13.446  0.6609 -0.4095  0.5851
11228TIP3    H155099   2.332   0.665  13.512  0.0768 -0.8450 -0.1403
11228TIP3    H255100   2.341   0.756  13.392  0.7127 -1.1440 -0.3220
11229TIP3   OH255101   3.177   1.703  12.871  0.0868 -0.3649  0.0174
11229TIP3    H155102   3.135   1.633  12.921  1.1089 -0.0851  1.3455
11229TIP3    H255103   3.125   1.781  12.891  1.0953 -0.0375  1.5845
11230TIP3   OH255104   1.468   5.123   5.718  0.7251 -0.2943  0.0969
11230TIP3    H155105   1.540   5.114   5.655  1.2873 -0.0398  0.6829
11230TIP3    H255106   1.410   5.188   5.678  0.4125 -1.0832 -0.7436
11231TIP3   OH255107   2.945   1.953   5.283 -0.5992 -0.5939 -0.1817
11231TIP3    H155108   2.882   1.893   5.323  0.6366 -1.4744  0.5269
11231TIP3    H255109   2.902   1.984   5.204 -2.1291 -0.7386  0.5687
11232TIP3   OH255110   5.831   1.143  14.859  0.4275  0.3571 -0.3985
11232TIP3    H155111   5.765   1.138  14.791 -0.7906  0.0011  0.7750
11232TIP3    H255112   5.867   1.055  14.865 -2.0270 -0.6479  1.8113
11233TIP3   OH255113   1.268   2.085   2.417  0.2852 -0.8687  0.4282
11233TIP3    H155114   1.248   2.006   2.467 -0.1298 -1.0275  0.0173
11233TIP3    H255115   1.187   2.106   2.372 -0.4503  1.3142  2.5698
11234TIP3   OH255116   0.196   3.029  14.459 -0.0684  0.7383  0.2498
11234TIP3    H155117   0.278   3.053  14.415  0.1683  0.3495  0.4715
11234TIP3    H255118   0.187   2.935  14.442  0.2451  0.4916  1.3782
11235TIP3   OH255119   5.421   6.086   0.760 -0.1129 -0.2025  0.3283
11235TIP3    H155120   5.457   6.012   0.711 -2.8601 -0.2411 -1.8280
11235TIP3    H255121   5.497   6.142   0.777  1.6927 -2.4273  0.1331
11236TIP3   OH255122   6.543   3.438  16.324  0.6962  0.1324 -0.3192
11236TIP3    H155123   6.522   3.406  16.411  0.6986 -0.2050 -0.4388
11236TIP3    H255124   6.505   3.373  16.265 -0.9578  1.3017 -0.6261
11237TIP3   OH255125   0.686   2.992   5.810  0.2305  0.5774  0.0616
11237TIP3    H155126   0.706   2.969   5.901  0.7919 -0.3748 -0.2819
11237TIP3    H255127   0.765   3.037   5.779  0.6841 -0.4975 -0.4032
11238TIP3   OH255128   5.659   0.627  15.715 -0.2231  0.2378 -0.4860
11238TIP3    H155129   5.713   0.706  15.711 -0.5082  0.5395  0.8738
11238TIP3    H255130   5.593   0.647  15.782 -1.5544 -0.4045 -1.5551
11239TIP3   OH255131   1.923   0.219  14.410  0.0821  0.0295 -0.5828
11239TIP3    H155132   1.910   0.127  14.387  0.5221 -0.3072  0.4929
11239TIP3    H255133   1.970   0.256  14.335 -2.8060  0.1768 -2.4937
11240TIP3   OH255134   6.037   0.170   2.741  0.6823 -0.1817  0.3526
11240TIP3    H155135   6.007   0.079   2.731 -0.5740  0.4473 -2.5118
11240TIP3    H255136   6.111   0.178   2.682  0.9270  0.6201  0.7566
11241TIP3   OH255137   1.541   2.609  14.147  0.1466  0.3344  0.5471
11241TIP3    H155138   1.602   2.658  14.201 -0.6609 -0.1286  1.9403
11241TIP3    H255139   1.463   2.665  14.142 -0.4192 -0.3515  1.3396
11242TIP3   OH255140   4.822   2.365  12.598  0.1890 -0.0624 -0.4490
11242TIP3    H155141   4.787   2.390  12.684  2.1379  0.4592  0.2418
11242TIP3    H255142   4.765   2.294  12.569 -0.7081 -0.0417  1.1411
11243TIP3   OH255143   6.122   3.141   4.075 -0.2356 -0.4732 -0.2910
11243TIP3    H155144   6.100   3.214   4.132  1.8295 -0.0287  0.0179
11243TIP3    H255145   6.140   3.181   3.990 -0.2380 -0.7472 -0.4231
11244TIP3   OH255146   3.586   2.043   5.226  0.0191 -0.2222 -0.3173
11244TIP3    H155147   3.642   2.119   5.244 -0.0249 -0.0957 -0.7084
11244TIP3    H255148   3.592   2.031   5.131  0.0413 -0.7202 -0.2529
11245TIP3   OH255149   0.810   0.117  14.104 -0.1520  0.2635 -0.2304
11245TIP3    H155150   0.891   0.098  14.055 -1.3156 -0.9182 -1.8127
11245TIP3    H255151   0.747   0.053  14.071 -1.4467  0.4291  1.7915
11246TIP3   OH255152   0.932   0.201  15.925 -0.0821  0.0499  0.2520
11246TIP3    H155153   0.948   0.167  16.013 -1.8172  0.0087  0.5753
11246TIP3    H255154   0.944   0.296  15.933 -0.5647  0.0824  0.6256
11247TIP3   OH255155   1.469   5.986  15.781  0.3197  0.4016  0.0415
11247TIP3    H155156   1.391   5.996  15.835 -0.2084  1.8134 -0.9111
11247TIP3    H255157   1.539   5.963  15.842 -0.0770  2.6836  1.4773
11248TIP3   OH255158   2.665   4.757  12.429  1.0049  0.7979 -0.3671
11248TIP3    H155159   2.580   4.767  12.386 -0.0665  0.3322  1.5209
11248TIP3    H255160   2.723   4.723  12.361 -0.7167 -0.3824 -1.3200
11249TIP3   OH255161   3.074   5.700  16.964  0.2008  1.0099  0.4199
11249TIP3    H155162   3.004   5.720  16.901 -0.2764 -0.5644  0.4094
11249TIP3    H255163   3.029   5.659  17.038  0.9166  1.6732  1.2478
11250TIP3   OH255164   5.587   2.166   4.846 -0.4717 -0.4330 -0.0135
11250TIP3    H155165   5.637   2.192   4.924  2.2689 -0.0390 -1.7595
11250TIP3    H255166   5.650   2.121   4.791 -3.0358 -3.2836 -0.8584
11251TIP3   OH255167   3.416   0.127   1.945 -0.1371 -0.7392 -0.0202
11251TIP3    H155168   3.333   0.089   1.916 -0.4633 -0.4855  0.5580
11251TIP3    H255169   3.400   0.221   1.947  0.4532 -0.6114 -0.7831
11252TIP3   OH255170   1.734   4.013  14.716  0.3192  0.1486 -0.5549
11252TIP3    H155171   1.777   3.978  14.638  0.4093 -0.7640 -0.1123
11252TIP3    H255172   1.750   3.947  14.784 -1.9591 -0.3633 -0.4229
11253TIP3   OH255173   3.752   1.916  14.393 -0.0917 -0.2749  0.6608
11253TIP3    H155174   3.734   1.980  14.461 -0.0800  1.2518 -0.7176
11253TIP3    H255175   3.802   1.847  14.437  0.2173  0.8306  2.1043
11254TIP3   OH255176   1.652   6.126  14.860  0.2302 -0.0101  0.2042
11254TIP3    H155177   1.558   6.132  14.871 -0.3125 -2.7925 -1.9511
11254TIP3    H255178   1.677   6.042  14.898  1.6093  0.0737 -0.4280
11255TIP3   OH255179   2.706   2.941  14.089 -0.2795  0.4800  0.5613
11255TIP3    H155180   2.752   2.974  14.012  0.2857 -0.1574  0.6099
11255TIP3    H255181   2.733   2.999  14.160  1.2040 -0.4138  0.7764
11256TIP3   OH255182   4.938   1.084   3.721 -0.2035  0.1075  0.4249
11256TIP3    H155183   4.869   1.032   3.682 -1.0840  0.3706  1.5746
11256TIP3    H255184   4.917   1.174   3.696 -1.9871  0.5508  3.0796
11257TIP3   OH255185   0.074   5.643   4.852 -0.0592 -0.2418  0.0307
11257TIP3    H155186   0.163   5.667   4.880  0.0998  0.2599 -0.8700
11257TIP3    H255187   0.024   5.640   4.934  0.1634  2.1815  0.3527
11258TIP3   OH255188   3.742   4.806   1.931 -0.1943 -0.8081 -0.3670
11258TIP3    H155189   3.728   4.736   1.867 -0.9224 -1.0150  0.0083
11258TIP3    H255190   3.785   4.763   2.005  2.6364 -0.1634 -1.5369
11259TIP3   OH255191   1.616   2.993  11.935 -0.1785 -0.4144 -0.1068
11259TIP3    H155192   1.665   2.911  11.947 -0.9581 -0.6151  2.0787
11259TIP3    H255193   1.683   3.061  11.935  0.4126 -0.9468 -1.2250
11260TIP3   OH255194   0.755   6.499   5.562 -0.1712  0.1604  0.1058
11260TIP3    H155195   0.811   6.427   5.531 -1.3406 -0.0254 -1.7447
11260TIP3    H255196   0.681   6.455   5.603 -0.4552  0.3234 -0.2312
11261TIP3   OH255197   6.614   0.225   6.691  0.3763  0.5796 -0.1953
11261TIP3    H155198   6.536   0.226   6.746  0.4337  0.3180 -0.1073
11261TIP3    H255199   6.673   0.163   6.734 -0.6908 -1.9058 -2.0907
11262TIP3   OH255200   2.848   2.824   1.225  0.2994  0.2413 -0.0700
11262TIP3    H155201   2.871   2.771   1.149  1.4946  0.0178  0.4131
11262TIP3    H255202   2.879   2.912   1.203 -0.6403  0.4921 -0.4075
11263TIP3   OH255203   3.513   0.672   5.842 -0.1152  0.2529  0.0724
11263TIP3    H155204   3.589   0.712   5.885  1.6485 -1.4862 -1.2345
11263TIP3    H255205   3.530   0.578   5.847 -2.8617 -0.2883  0.8298
11264TIP3   OH255206   6.720   5.479   0.990 -0.4405 -0.3145  0.0032
11264TIP3    H155207   6.686   5.500   1.077 -0.6840  0.6954 -0.3190
11264TIP3    H255208   6.689   5.391   0.972  0.2722 -0.8464  1.2674
11265TIP3   OH255209   5.402   3.542  15.096  0.6284  0.0750 -0.4871
11265TIP3    H155210   5.458   3.480  15.142  1.6152  1.9242  0.9910
11265TIP3    H255211   5.429   3.537  15.004  1.8131 -0.5109 -0.1204
11266TIP3   OH255212   1.337   1.677   2.738  0.2637 -0.2212  0.3689
11266TIP3    H155213   1.283   1.599   2.747  0.0653 -0.0905  0.3105
11266TIP3    H255214   1.362   1.699   2.828  1.6829 -1.2996  0.2850
11267TIP3   OH255215   1.279   2.625   0.450 -0.0527 -0.0194  0.6538
11267TIP3    H155216   1.242   2.616   0.538 -1.3916  0.5360  0.1777
11267TIP3    H255217   1.246   2.709   0.418 -0.1340 -0.5079 -0.6294
11268TIP3   OH255218   0.813   1.057   3.631  0.8512 -0.2121 -0.2345
11268TIP3    H155219   0.855   0.978   3.663 -0.2419 -0.8871 -0.4397
11268TIP3    H255220   0.722   1.033   3.617  0.3186  1.2649  0.3870
11269TIP3   OH255221   1.088   5.841  15.565  0.2790 -0.0669  0.4211
11269TIP3    H155222   1.102   5.927  15.605  1.5673  0.3151 -0.7974
11269TIP3    H255223   1.004   5.812  15.601 -0.5104  1.9788  0.3683
11270TIP3   OH255224   0.264   6.170   5.104  0.0178 -0.7810 -0.3543
11270TIP3    H155225   0.305   6.195   5.187  0.2907 -1.9904 -0.1166
11270TIP3    H255226   0.336   6.166   5.041 -0.2586  0.6566 -0.8002
11271TIP3   OH255227   1.384   2.433   4.254  0.2236  0.6786 -0.6542
11271TIP3    H155228   1.412   2.514   4.297  0.4972  1.4993 -2.2873
11271TIP3    H255229   1.436   2.365   4.296  0.7288  1.4770  0.0617
11272TIP3   OH255230   1.451   1.272  15.188 -0.0140  0.0954  0.4075
11272TIP3    H155231   1.498   1.248  15.108 -0.3029 -1.1041  0.5811
11272TIP3    H255232   1.476   1.363  15.204  3.5014 -0.8583  1.3142
11273TIP3   OH255233   4.978   0.258  13.439 -0.1535 -0.7865  0.2300
11273TIP3    H155234   4.931   0.186  13.482  0.0344 -0.2339  1.4051
11273TIP3    H255235   4.966   0.332  13.498 -0.1093  0.0794 -0.8356
11274TIP3   OH255236   2.069   2.745  16.693  0.4401 -0.0425 -0.1720
11274TIP3    H155237   1.982   2.729  16.655 -0.3938  1.4409  0.9611
11274TIP3    H255238   2.081   2.675  16.757 -0.6744  0.6107  0.7996
11275TIP3   OH255239   6.681   1.155   6.212 -0.1475  0.3042  0.1828
11275TIP3    H155240   6.689   1.096   6.288  0.8485  0.8054  0.4916
11275TIP3    H255241   6.660   1.240   6.250  2.6235  1.0927  0.1579
11276TIP3   OH255242   4.620   6.093  16.760  0.1773  0.3994 -0.3881
11276TIP3    H155243   4.664   6.058  16.682  1.7771 -0.3918  0.8114
11276TIP3    H255244   4.690   6.127  16.814 -0.6082 -1.1225  1.7176
11277TIP3   OH255245   0.839   4.302  16.326  0.0575 -0.3169  0.0512
11277TIP3    H155246   0.845   4.224  16.270 -1.5601 -1.4808  1.3797
11277TIP3    H255247   0.910   4.293  16.389 -0.7557 -1.3357  0.8637
11278TIP3   OH255248   1.330   5.237  11.634 -0.2180 -0.0229 -0.3598
11278TIP3    H155249   1.267   5.283  11.690  1.6210  0.2404  1.6555
11278TIP3    H255250   1.312   5.144  11.650 -0.3602  0.0434 -0.1273
11279TIP3   OH255251   3.682   1.764   5.250 -0.7985  0.6690 -0.3934
11279TIP3    H155252   3.737   1.832   5.209  0.0044  0.1860 -0.1330
11279TIP3    H255253   3.741   1.718   5.309 -1.7952  0.9776  0.8980
11280TIP3   OH255254   0.584   4.669  11.356 -0.3961  0.6807  0.0137
11280TIP3    H155255   0.637   4.599  11.319 -0.8803  0.8366 -1.0311
11280TIP3    H255256   0.630   4.695  11.436  0.9972  0.6906 -0.7528
11281TIP3   OH255257   2.997   2.902  15.557  0.1041  0.4178  0.0781
11281TIP3    H155258   3.073   2.883  15.612  2.5134  1.0356 -2.7728
11281TIP3    H255259   3.018   2.859  15.473 -2.8647  0.3851 -0.7405
11282TIP3   OH255260   2.878   0.215  11.507 -0.1966 -0.0763  0.0948
11282TIP3    H155261   2.854   0.277  11.576 -0.4788  0.7441 -0.7196
11282TIP3    H255262   2.965   0.243  11.479 -0.8545  0.7970 -1.1674
11283TIP3   OH255263   6.383   5.594   5.537  0.3209 -0.3354 -0.1184
11283TIP3    H155264   6.327   5.596   5.614 -0.3564  0.9063 -0.6041
11283TIP3    H255265   6.358   5.514   5.491 -2.5397  1.1098 -1.3341
11284TIP3   OH255266   5.675   3.401  11.305 -0.0800  0.6266  0.3000
11284TIP3    H155267   5.697   3.391  11.212 -0.9250 -1.0014  0.2555
11284TIP3    H255268   5.580   3.390  11.309  0.0201  0.0600  1.4265
11285TIP3   OH255269   4.495   4.174  13.464  0.2868  0.0671 -0.2116
11285TIP3    H155270   4.548   4.150  13.388  0.6556  0.2988 -0.0285
11285TIP3    H255271   4.431   4.237  13.429  0.9535  0.7782 -0.1803
11286TIP3   OH255272   2.193   0.587   5.500 -0.2111 -0.5678 -0.4131
11286TIP3    H155273   2.184   0.606   5.594 -0.8016  0.7241 -0.7135
11286TIP3    H255274   2.105   0.566   5.471 -0.0495 -0.8463 -0.7066
11287TIP3   OH255275   3.204   3.295  16.740 -0.0885 -0.7890  0.0159
11287TIP3    H155276   3.259   3.218  16.727  0.6344  0.0235 -2.3547
11287TIP3    H255277   3.265   3.369  16.739 -0.6985 -0.1295  2.7438
11288TIP3   OH255278   5.344   0.997   5.927 -0.5000 -0.2846  0.2595
11288TIP3    H155279   5.343   1.007   6.022  0.1921  0.0118  0.2406
11288TIP3    H255280   5.326   0.904   5.912 -1.9039 -0.0941  0.6226
11289TIP3   OH255281   5.879   2.218  12.408  0.9344  0.2452 -0.1621
11289TIP3    H155282   5.967   2.241  12.378  1.3205 -0.2890  0.5455
11289TIP3    H255283   5.890   2.197  12.500  0.3252 -1.3120 -0.4269
11290TIP3   OH255284   0.495   4.134   6.439 -0.2679 -0.6675 -0.0592
11290TIP3    H155285   0.456   4.077   6.506  0.7422  0.2366  1.3494
11290TIP3    H255286   0.538   4.204   6.488  2.3834 -1.1094 -1.5136
11291TIP3   OH255287   6.756   1.728   0.422 -0.0622  0.2487  0.1253
11291TIP3    H155288   6.764   1.748   0.329 -0.3376 -0.5933 -0.0852
11291TIP3    H255289   6.674   1.770   0.448 -1.2751 -1.5612 -0.6028
11292TIP3   OH255290   2.356   4.012  13.186  0.2769  0.3321  0.3242
11292TIP3    H155291   2.273   4.052  13.160 -0.8259 -0.2464  2.6665
11292TIP3    H255292   2.347   3.921  13.159  0.5822  0.4769 -0.2884
11293TIP3   OH255293   4.788   0.684   3.867  0.4100  0.1602 -0.8259
11293TIP3    H155294   4.852   0.636   3.814 -0.2008 -1.2647 -0.3273
11293TIP3    H255295   4.703   0.654   3.835  0.0192 -1.1207  1.2102
11294TIP3   OH255296   6.303   2.487   3.753 -0.2761 -0.1493 -0.1332
11294TIP3    H155297   6.392   2.521   3.761 -0.1504 -0.6224  0.5470
11294TIP3    H255298   6.311   2.408   3.700 -0.2407 -0.3902  0.2317
11295TIP3   OH255299   6.175   3.557  10.716 -0.1015  0.1684  0.1313
11295TIP3    H155300   6.270   3.563  10.729 -0.4472  1.3624  2.6592
11295TIP3    H255301   6.165   3.536  10.623  2.7102 -3.2031  0.3747
11296TIP3   OH255302   1.774   1.277  11.363 -0.3371  0.2168 -0.3420
11296TIP3    H155303   1.681   1.298  11.371 -0.0291  1.5033  0.0020
11296TIP3    H255304   1.805   1.330  11.290  0.5834  1.4749  0.9116
11297TIP3   OH255305   6.305   3.503  15.828  0.2159  0.3447  0.4774
11297TIP3    H155306   6.297   3.418  15.871 -0.4239  0.0337 -0.2544
11297TIP3    H255307   6.332   3.483  15.739 -0.8008  0.8474  0.0399
11298TIP3   OH255308   2.657   1.010  12.789  0.1303  0.2896  0.4092
11298TIP3    H155309   2.596   1.022  12.716 -2.1041 -1.0354  1.9394
11298TIP3    H255310   2.685   1.098  12.812 -0.2490  0.8343 -1.1238
11299TIP3   OH255311   4.808   2.264   2.414 -0.0537  0.1608 -0.5173
11299TIP3    H155312   4.821   2.338   2.473 -0.4260 -0.2454  0.0843
11299TIP3    H255313   4.732   2.219   2.449  0.7254 -1.0400 -0.3057
11300TIP3   OH255314   0.546   3.271  13.391  0.3309 -0.0529  0.8211
11300TIP3    H155315   0.598   3.191  13.384 -0.1139 -0.2382 -0.9818
11300TIP3    H255316   0.515   3.272  13.481  0.4256 -1.8776  0.9078
11301TIP3   OH255317   2.123   5.281  13.036  0.2140  0.3738 -1.1723
11301TIP3    H155318   2.034   5.260  13.009 -0.0239 -0.0690 -0.0920
11301TIP3    H255319   2.178   5.255  12.961 -0.2714 -2.2617 -0.7016
11302TIP3   OH255320   0.423   6.181   4.159 -0.1178  0.1156  0.1136
11302TIP3    H155321   0.484   6.226   4.218 -1.4305  0.2730  1.4401
11302TIP3    H255322   0.371   6.125   4.217 -0.3444 -1.0446 -1.1512
11303TIP3   OH255323   2.523   3.773   5.356  0.1243  0.9211  0.2638
11303TIP3    H155324   2.512   3.837   5.286 -0.2461 -0.4031 -0.9349
11303TIP3    H255325   2.506   3.689   5.314 -0.2289  0.0999  1.9895
11304TIP3   OH255326   5.747   3.188   3.753  0.3791 -0.2092  0.0857
11304TIP3    H155327   5.766   3.262   3.811  1.6690  1.5713 -2.4140
11304TIP3    H255328   5.660   3.208   3.717 -0.1347 -0.9698  0.8751
11305TIP3   OH255329   3.750   0.754   3.124  0.7328  0.5954  0.1330
11305TIP3    H155330   3.810   0.811   3.170  0.7541 -0.2696  1.2220
11305TIP3    H255331   3.802   0.718   3.052  1.8639 -0.8759  1.6087
11306TIP3   OH255332   2.574   4.647   2.346 -0.7838  0.7301  0.2403
11306TIP3    H155333   2.501   4.591   2.372  0.2774 -1.1722 -0.6934
11306TIP3    H255334   2.602   4.688   2.428  0.3617 -2.5587  1.6920
11307TIP3   OH255335   0.395   1.023   5.825  0.1655  0.2296 -0.3740
11307TIP3    H155336   0.430   1.034   5.913  0.3988 -1.0699 -0.2827
11307TIP3    H255337   0.470   1.040   5.767  0.2213  0.2806 -0.2857
11308TIP3   OH255338   3.300   4.272  11.883  0.0085  0.0014  0.0301
11308TIP3    H155339   3.210   4.302  11.895 -0.6246 -1.0672 -1.7194
11308TIP3    H255340   3.330   4.317  11.804  0.3294 -1.1083 -0.4957
11309TIP3   OH255341   4.105   6.316  15.688  0.5922 -0.5450  0.1146
11309TIP3    H155342   4.140   6.314  15.777 -0.4017  2.0526  0.6443
11309TIP3    H255343   4.059   6.399  15.682  1.2018 -0.3057 -3.0747
11310TIP3   OH255344   3.219   0.371   0.777  0.1339  0.4274  0.5776
11310TIP3    H155345   3.250   0.437   0.840 -1.3874  0.0682  1.7791
11310TIP3    H255346   3.260   0.396   0.694  1.5904  1.3924  1.5315
11311TIP3   OH255347   3.922   2.240  14.435  0.2506  0.2445  0.3946
11311TIP3    H155348   3.879   2.172  14.488 -0.0226  1.3073  1.5950
11311TIP3    H255349   4.007   2.253  14.477  0.0676  1.0318  0.5451
11312TIP3   OH255350   2.927   4.534  12.518  0.6923 -0.0832  0.0760
11312TIP3    H155351   3.008   4.492  12.547  0.3398 -0.7563  0.0934
11312TIP3    H255352   2.886   4.566  12.598 -0.3919 -2.1389  0.4138
11313TIP3   OH255353   0.798   6.365  12.180  0.3368  0.2378 -0.3285
11313TIP3    H155354   0.788   6.397  12.090  0.9604  0.4171 -0.3411
11313TIP3    H255355   0.812   6.271  12.170  0.3436  0.2481 -0.4178
11314TIP3   OH255356   3.370   1.524   0.018  0.2278  0.1104 -0.1127
11314TIP3    H155357   3.419   1.455  -0.025 -1.2178 -1.1798  0.2165
11314TIP3    H255358   3.373   1.503   0.111  1.1815  1.4556  0.1923
11315TIP3   OH255359   0.635   0.385  13.332 -0.5889  0.1272 -0.0570
11315TIP3    H155360   0.721   0.407  13.298  0.7169 -0.2105  2.7509
11315TIP3    H255361   0.600   0.322  13.268  0.5128  1.4490 -2.0698
11316TIP3   OH255362   4.712   2.164   1.811  0.0997 -0.3690 -0.5015
11316TIP3    H155363   4.751   2.167   1.724  0.9525  4.0563 -0.2357
11316TIP3    H255364   4.786   2.162   1.871 -0.3379 -0.2073  0.0540
11317TIP3   OH255365   2.591   6.563   0.542 -0.2529  0.3553 -0.0979
11317TIP3    H155366   2.660   6.498   0.552 -1.1575 -1.3005 -3.2923
11317TIP3    H255367   2.544   6.562   0.626  1.9468 -0.4008  1.1946
11318TIP3   OH255368   6.544   6.172   2.435 -0.1465 -0.2408  0.0405
11318TIP3    H155369   6.624   6.207   2.475  0.7037 -2.0158 -0.0248
11318TIP3    H255370   6.574   6.102   2.377 -1.6152  0.2971 -1.4482
11319TIP3   OH255371   6.297   3.583   0.932  0.2302  0.2279 -0.3173
11319TIP3    H155372   6.347   3.557   1.010  2.0565  2.3420 -0.6572
11319TIP3    H255373   6.210   3.547   0.945  0.8959 -0.6867  2.0179
11320TIP3   OH255374   4.093   3.441   4.560 -0.1634 -0.2554 -0.3381
11320TIP3    H155375   4.184   3.418   4.581 -0.3842 -0.6444  0.2354
11320TIP3    H255376   4.092   3.536   4.556 -0.0510 -0.1637  1.2256
11321TIP3   OH255377   4.614   1.638   4.035  0.0556  0.0812  0.1431
11321TIP3    H155378   4.615   1.560   4.090  1.6151 -0.6587 -0.8684
11321TIP3    H255379   4.525   1.638   3.997 -0.4956 -0.2810  1.3857
11322TIP3   OH255380   6.386   0.214  15.365 -0.1602  0.0931  0.1129
11322TIP3    H155381   6.456   0.247  15.308  0.2837 -1.3630 -0.2363
11322TIP3    H255382   6.409   0.247  15.452 -0.0338  1.1121 -0.2880
11323TIP3   OH255383   3.490   4.021  16.322  0.0826  0.1692 -0.4011
11323TIP3    H155384   3.447   4.006  16.406 -2.5861  1.8652 -1.3196
11323TIP3    H255385   3.583   4.030  16.343 -0.4657  0.2194  2.3065
11324TIP3   OH255386   3.002   6.701   5.372 -0.4469  0.1354 -0.8912
11324TIP3    H155387   2.965   6.789   5.373 -0.6016  0.0916  1.3026
11324TIP3    H255388   3.096   6.715   5.365 -0.1805  0.7015  2.3535
11325TIP3   OH255389   1.180   5.582  15.276  0.2683  0.0083  0.0527
11325TIP3    H155390   1.206   5.674  15.279  1.0809 -0.2261  0.4908
11325TIP3    H255391   1.114   5.574  15.345 -0.2155  0.3762 -0.3568
11326TIP3   OH255392   1.235   5.997   3.483 -0.2424  0.7096  0.2179
11326TIP3    H155393   1.202   5.908   3.496 -0.3453  0.5720 -0.8239
11326TIP3    H255394   1.299   6.010   3.553  0.2449 -0.4210  0.0102
11327TIP3   OH255395   6.435   3.877  16.746 -0.1920 -0.0206 -0.5099
11327TIP3    H155396   6.402   3.792  16.775 -0.6273  0.1856 -0.3858
11327TIP3    H255397   6.384   3.941  16.795  0.1409  0.3153 -0.5902
11328TIP3   OH255398   1.665   6.299  13.121 -0.0735 -0.0021 -0.1106
11328TIP3    H155399   1.711   6.284  13.039 -0.1609 -1.0508  0.0100
11328TIP3    H255400   1.722   6.359  13.170  1.0916 -1.0849 -0.0562
11329TIP3   OH255401   3.599   4.078   1.450 -0.3296  0.1203  0.4686
11329TIP3    H155402   3.609   4.132   1.372 -2.2450 -0.0469  0.0707
11329TIP3    H255403   3.664   4.009   1.440 -0.0070  0.5579 -0.5566
11330TIP3   OH255404   0.436   2.490  12.228 -0.2431  0.2021 -0.4008
11330TIP3    H155405   0.358   2.497  12.173  0.5488 -0.5630 -1.6670
11330TIP3    H255406   0.454   2.580  12.255  0.3762  0.9249 -2.9107
11331TIP3   OH255407   3.585   3.662  14.935  0.2246  0.1082 -0.0325
11331TIP3    H155408   3.542   3.710  14.864  4.2061 -0.2657 -3.0406
11331TIP3    H255409   3.569   3.570  14.916  0.5630  0.0241  0.0704
11332TIP3   OH255410   6.296   5.852   4.581  1.2690 -0.3795  0.3705
11332TIP3    H155411   6.203   5.843   4.560  1.1923  2.1353 -0.7483
11332TIP3    H255412   6.334   5.767   4.560 -0.3862 -0.7138 -1.5285
11333TIP3   OH255413   6.528   6.050  13.343 -0.2292  0.1426 -0.0188
11333TIP3    H155414   6.623   6.061  13.332 -0.0241 -2.3354 -1.7322
11333TIP3    H255415   6.520   6.002  13.426 -0.1471  1.7122  0.9247
11334TIP3   OH255416   5.281   0.179   3.012  0.2390  0.6960 -0.1712
11334TIP3    H155417   5.273   0.105   2.952  1.5741  0.2844  0.1339
11334TIP3    H255418   5.368   0.215   2.993 -0.3706  2.1772 -0.2952
11335TIP3   OH255419   1.780   4.609   1.641  0.3372 -0.3612  0.8019
11335TIP3    H155420   1.702   4.635   1.689 -0.4327 -2.6263  0.8811
11335TIP3    H255421   1.852   4.656   1.684 -0.7697  0.5048  1.7514
11336TIP3   OH255422   5.487   5.594   4.977 -0.3389 -0.4687 -0.5441
11336TIP3    H155423   5.447   5.512   5.008 -1.2830  0.1483 -0.0830
11336TIP3    H255424   5.462   5.599   4.885 -0.3565 -0.6644 -0.5511
11337TIP3   OH255425   1.023   2.228  15.462 -0.2181 -0.4850 -0.1260
11337TIP3    H155426   1.029   2.277  15.544 -1.4792 -1.0000  0.2902
11337TIP3    H255427   1.073   2.147  15.479 -2.1944 -1.5686  0.9133
11338TIP3   OH255428   5.588   2.987  16.126  0.3626 -0.0085  0.0953
11338TIP3    H155429   5.579   2.976  16.032  0.0079 -0.9943  0.2335
11338TIP3    H255430   5.522   2.929  16.164 -0.4467  1.4050  0.9353
11339TIP3   OH255431   2.574   3.873  15.188 -0.6331  0.3827 -0.0649
11339TIP3    H155432   2.516   3.905  15.119  0.7632 -0.3616 -1.6423
11339TIP3    H255433   2.519   3.812  15.238 -1.7536  1.1546 -0.3095
11340TIP3   OH255434   3.262   4.417  11.604  0.5250 -0.1962  0.1138
11340TIP3    H155435   3.192   4.352  11.600  2.1320 -2.1391  1.4611
11340TIP3    H255436   3.313   4.404  11.524  0.6941 -0.4327  0.2579
11341TIP3   OH255437   1.455   2.330   3.100  0.1474  0.5800  0.3364
11341TIP3    H155438   1.548   2.318   3.117 -0.2952 -1.9036  1.4290
11341TIP3    H255439   1.430   2.406   3.153  1.1902  0.0821  1.5806
11342TIP3   OH255440   1.089   3.542   6.166  0.2487  0.0118 -0.0839
11342TIP3    H155441   1.046   3.466   6.206 -0.8254  0.6455  0.0021
11342TIP3    H255442   1.063   3.539   6.074 -0.1798  0.5372  0.0178
11343TIP3   OH255443   3.756   4.053  12.902 -1.0015  0.2221 -0.0048
11343TIP3    H155444   3.754   4.082  12.993 -1.3980  0.2332 -0.0172
11343TIP3    H255445   3.844   4.076  12.872 -0.4970 -0.6908  0.6750
11344TIP3   OH255446   1.930   4.888  14.656 -0.2572 -0.0511 -0.1663
11344TIP3    H155447   1.984   4.863  14.731 -1.9495 -2.4959  0.3531
11344TIP3    H255448   1.870   4.954  14.690  0.6529  0.7746 -0.0984
11345TIP3   OH255449   1.157   1.514   3.452 -0.2803  0.2531 -0.3297
11345TIP3    H155450   1.123   1.507   3.541  0.5911 -0.3238 -0.0221
11345TIP3    H255451   1.252   1.511   3.463 -0.1736 -1.3785 -1.3781
11346TIP3   OH255452   5.716   4.099   3.544  0.5216  0.2120  0.3962
11346TIP3    H155453   5.693   4.187   3.572  0.6308  0.7820 -1.1946
11346TIP3    H255454   5.632   4.056   3.530  0.4235  0.7102 -0.6745
11347TIP3   OH255455   6.520   1.718  17.247 -0.1872  0.2622  0.7608
11347TIP3    H155456   6.587   1.711  17.179 -1.6433 -1.0931 -0.6576
11347TIP3    H255457   6.467   1.793  17.221 -0.7309 -0.2420  0.3702
11348TIP3   OH255458   0.006   4.216  12.301  0.3160  0.4569 -0.2427
11348TIP3    H155459  -0.023   4.133  12.261  1.7190 -0.1011 -0.1614
11348TIP3    H255460   0.021   4.274  12.226  2.3548 -0.3951 -0.5668
11349TIP3   OH255461   0.612   1.251  14.233 -0.4177  0.5045 -0.3475
11349TIP3    H155462   0.634   1.226  14.323 -1.3142 -0.8117 -0.4597
11349TIP3    H255463   0.694   1.245  14.185 -0.0494  0.6214  0.2587
11350TIP3   OH255464   5.157   0.604   6.514  0.0563 -0.3578  0.5525
11350TIP3    H155465   5.230   0.548   6.539  0.1247 -0.0009  1.2055
11350TIP3    H255466   5.198   0.678   6.469  0.0709 -0.3368  0.5990
11351TIP3   OH255467   0.422   0.609  15.756  0.0917  0.6130  0.3826
11351TIP3    H155468   0.444   0.691  15.712  0.8687  0.1175 -0.1906
11351TIP3    H255469   0.366   0.563  15.693  0.3812  0.3306  0.3306
11352TIP3   OH255470   2.587   0.733  11.708 -0.1742 -0.0860 -0.2737
11352TIP3    H155471   2.645   0.768  11.640  1.3983 -1.3352  0.3780
11352TIP3    H255472   2.505   0.715  11.662  0.1198  1.1569 -1.3448
11353TIP3   OH255473   5.514   6.736   3.914  0.1380  0.1654  0.1181
11353TIP3    H155474   5.493   6.806   3.853  0.6654  0.8941  0.7433
11353TIP3    H255475   5.597   6.764   3.954  0.1613 -0.6358  0.6423
11354TIP3   OH255476   2.408   0.398  11.478 -0.3181 -0.8454 -0.3454
11354TIP3    H155477   2.398   0.403  11.383 -0.3201 -0.5756 -0.3312
11354TIP3    H255478   2.499   0.371  11.491  0.3929  1.3608 -0.3915
11355TIP3   OH255479   4.518   3.660  17.212  0.2398  0.1485  0.7624
11355TIP3    H155480   4.440   3.714  17.225  0.8738  1.1489  0.5036
11355TIP3    H255481   4.525   3.650  17.117  1.1263  1.1269  0.7160
11356TIP3   OH255482   6.647   0.973  13.338 -0.1585 -0.0374  0.2475
11356TIP3    H155483   6.686   0.896  13.297  0.2753  0.8523 -1.0871
11356TIP3    H255484   6.720   1.018  13.380 -0.6361 -1.0749  2.3392
11357TIP3   OH255485   3.245   4.523  16.368 -0.1115  0.2928  0.0381
11357TIP3    H155486   3.223   4.462  16.298 -1.8254  0.5064  0.3576
11357TIP3    H255487   3.269   4.604  16.323  3.0561 -0.7639 -0.4299
11358TIP3   OH255488   6.176   6.249   1.115 -0.4750  0.3066 -0.1363
11358TIP3    H155489   6.234   6.311   1.160 -0.9785  0.9374 -0.3404
11358TIP3    H255490   6.232   6.208   1.049  0.6515 -1.6036  1.8355
11359TIP3   OH255491   3.114   4.842  16.657  0.6765 -0.3444  0.0830
11359TIP3    H155492   3.125   4.747  16.647  1.5075 -0.0571 -2.1862
11359TIP3    H255493   3.183   4.880  16.603 -0.9366  1.5432 -0.7612
11360TIP3   OH255494   1.135   3.623  16.330 -0.4117 -0.3231  0.0849
11360TIP3    H155495   1.138   3.672  16.412 -0.3512 -0.5338  0.2094
11360TIP3    H255496   1.154   3.532  16.355 -0.5327 -0.4137 -0.1416
11361TIP3   OH255497   4.242   3.857  10.749 -0.0588 -0.0181 -0.5988
11361TIP3    H155498   4.301   3.782  10.743  1.4632  0.7629  2.3647
11361TIP3    H255499   4.171   3.828  10.807 -0.3469  0.3225 -0.7724
11362TIP3   OH255500   4.218   4.622   5.841 -0.0590 -0.1947 -0.6449
11362TIP3    H155501   4.281   4.694   5.839 -1.0841  0.7247 -0.9885
11362TIP3    H255502   4.148   4.653   5.898 -0.6697 -0.7972 -1.0581
11363TIP3   OH255503   1.661   4.294   4.352  1.2392  0.4271 -0.1593
11363TIP3    H155504   1.707   4.370   4.317  1.7767  1.3022  2.2472
11363TIP3    H255505   1.694   4.285   4.442 -0.9118 -0.9064  0.5729
11364TIP3   OH255506   2.221   1.887   0.748 -0.4017 -0.6419 -0.1506
11364TIP3    H155507   2.143   1.920   0.791 -2.2774 -1.9954 -2.2795
11364TIP3    H255508   2.294   1.917   0.803 -2.3713  0.7678  1.8509
11365TIP3   OH255509   1.791   6.009  17.119 -0.9576 -0.4752  0.1549
11365TIP3    H155510   1.713   5.956  17.138 -0.7757 -0.7328  0.1925
11365TIP3    H255511   1.778   6.090  17.168 -0.6951 -0.9550  1.0533
11366TIP3   OH255512   5.586   5.748   2.150  0.0364 -0.4244  0.3245
11366TIP3    H155513   5.624   5.818   2.096  0.1448 -1.3419 -0.8225
11366TIP3    H255514   5.544   5.795   2.223  0.0078  0.8445 -0.4680
11367TIP3   OH255515   4.497   3.082  16.432  0.2569  0.1277  0.2717
11367TIP3    H155516   4.509   3.044  16.519  0.6068 -1.3698 -0.4068
11367TIP3    H255517   4.506   3.176  16.446  0.1334 -0.0687  1.8797
11368TIP3   OH255518   2.470   5.488  11.763  0.0318 -0.2709 -0.0960
11368TIP3    H155519   2.477   5.568  11.816  1.8431 -0.3911 -0.0810
11368TIP3    H255520   2.508   5.420  11.818  0.1959 -0.7734 -0.8279
11369TIP3   OH255521   4.741   0.951  16.117 -0.3669  0.3117 -0.7640
11369TIP3    H155522   4.783   1.034  16.139  0.2185 -0.0482 -0.4875
11369TIP3    H255523   4.647   0.969  16.120 -0.2918  0.5484  0.9761
11370TIP3   OH255524   5.183   2.050  11.823 -0.2201  0.8536 -0.5926
11370TIP3    H155525   5.202   2.143  11.822  1.0732  0.7742  2.8421
11370TIP3    H255526   5.268   2.008  11.839 -1.1732 -0.6150  1.0463
11371TIP3   OH255527   3.340   1.784  13.940  0.4720  0.9452  0.2808
11371TIP3    H155528   3.325   1.860  13.996 -1.4532  1.0410 -0.2964
11371TIP3    H255529   3.379   1.718  13.997 -0.9640  1.2173  1.6228
11372TIP3   OH255530   1.398   6.682   0.217 -0.0279 -0.1456 -0.2967
11372TIP3    H155531   1.410   6.724   0.303  2.9740  1.2773 -1.2763
11372TIP3    H255532   1.422   6.591   0.231  0.2688  0.0336  0.4013
11373TIP3   OH255533   2.202   3.991   1.591  0.0968 -0.8625 -0.3861
11373TIP3    H155534   2.114   4.029   1.586 -0.1288 -1.3904 -0.6610
11373TIP3    H255535   2.186   3.897   1.600  0.6313 -0.8623  0.7071
11374TIP3   OH255536   5.305   5.667   2.767  0.2175 -0.6145  0.0981
11374TIP3    H155537   5.352   5.609   2.707 -1.0034 -0.1463 -1.3447
11374TIP3    H255538   5.237   5.611   2.805  1.0869 -0.9545  1.2374
11375TIP3   OH255539   5.427   0.694   6.608 -0.1491  0.1150  0.3210
11375TIP3    H155540   5.491   0.624   6.593 -1.3099 -0.8975 -0.1039
11375TIP3    H255541   5.382   0.668   6.689 -0.9850  0.0321 -0.1548
11376TIP3   OH255542   0.073   0.299   6.135 -0.3450  0.2604  0.6135
11376TIP3    H155543   0.038   0.214   6.107  0.0864  0.0142  0.8112
11376TIP3    H255544   0.138   0.278   6.202  0.8356  0.6368 -0.3670
11377TIP3   OH255545   6.165   1.846   3.907 -0.6384 -0.7048  0.1232
11377TIP3    H155546   6.116   1.910   3.855 -0.3777 -0.2108  0.4663
11377TIP3    H255547   6.246   1.832   3.858 -0.8738 -1.0856 -0.1578
11378TIP3   OH255548   0.701   0.959  13.108 -0.7045 -0.0610  0.0942
11378TIP3    H155549   0.711   0.975  13.202 -1.4565 -2.9154  0.7377
11378TIP3    H255550   0.611   0.987  13.088 -0.7335  0.0249  0.3477
11379TIP3   OH255551   0.269   1.033  14.236  0.4032 -0.3296  0.0408
11379TIP3    H155552   0.216   0.970  14.187  0.4290 -1.1095  0.9783
11379TIP3    H255553   0.268   1.000  14.326  2.2921 -0.2398  0.1350
11380TIP3   OH255554   4.910   4.840  11.645 -0.5748  0.0239  0.2009
11380TIP3    H155555   4.945   4.770  11.700  1.8563 -0.9332 -2.3754
11380TIP3    H255556   4.985   4.872  11.594 -1.7338  4.0106  0.6239
11381TIP3   OH255557   0.400   4.831  12.324  0.1009 -0.1046  0.5184
11381TIP3    H155558   0.470   4.830  12.259 -0.4399  0.6179 -0.1045
11381TIP3    H255559   0.414   4.912  12.373 -2.2717  2.0231 -1.9360
11382TIP3   OH255560   1.394   2.048  14.434 -0.6851  0.2250 -0.1530
11382TIP3    H155561   1.473   2.094  14.463 -0.1456 -1.2073  0.7793
11382TIP3    H255562   1.336   2.117  14.401 -0.6414  1.8042  2.7520
11383TIP3   OH255563   2.887   5.308  14.317 -0.2478 -0.2757  0.5210
11383TIP3    H155564   2.960   5.262  14.359 -0.0634 -0.1664  0.3255
11383TIP3    H255565   2.842   5.353  14.389  0.5032  0.5140  0.5235
11384TIP3   OH255566   1.241   2.198  12.288  0.5056 -0.2855  0.1013
11384TIP3    H155567   1.165   2.251  12.314  0.4173 -0.4077  0.0946
11384TIP3    H255568   1.220   2.110  12.320  0.6951 -0.2955  0.1967
11385TIP3   OH255569   1.142   2.790  13.077  0.5655 -0.3152 -0.8127
11385TIP3    H155570   1.181   2.755  13.156 -1.3843 -0.8218 -0.0052
11385TIP3    H255571   1.212   2.788  13.011  1.2642 -3.2268 -0.0920
11386TIP3   OH255572   4.296   4.431   2.297 -0.1098  0.0621  0.0134
11386TIP3    H155573   4.278   4.524   2.312  0.8690  0.3289 -0.4061
11386TIP3    H255574   4.348   4.404   2.373 -0.9739 -0.3397  0.4874
11387TIP3   OH255575   6.373   6.303  14.374  0.4642  0.3463  0.0576
11387TIP3    H155576   6.301   6.333  14.429 -1.3010 -0.6016 -1.6336
11387TIP3    H255577   6.370   6.360  14.298  0.3635 -0.8122 -0.8276
11388TIP3   OH255578   4.777   1.437  10.999  0.1887  0.3137  0.2834
11388TIP3    H155579   4.694   1.413  11.040  0.1427 -1.0881 -0.5448
11388TIP3    H255580   4.814   1.503  11.056 -0.9174  0.0424  1.3537
11389TIP3   OH255581   1.671   5.086  14.234 -0.3556  0.5217 -1.1770
11389TIP3    H155582   1.730   5.079  14.158 -1.3624  2.9605 -2.2969
11389TIP3    H255583   1.687   5.174  14.268  1.1371 -0.9905  2.4787
11390TIP3   OH255584   0.783   3.769   4.722 -0.0694 -0.3689  0.6706
11390TIP3    H155585   0.830   3.850   4.740  0.5011 -0.5723  0.1434
11390TIP3    H255586   0.847   3.700   4.737  0.0721 -0.6109 -0.8322
11391TIP3   OH255587   3.719   5.493  12.201 -0.2980 -0.2278 -0.6184
11391TIP3    H155588   3.798   5.531  12.239  0.3182 -0.4555 -1.6303
11391TIP3    H255589   3.733   5.498  12.106 -0.9459 -1.4137 -0.7944
11392TIP3   OH255590   6.319   4.802   3.731  0.1284 -0.1973  0.0949
11392TIP3    H155591   6.383   4.872   3.717  0.3887 -0.5452 -0.5373
11392TIP3    H255592   6.306   4.764   3.644 -2.7967  1.4175 -0.2718
11393TIP3   OH255593   3.460   4.432  13.041 -0.1528 -0.2013  0.7819
11393TIP3    H155594   3.494   4.518  13.015  0.2204 -0.6812 -0.3909
11393TIP3    H255595   3.500   4.415  13.126  0.1822  0.5583  0.7864
11394TIP3   OH255596   0.716   2.552   1.561 -0.1246  0.0596 -0.0794
11394TIP3    H155597   0.668   2.574   1.481 -1.3374 -0.4757  0.4767
11394TIP3    H255598   0.658   2.493   1.608 -0.3428  1.9967  2.2220
11395TIP3   OH255599   5.824   0.702  14.685 -0.2657 -0.1310  0.5278
11395TIP3    H155600   5.875   0.749  14.751  0.4812  0.2069 -0.2581
11395TIP3    H255601   5.846   0.746  14.603 -0.1915 -1.3421 -0.1192
11396TIP3   OH255602   6.140   3.327   1.296 -0.0095 -0.2511  0.1968
11396TIP3    H155603   6.200   3.367   1.359 -2.4614  2.2589  1.1536
11396TIP3    H255604   6.087   3.268   1.348 -1.1037  0.7572  0.2743
11397TIP3   OH255605   4.721   0.034  11.402 -0.6876 -0.8587  0.1422
11397TIP3    H155606   4.773   0.007  11.326 -0.8842 -2.3017  0.4835
11397TIP3    H255607   4.630   0.029  11.371 -0.6904  1.5774 -0.4289
11398TIP3   OH255608   0.600   5.215  11.830 -0.3337 -0.8916 -0.2108
11398TIP3    H155609   0.543   5.231  11.905 -1.5584 -0.8353 -1.1080
11398TIP3    H255610   0.590   5.293  11.775  1.4513 -0.4062  0.0799
11399TIP3   OH255611   4.630   4.613  12.489 -0.0450  0.5675  0.1538
11399TIP3    H155612   4.645   4.592  12.581  0.7854 -0.2467 -0.1490
11399TIP3    H255613   4.606   4.529  12.449  1.0365  0.6169 -0.6394
11400TIP3   OH255614   6.095   3.992   4.089  0.0724  0.0262  0.3197
11400TIP3    H155615   6.142   4.035   4.160 -0.0639  1.1270 -0.2291
11400TIP3    H255616   6.060   4.064   4.036  1.2296 -0.7143 -1.5813
11401TIP3   OH255617   2.998   3.637  15.870  0.5453  0.0935 -0.3463
11401TIP3    H155618   3.056   3.657  15.797  0.0576  1.3779 -0.4074
11401TIP3    H255619   2.926   3.587  15.831  0.4585  0.4818 -0.6877
11402TIP3   OH255620   5.407   0.426   5.424 -0.4250 -0.3067  0.1339
11402TIP3    H155621   5.502   0.416   5.413 -0.4988  0.6086 -1.6815
11402TIP3    H255622   5.398   0.507   5.475 -0.2326 -1.6729  2.5223
11403TIP3   OH255623   0.798   5.463   2.737  0.0808  0.2234 -0.0877
11403TIP3    H155624   0.819   5.421   2.654  1.1656 -1.2562  0.8730
11403TIP3    H255625   0.861   5.426   2.799  2.4240  4.5776  0.5746
11404TIP3   OH255626   0.370   6.295  15.301  0.2273  0.2593  0.3873
11404TIP3    H155627   0.379   6.227  15.367 -0.0211  0.4413  0.6133
11404TIP3    H255628   0.460   6.320  15.278  0.3688  1.9894  2.5271
11405TIP3   OH255629   3.242   1.897   6.722  0.0081 -0.3278 -0.0665
11405TIP3    H155630   3.229   1.981   6.767 -0.7804 -0.2553 -0.4036
11405TIP3    H255631   3.154   1.872   6.693  0.5243 -0.2338 -1.8076
11406TIP3   OH255632   3.508   1.640   4.602 -0.7286  0.6813  0.7311
11406TIP3    H155633   3.428   1.628   4.653 -0.0595 -1.1287  1.4442
11406TIP3    H255634   3.480   1.687   4.523 -1.9433  2.8165  2.3260
11407TIP3   OH255635   1.474   3.760   0.146 -0.2232  0.0462 -0.4927
11407TIP3    H155636   1.463   3.701   0.220 -0.8303 -1.1734 -1.5102
11407TIP3    H255637   1.535   3.827   0.177  0.2397 -0.9359  0.7998
11408TIP3   OH255638   0.469   0.785   4.123  0.0041  0.3439 -0.1400
11408TIP3    H155639   0.508   0.854   4.177 -1.4827  1.3777 -0.3304
11408TIP3    H255640   0.463   0.824   4.036 -0.3342 -0.2215 -0.3700
11409TIP3   OH255641   0.373   3.361  16.988 -0.3974  0.6968  0.0853
11409TIP3    H155642   0.335   3.436  16.941 -1.1578  0.7451  0.7535
11409TIP3    H255643   0.311   3.290  16.974 -1.3174  1.0401  2.0062
11410TIP3   OH255644   1.074   5.973  17.168  0.1505 -0.3515  0.0560
11410TIP3    H155645   1.159   5.930  17.177  1.2881  1.7329 -0.1587
11410TIP3    H255646   1.035   5.966  17.254  0.4355 -1.5033  0.1093
11411TIP3   OH255647   1.684   4.468   0.259  0.4328  0.2105 -0.6636
11411TIP3    H155648   1.715   4.536   0.200 -0.5586  0.6457 -0.7173
11411TIP3    H255649   1.640   4.405   0.202 -1.9143  1.4146 -0.3218
11412TIP3   OH255650   4.942   4.967  11.147 -0.6763 -0.0382 -0.1125
11412TIP3    H155651   4.926   5.062  11.149 -1.3785 -0.1497 -0.1326
11412TIP3    H255652   5.035   4.959  11.127 -0.6420  0.6482 -0.2651
11413TIP3   OH255653   1.653   3.641   1.580 -0.8225  0.3104 -0.6857
11413TIP3    H155654   1.621   3.551   1.568  0.1418  0.0211 -1.1858
11413TIP3    H255655   1.715   3.634   1.652 -0.7148  0.5703 -0.7560
11414TIP3   OH255656   5.096   0.243  15.131  0.1617  0.5205 -0.1463
11414TIP3    H155657   5.102   0.334  15.100 -0.3174  0.5443 -0.1650
11414TIP3    H255658   5.004   0.230  15.150 -0.0693 -0.5067 -1.7850
11415TIP3   OH255659   0.118   6.485   3.371 -0.6353 -0.2479  0.5695
11415TIP3    H155660   0.122   6.419   3.301 -0.5204 -0.0732  0.4101
11415TIP3    H255661   0.032   6.473   3.410 -0.8405 -0.1122  0.1637
11416TIP3   OH255662   6.232   3.385   5.412 -0.3510 -0.5406 -0.2880
11416TIP3    H155663   6.146   3.349   5.392 -1.6654  0.8055  2.3636
11416TIP3    H255664   6.294   3.325   5.371 -2.5114 -1.2512 -2.7401
11417TIP3   OH255665   0.245   6.257   4.747 -0.3791 -0.1456  0.0742
11417TIP3    H155666   0.199   6.213   4.677 -1.8626  0.7310  0.4558
11417TIP3    H255667   0.337   6.255   4.721 -0.4729 -2.7015 -0.2792
11418TIP3   OH255668   2.698   5.459   0.499 -0.1824  0.2081  0.2456
11418TIP3    H155669   2.705   5.496   0.411  0.4208  2.2617  1.1021
11418TIP3    H255670   2.748   5.519   0.554 -1.3264 -0.5027  2.1412
11419TIP3   OH255671   3.671   2.687   3.988  0.3037 -0.5330  0.3156
11419TIP3    H155672   3.588   2.707   4.031  0.7114 -2.7019  2.2935
11419TIP3    H255673   3.674   2.747   3.913 -1.3730  2.1253  2.1893
11420TIP3   OH255674   5.309   3.888   0.094 -0.1426 -0.0430  0.2126
11420TIP3    H155675   5.254   3.811   0.079  1.0352 -0.6591 -1.3259
11420TIP3    H255676   5.347   3.907   0.008  3.6361 -0.9609  1.4944
11421TIP3   OH255677   6.193   6.112   0.473 -0.3822  0.5410  0.2604
11421TIP3    H155678   6.116   6.167   0.459 -0.9946 -0.0577  1.1605
11421TIP3    H255679   6.179   6.071   0.559  1.0896  0.6515  0.5902
11422TIP3   OH255680   1.994   3.992  12.306  0.1168  0.1462 -0.2214
11422TIP3    H155681   2.083   3.977  12.273  0.9930  1.9482  1.1181
11422TIP3    H255682   1.939   3.994  12.228  0.8494 -2.9668 -0.9702
11423TIP3   OH255683   0.693   3.922   4.349  0.0790 -0.4052  0.5411
11423TIP3    H155684   0.638   3.994   4.317 -1.2691 -1.0470  1.2937
11423TIP3    H255685   0.767   3.966   4.392 -0.3022  0.5179  0.2878
11424TIP3   OH255686   1.918   0.109  13.299  0.3933 -0.1293  0.0091
11424TIP3    H155687   1.986   0.168  13.332 -0.0405  0.2131  0.3106
11424TIP3    H255688   1.861   0.094  13.375  1.1188 -1.8532  0.2597
11425TIP3   OH255689   3.451   1.435   5.394  0.1801 -0.2086  0.3625
11425TIP3    H155690   3.456   1.399   5.306  1.6019 -1.6811  0.9848
11425TIP3    H255691   3.362   1.414   5.423 -0.2301  0.1102 -0.6292
11426TIP3   OH255692   0.732   3.731  13.900 -0.1202  0.3395  0.2896
11426TIP3    H155693   0.796   3.802  13.911 -1.2565  1.2188  1.6108
11426TIP3    H255694   0.653   3.764  13.942 -0.7914 -1.6067  0.6573
11427TIP3   OH255695   6.009   1.011   0.917 -0.3340  0.2543  0.3108
11427TIP3    H155696   6.080   1.060   0.876 -0.8137  1.2291  0.5843
11427TIP3    H255697   5.934   1.025   0.859 -0.0195 -1.8955 -0.7132
11428TIP3   OH255698   4.620   2.470   1.931 -0.2884 -0.3640  0.6326
11428TIP3    H155699   4.689   2.411   1.903 -1.1041 -1.4695  0.8948
11428TIP3    H255700   4.539   2.429   1.900 -0.9580  0.0295  1.8147
11429TIP3   OH255701   3.155   0.875   2.599  0.1235  0.2599 -0.2299
11429TIP3    H155702   3.073   0.916   2.625 -0.6093 -0.9866 -0.5122
11429TIP3    H255703   3.145   0.858   2.505  0.7086  0.1209 -0.2716
11430TIP3   OH255704   5.631   0.242   4.951  0.5918 -0.2345 -0.2367
11430TIP3    H155705   5.612   0.207   5.038 -0.5861 -0.6232 -0.6410
11430TIP3    H255706   5.557   0.297   4.929  1.5918  1.1114 -0.3775
11431TIP3   OH255707   3.530   3.382  11.059 -0.5178 -0.2463  0.7139
11431TIP3    H155708   3.506   3.339  10.977  3.0668  0.0110 -0.6697
11431TIP3    H255709   3.562   3.468  11.033 -2.0420  1.0412  2.7894
11432TIP3   OH255710   2.894   4.076  17.346 -0.2782 -0.1351 -0.4260
11432TIP3    H155711   2.870   4.004  17.404  0.3480  0.0253  0.0488
11432TIP3    H255712   2.844   4.151  17.378 -1.8459 -0.6095 -1.6575
11433TIP3   OH255713   5.249   3.329   3.508  0.7904  0.5610 -0.2907
11433TIP3    H155714   5.172   3.319   3.452  1.2296  0.5181 -0.9017
11433TIP3    H255715   5.247   3.420   3.537  0.3068  0.4590  0.0063
11434TIP3   OH255716   3.068   4.257   1.936  0.2232 -0.7342 -0.0635
11434TIP3    H155717   3.018   4.180   1.911  0.1760 -0.4082 -0.9951
11434TIP3    H255718   3.134   4.267   1.868  1.6877 -1.2268  1.2057
11435TIP3   OH255719   6.263   1.705  12.636 -0.1388 -0.0629 -0.1557
11435TIP3    H155720   6.358   1.693  12.646 -0.1246 -1.9248 -1.8533
11435TIP3    H255721   6.236   1.635  12.577 -2.9654 -0.9837  1.9694
11436TIP3   OH255722   6.602   1.721  15.700 -0.6725 -0.2430 -0.2703
11436TIP3    H155723   6.523   1.676  15.731  0.8105 -2.2195  0.8334
11436TIP3    H255724   6.641   1.758  15.779 -0.1426  0.1697 -0.7194
11437TIP3   OH255725   0.760   1.180  14.449 -0.2701  0.0475  0.9608
11437TIP3    H155726   0.837   1.225  14.415 -0.9699  0.6210  0.0895
11437TIP3    H255727   0.788   1.089  14.460  0.8374  0.4636  1.7080
11438TIP3   OH255728   2.551   2.237   3.597  0.0896 -0.5106  0.1399
11438TIP3    H155729   2.536   2.217   3.689 -0.5125  2.2704  0.7339
11438TIP3    H255730   2.637   2.200   3.578  0.6224 -0.3701  2.0705
11439TIP3   OH255731   1.994   3.954   5.393  0.0646  0.4772 -0.3473
11439TIP3    H155732   1.943   4.014   5.448  0.6381  0.8928 -0.2711
11439TIP3    H255733   2.059   4.008   5.350  0.1012  0.0299 -0.8727
11440TIP3   OH255734   4.345   1.076  12.123  0.1000 -0.4115 -0.3877
11440TIP3    H155735   4.385   1.034  12.199 -0.2878 -0.6661 -0.3184
11440TIP3    H255736   4.251   1.077  12.143  0.1181  0.7148 -0.2745
11441TIP3   OH255737   4.368   2.082   5.214  0.4088  0.3509 -0.3645
11441TIP3    H155738   4.455   2.100   5.250  1.1277 -0.0789 -1.8146
11441TIP3    H255739   4.372   2.114   5.124 -0.1534 -1.7924 -1.2108
11442TIP3   OH255740   0.285   4.451  14.162 -0.7894  0.0429  0.1093
11442TIP3    H155741   0.326   4.488  14.084 -0.9673  0.4851  0.2232
11442TIP3    H255742   0.287   4.522  14.226 -1.0158 -0.1865  0.3734
11443TIP3   OH255743   1.473   5.951   0.660  0.7416 -0.1564 -0.3367
11443TIP3    H155744   1.523   5.881   0.703 -0.9061 -0.4815  1.1208
11443TIP3    H255745   1.436   6.002   0.732 -1.0761  0.0276 -1.3462
11444TIP3   OH255746   2.511   2.095  16.198  0.9000 -0.0055 -0.1187
11444TIP3    H155747   2.460   2.038  16.255  1.0131 -0.2511 -0.2615
11444TIP3    H255748   2.594   2.049  16.185  1.4844  0.7633  0.7659
11445TIP3   OH255749   2.290   0.832   0.396  0.2587 -0.2928  0.1811
11445TIP3    H155750   2.383   0.830   0.420 -0.1617 -0.2837  1.9096
11445TIP3    H255751   2.252   0.757   0.442 -0.5627 -0.4358 -0.7084
11446TIP3   OH255752   3.263   1.613   5.776  0.7208 -0.1830  0.7185
11446TIP3    H155753   3.231   1.578   5.692  1.0654 -0.1925  0.5869
11446TIP3    H255754   3.357   1.623   5.762  0.6075  0.9470  0.7058
11447TIP3   OH255755   0.992   1.458  16.706 -0.3872  0.1469 -0.3759
11447TIP3    H155756   1.068   1.437  16.652 -0.8812 -0.2130 -0.9411
11447TIP3    H255757   1.010   1.415  16.790  1.1158  1.9975  0.3362
11448TIP3   OH255758   5.816   3.628  13.276 -0.2029  0.0855 -0.6851
11448TIP3    H155759   5.762   3.666  13.207 -0.9757 -2.7221 -1.7505
11448TIP3    H255760   5.900   3.608  13.234  0.7389  1.8230  0.2422
11449TIP3   OH255761   0.324   0.540  12.410  0.1041  0.5119  1.0125
11449TIP3    H155762   0.419   0.540  12.397  0.0669  0.8906  0.7339
11449TIP3    H255763   0.287   0.561  12.324 -0.1687  2.0720  1.4622
11450TIP3   OH255764   4.865   0.116  14.928 -0.8783  0.5784  0.0939
11450TIP3    H155765   4.911   0.038  14.957 -0.6851  0.6154 -0.1125
11450TIP3    H255766   4.919   0.152  14.858 -0.5225  1.3645  0.7538
11451TIP3   OH255767   5.283   2.144   1.027 -0.1273 -0.1589  0.1289
11451TIP3    H155768   5.216   2.106   0.970 -0.4804 -0.0319  0.4535
11451TIP3    H255769   5.251   2.129   1.116 -0.3608  1.0314  0.2720
11452TIP3   OH255770   4.534   4.874   1.445  0.0916  0.1102 -0.0432
11452TIP3    H155771   4.582   4.802   1.486 -0.4163 -1.3272 -1.8302
11452TIP3    H255772   4.448   4.837   1.424  0.2741  0.7487 -2.2163
11453TIP3   OH255773   3.830   1.782   3.957 -0.0434 -0.2351  0.0947
11453TIP3    H155774   3.803   1.708   3.902 -3.1867  1.3928 -0.8053
11453TIP3    H255775   3.831   1.857   3.897  1.0852  0.8245  1.3739
11454TIP3   OH255776   4.229   5.094  15.644 -0.1406 -0.1583 -0.4554
11454TIP3    H155777   4.199   5.150  15.715  1.3827 -0.1462  0.2168
11454TIP3    H255778   4.188   5.009  15.662  0.6807 -0.3094  0.7742
11455TIP3   OH255779   6.684   4.623  13.302 -0.3672 -0.4041 -0.2445
11455TIP3    H155780   6.731   4.697  13.341 -0.0370  0.4726 -2.1998
11455TIP3    H255781   6.592   4.648  13.306 -0.3732 -0.4765  0.2238
11456TIP3   OH255782   5.235   3.251  12.729  0.2999  0.1848  0.4657
11456TIP3    H155783   5.150   3.288  12.704 -0.7224 -0.7463  2.3204
11456TIP3    H255784   5.297   3.323  12.718 -1.0130  1.3808  0.6004
11457TIP3   OH255785   0.929   1.191   6.018  0.3344  0.6013  0.1026
11457TIP3    H155786   0.856   1.238   6.059  1.2443  1.3033  0.9724
11457TIP3    H255787   1.001   1.198   6.082  0.8518 -0.9687 -0.2772
11458TIP3   OH255788   6.725   5.995   5.601  0.1348 -0.0239  0.1766
11458TIP3    H155789   6.721   5.923   5.664  2.9505 -0.7084 -0.2910
11458TIP3    H255790   6.677   5.963   5.525 -0.6642 -0.4222  0.8372
11459TIP3   OH255791   2.450   1.655   2.826 -0.3382 -0.2841  0.9044
11459TIP3    H155792   2.491   1.740   2.843  0.3147 -0.5310  0.5771
11459TIP3    H255793   2.411   1.665   2.740  0.1042 -0.4528  0.6834
11460TIP3   OH255794   1.244   0.441  11.384 -0.8123  0.0940  0.2225
11460TIP3    H155795   1.208   0.359  11.352 -1.9360  1.2328 -1.5989
11460TIP3    H255796   1.264   0.491  11.305  1.9998  0.7311  1.2098
11461TIP3   OH255797   1.248   0.170   1.217  0.0752 -0.1058  0.5738
11461TIP3    H155798   1.207   0.087   1.238  1.1795 -0.2304  2.4096
11461TIP3    H255799   1.202   0.201   1.138 -1.7203 -1.4486  1.0566
11462TIP3   OH255800   4.554   2.879   0.884 -0.0011 -0.0544  0.1979
11462TIP3    H155801   4.631   2.930   0.860 -0.8125  1.7632  1.2597
11462TIP3    H255802   4.494   2.890   0.811  0.1900 -0.2664  0.0097
11463TIP3   OH255803   4.274   3.783  17.215  0.1235 -0.7767 -0.3688
11463TIP3    H155804   4.248   3.844  17.284  1.3278 -2.2880  1.5203
11463TIP3    H255805   4.194   3.769  17.164 -0.5455  1.1464  0.0880
11464TIP3   OH255806   4.798   0.033  13.541 -0.2678 -0.5654 -0.4623
11464TIP3    H155807   4.722   0.066  13.588  1.5234  1.1638  1.4058
11464TIP3    H255808   4.763  -0.036  13.484 -3.0477 -0.4813  0.9860
11465TIP3   OH255809   0.375   2.548  11.818  0.0935  0.5334  0.8103
11465TIP3    H155810   0.287   2.509  11.818  0.0866  0.5431  1.4760
11465TIP3    H255811   0.360   2.640  11.840 -0.0201  1.2587 -1.8904
11466TIP3   OH255812   2.787   4.781  15.104 -0.2656  0.7176 -0.6589
11466TIP3    H155813   2.790   4.694  15.145 -0.7500  1.3501  0.7818
11466TIP3    H255814   2.831   4.838  15.168  1.2316  1.3376 -2.1647
11467TIP3   OH255815   5.824   3.643   0.546  0.0216  0.1296 -0.6046
11467TIP3    H155816   5.802   3.728   0.585 -0.2438  0.6765 -1.9034
11467TIP3    H255817   5.829   3.660   0.452 -0.9226 -1.4773 -0.9855
11468TIP3   OH255818   2.712   0.012   2.752 -0.0655 -0.1664 -0.1871
11468TIP3    H155819   2.751  -0.076   2.751  1.8607  0.6276 -2.3654
11468TIP3    H255820   2.768   0.064   2.695 -2.4049  1.9594 -0.7247
11469TIP3   OH255821   1.436   2.429  14.909 -1.3360 -0.8518  0.5899
11469TIP3    H155822   1.398   2.342  14.916 -0.1095 -1.3317  1.7478
11469TIP3    H255823   1.493   2.437  14.986  1.6821 -0.6040 -1.4662
11470TIP3   OH255824   0.157   4.782   2.260 -0.1208  0.1078 -0.5791
11470TIP3    H155825   0.236   4.738   2.226 -0.4386 -0.6145 -0.3975
11470TIP3    H255826   0.182   4.874   2.265  0.3099  0.0729 -1.6992
11471TIP3   OH255827   0.563   6.145   3.856 -0.1571 -0.4653 -0.1027
11471TIP3    H155828   0.520   6.198   3.923 -0.8618 -0.4732 -0.5321
11471TIP3    H255829   0.656   6.151   3.876 -0.3693 -0.6134  0.9744
11472TIP3   OH255830   6.333   3.387  13.727 -0.2509  0.4816 -0.0291
11472TIP3    H155831   6.398   3.402  13.796  0.5217  0.0392 -0.6482
11472TIP3    H255832   6.292   3.303  13.749 -0.2607  0.5159  0.0824
11473TIP3   OH255833   4.677   3.928  15.214 -0.0955  0.1155 -0.1248
11473TIP3    H155834   4.692   3.835  15.232  0.1291  0.6596  2.8901
11473TIP3    H255835   4.734   3.947  15.140  0.7012 -1.8806 -0.0851
11474TIP3   OH255836   0.104   4.308   1.591  0.1044  0.0462 -0.4548
11474TIP3    H155837   0.098   4.224   1.635 -0.3025  0.9285  1.2813
11474TIP3    H255838   0.019   4.318   1.546 -0.1179 -0.1586 -0.0827
11475TIP3   OH255839   3.014   2.903  11.470  0.2400 -0.5264  0.2600
11475TIP3    H155840   2.967   2.939  11.395 -1.5937 -0.9606  1.1546
11475TIP3    H255841   3.017   2.808  11.453 -0.7467 -0.7030  1.0158
11476TIP3   OH255842   0.626   4.203   5.722 -0.2753 -0.3174 -0.5089
11476TIP3    H155843   0.607   4.119   5.766  1.6536 -0.1209  0.8219
11476TIP3    H255844   0.717   4.194   5.693 -0.1241  1.2247 -0.5655
11477TIP3   OH255845   0.775   1.133   0.817 -0.3083  0.5061 -0.2187
11477TIP3    H155846   0.741   1.087   0.894 -0.1516 -0.5948 -0.7838
11477TIP3    H255847   0.749   1.224   0.830 -0.8463  0.2226  0.8166
11478TIP3   OH255848   0.713   4.356  16.884 -0.2881  0.1063  0.4833
11478TIP3    H155849   0.749   4.410  16.813  0.6105  0.7626  1.4130
11478TIP3    H255850   0.768   4.278  16.886  1.3801  1.2365  2.0927
11479TIP3   OH255851   4.616   5.334   3.939 -0.4444  0.3159  0.3535
11479TIP3    H155852   4.588   5.422   3.963  0.9548  1.0078 -0.4650
11479TIP3    H255853   4.711   5.335   3.950 -0.2814 -0.7338 -0.7753
11480TIP3   OH255854   1.185   1.889  13.372  0.3722  0.0869 -0.2106
11480TIP3    H155855   1.255   1.943  13.335  1.8998 -1.5493  0.1899
11480TIP3    H255856   1.161   1.934  13.453 -0.2688  1.5734 -1.1748
11481TIP3   OH255857   3.339   4.054   3.606  0.0566  0.4516  0.1770
11481TIP3    H155858   3.364   3.991   3.539 -1.2173  1.7801 -1.6736
11481TIP3    H255859   3.289   4.003   3.669  0.3026 -0.6449 -0.4817
11482TIP3   OH255860   5.178   3.070  14.205 -0.0424 -0.6119  0.0370
11482TIP3    H155861   5.223   3.012  14.266 -0.6802 -2.2129 -0.9351
11482TIP3    H255862   5.091   3.031  14.195 -1.0163  1.3195  0.4034
11483TIP3   OH255863   5.645   6.291   2.797  0.1326 -0.2131  0.2524
11483TIP3    H155864   5.667   6.202   2.770  1.1339 -0.4800  1.8155
11483TIP3    H255865   5.566   6.312   2.748 -0.2037 -2.0102 -0.0451
11484TIP3   OH255866   5.568   0.146  10.859  0.5016 -0.3278 -0.5505
11484TIP3    H155867   5.508   0.159  10.933  2.4928 -0.6550  1.2183
11484TIP3    H255868   5.542   0.062  10.821 -0.1686 -0.4555  0.1660
11485TIP3   OH255869   0.113   3.214  11.006 -0.1760  0.4510 -0.4711
11485TIP3    H155870   0.018   3.221  11.002 -0.1232  0.8252 -1.3017
11485TIP3    H255871   0.131   3.122  10.986 -0.3677  0.3129 -0.0310
11486TIP3   OH255872   2.760   4.988   6.378 -0.2309  0.5682  0.1415
11486TIP3    H155873   2.758   5.011   6.471  1.4298  0.2496  0.2927
11486TIP3    H255874   2.747   4.893   6.377 -0.5558  0.6131  0.0177
11487TIP3   OH255875   3.433   6.439  15.732 -0.6931 -0.3462  0.2976
11487TIP3    H155876   3.392   6.431  15.818  0.2068  1.1309  0.9179
11487TIP3    H255877   3.502   6.373  15.732  0.1516  0.4780  1.2777
11488TIP3   OH255878   0.203   6.275  15.738  0.2874 -0.2234 -0.4908
11488TIP3    H155879   0.190   6.237  15.651 -1.5180  0.9122 -0.7611
11488TIP3    H255880   0.115   6.280  15.776  0.3959  3.3690 -0.3970
11489TIP3   OH255881   4.603   2.530  13.935 -0.4603  0.4737 -0.6672
11489TIP3    H155882   4.527   2.542  13.991 -0.4800  1.0359 -0.8089
11489TIP3    H255883   4.572   2.475  13.863  0.0441 -1.9026  0.8223
11490TIP3   OH255884   2.962   0.680   4.400  0.0380 -0.5220 -0.1456
11490TIP3    H155885   2.981   0.598   4.446  1.5864 -0.0764  0.0648
11490TIP3    H255886   3.013   0.674   4.319  0.4988  0.3937  0.0656
11491TIP3   OH255887   2.641   0.961   0.714  0.5087  0.5627 -0.3128
11491TIP3    H155888   2.724   1.000   0.689 -0.0230  0.9442 -1.5543
11491TIP3    H255889   2.636   0.880   0.663 -0.2482  0.9613 -0.8899
11492TIP3   OH255890   6.099   0.162  13.812  0.5317  0.2724  0.0547
11492TIP3    H155891   6.039   0.089  13.825 -0.4603  1.1870  0.8540
11492TIP3    H255892   6.162   0.155  13.883 -0.0727  0.6595  0.6444
11493TIP3   OH255893   3.540   3.010  11.081  0.0490 -0.0002 -0.3804
11493TIP3    H155894   3.469   3.059  11.040  0.7547 -0.0569 -1.7060
11493TIP3    H255895   3.561   3.060  11.160 -1.3085  0.1290 -0.0769
11494TIP3   OH255896   5.208   2.588  17.178  0.4347  0.0753  0.1655
11494TIP3    H155897   5.216   2.672  17.134 -0.3122  0.1723  0.2041
11494TIP3    H255898   5.242   2.603  17.266 -1.1526  0.7788  0.6979
11495TIP3   OH255899   0.178   0.600  17.017 -0.7192 -0.1639  0.1723
11495TIP3    H155900   0.201   0.508  16.999 -1.0794 -0.0321 -1.0280
11495TIP3    H255901   0.136   0.597  17.103  1.6054 -0.7440  1.3815
11496TIP3   OH255902   1.133   3.283   4.334 -0.0841 -0.4784  0.4237
11496TIP3    H155903   1.102   3.299   4.423 -0.6794 -0.1358  0.1594
11496TIP3    H255904   1.133   3.369   4.293  2.1182 -0.3110  0.6744
11497TIP3   OH255905   0.885   2.148  14.241 -0.3642  0.8494 -0.2173
11497TIP3    H155906   0.922   2.115  14.159  0.6376 -0.4790  0.7251
11497TIP3    H255907   0.791   2.152  14.224 -0.3012 -0.5461 -1.0614
11498TIP3   OH255908   5.738   3.023   2.797  0.6340  0.0907  0.1704
11498TIP3    H155909   5.825   3.060   2.812  0.9770 -0.1946 -0.9867
11498TIP3    H255910   5.680   3.075   2.852  1.5676  0.1067  1.1787
11499TIP3   OH255911   2.134   2.971   2.929  0.2730 -0.0602 -0.4440
11499TIP3    H155912   2.221   2.994   2.961  0.2007 -0.3709 -0.0131
11499TIP3    H255913   2.100   3.052   2.891  1.5780 -0.4155 -2.5419
11500TIP3   OH255914   4.288   2.043   4.657 -0.0747  0.5100  0.2427
11500TIP3    H155915   4.329   2.117   4.612 -3.8375  1.4009 -2.1536
11500TIP3    H255916   4.331   1.966   4.620  0.3398  1.3897 -1.2041
11501TIP3   OH255917   3.238   5.383   0.667 -0.1257 -0.5646 -0.0683
11501TIP3    H155918   3.236   5.468   0.712  0.9194 -0.4694 -0.1836
11501TIP3    H255919   3.174   5.392   0.597 -1.1312 -0.4035  0.8349
11502TIP3   OH255920   1.642   5.411   5.458  0.2314 -0.1815 -0.1303
11502TIP3    H155921   1.596   5.467   5.520  0.0962 -1.4380  0.9474
11502TIP3    H255922   1.577   5.345   5.433  1.2808 -1.8167  1.2042
11503TIP3   OH255923   5.041   3.341   3.326  0.4549 -0.1916 -0.1627
11503TIP3    H155924   4.998   3.257   3.312  0.1232 -0.0122 -0.2395
11503TIP3    H255925   4.975   3.406   3.300  0.9145  0.0783 -0.6828
11504TIP3   OH255926   2.172   0.755   0.161  0.7676  0.0486  0.2364
11504TIP3    H155927   2.138   0.843   0.149  1.2617  0.9294  4.0560
11504TIP3    H255928   2.265   0.767   0.179  0.9416 -1.3147  0.3861
11505TIP3   OH255929   5.955   6.171   1.920  0.4797 -0.4954  0.2237
11505TIP3    H155930   5.908   6.232   1.977 -1.4429 -0.7360 -1.0077
11505TIP3    H255931   5.933   6.084   1.954 -0.7031 -0.6402 -0.8559
11506TIP3   OH255932   4.322   2.985  13.033  0.2685  0.6549 -0.1534
11506TIP3    H155933   4.369   3.065  13.010  0.4728 -0.0127 -2.3291
11506TIP3    H255934   4.297   2.997  13.124  2.6885  1.9981  0.4308
11507TIP3   OH255935   4.929   2.441   3.918  0.1450 -0.4071  0.4235
11507TIP3    H155936   4.915   2.403   4.005  1.5788  1.9337  1.7970
11507TIP3    H255937   5.023   2.459   3.914 -0.2793  2.0999 -0.4026
11508TIP3   OH255938   6.156   0.289   2.947 -0.2394  0.2337 -0.2622
11508TIP3    H155939   6.114   0.252   2.870 -0.0877 -0.9741  0.2226
11508TIP3    H255940   6.239   0.323   2.915  0.4330 -1.4876 -0.3940
11509TIP3   OH255941   3.723   2.215   1.326  0.0925 -0.1232 -0.3037
11509TIP3    H155942   3.642   2.239   1.372 -0.7154 -0.5434 -1.4704
11509TIP3    H255943   3.793   2.244   1.384 -0.8918  0.6975  0.5027
11510TIP3   OH255944   3.197   5.655  13.054  0.0610 -0.3542  0.2045
11510TIP3    H155945   3.108   5.653  13.018 -0.0423  1.5832  0.2560
11510TIP3    H255946   3.188   5.697  13.139  1.1764  1.0929 -0.3486
11511TIP3   OH255947   3.050   3.139  13.568 -0.3606  0.0920  0.1285
11511TIP3    H155948   3.116   3.120  13.635 -0.9939  1.2990  1.1252
11511TIP3    H255949   3.025   3.053  13.534  1.9206 -0.3917 -0.5125
11512TIP3   OH255950   3.116   3.866   2.857  0.3375 -0.0600  0.3548
11512TIP3    H155951   3.067   3.809   2.916  0.8979  0.9668  1.8552
11512TIP3    H255952   3.066   3.947   2.854 -0.6090 -0.6421 -2.0048
11513TIP3   OH255953   1.224   1.225   0.174 -0.3843  0.0965 -0.0040
11513TIP3    H155954   1.257   1.144   0.213 -2.4668 -0.4568  0.7712
11513TIP3    H255955   1.259   1.294   0.229 -1.2945 -0.5276  1.4039
11514TIP3   OH255956   6.443   6.403  15.346 -0.0744 -0.1294 -0.0050
11514TIP3    H155957   6.423   6.496  15.361  2.1359  0.5590 -0.9287
11514TIP3    H255958   6.413   6.387  15.257 -1.2601 -0.5806  0.4568
11515TIP3   OH255959   3.786   2.393   2.612 -0.0035 -0.1073 -0.0667
11515TIP3    H155960   3.729   2.345   2.552  0.9045 -0.5884 -0.5692
11515TIP3    H255961   3.845   2.441   2.555 -0.3610  0.9692  0.4431
11516TIP3   OH255962   0.937   5.767   0.812 -0.2145  0.6150  0.0487
11516TIP3    H155963   0.962   5.674   0.818  0.3576  0.8580  1.9502
11516TIP3    H255964   1.011   5.808   0.768 -0.5140  0.1819 -0.8978
11517TIP3   OH255965   3.351   6.432  12.270  0.5055 -0.3064  0.1015
11517TIP3    H155966   3.401   6.366  12.222 -0.2743 -0.1386 -0.9627
11517TIP3    H255967   3.268   6.438  12.224  0.9507  2.2012 -0.5069
11518TIP3   OH255968   4.879   2.238   0.686 -0.0747 -0.2727 -0.0341
11518TIP3    H155969   4.955   2.227   0.629  0.9897 -1.3214  1.4766
11518TIP3    H255970   4.916   2.237   0.775 -1.6091  1.6433  0.6939
11519TIP3   OH255971   0.854   0.671  14.684 -0.2279  0.0533  0.0084
11519TIP3    H155972   0.832   0.602  14.746 -0.5016  0.4250  0.3254
11519TIP3    H255973   0.875   0.747  14.738  0.8521  0.0048 -0.3059
11520TIP3   OH255974   5.927   2.637   1.073  0.5762  0.2255 -0.3835
11520TIP3    H155975   6.014   2.597   1.071  0.6182  0.3285 -0.8329
11520TIP3    H255976   5.869   2.568   1.104  0.8164  0.1503 -0.1000
11521TIP3   OH255977   6.477   5.733  14.016  0.3419 -0.2069  0.5637
11521TIP3    H155978   6.556   5.711  13.966  0.4831 -2.6740  1.7342
11521TIP3    H255979   6.427   5.790  13.957  2.0977 -0.1387 -0.9674
11522TIP3   OH255980   2.958   3.606   1.586 -0.6002  0.9882 -0.3775
11522TIP3    H155981   2.985   3.692   1.554 -0.6137  1.6456  1.2906
11522TIP3    H255982   2.877   3.587   1.538 -2.4274  3.4130  1.4863
11523TIP3   OH255983   2.797   4.769   6.100  0.5518 -0.4388  0.2581
11523TIP3    H155984   2.767   4.838   6.041  1.1982  1.5593  2.1371
11523TIP3    H255985   2.876   4.735   6.058  0.6487  0.4904 -0.3569
11524TIP3   OH255986   4.173   1.607   1.703  0.0059  0.2931 -0.3695
11524TIP3    H155987   4.209   1.638   1.620 -0.1518 -0.5040 -0.7447
11524TIP3    H255988   4.207   1.518   1.713 -0.5431  0.1219  0.0739
11525TIP3   OH255989   0.340   2.688   1.075  0.0646  0.4306  0.3294
11525TIP3    H155990   0.314   2.610   1.026  1.8062 -0.0840  0.1559
11525TIP3    H255991   0.267   2.705   1.134 -0.3183 -1.3748  0.4274
11526TIP3   OH255992   0.281   4.174  13.273  0.0483  0.2812 -0.2827
11526TIP3    H155993   0.221   4.247  13.256 -1.3095 -1.2426 -2.5736
11526TIP3    H255994   0.234   4.119  13.336  0.7420  0.9354  0.8469
11527TIP3   OH255995   5.072   1.450   4.303  0.5612 -0.2338 -0.0588
11527TIP3    H155996   5.041   1.448   4.394  0.5036 -1.9173 -0.0863
11527TIP3    H255997   5.051   1.363   4.268  1.3514  0.0908 -1.4292
11528TIP3   OH255998   0.908   3.521   4.729  0.4604 -0.4774 -0.2147
11528TIP3    H155999   0.819   3.493   4.750  0.4103 -0.9710 -1.0269
11528TIP3    H256000   0.956   3.513   4.811 -0.2555 -0.1244  0.2567
11529TIP3   OH256001   1.554   5.289  13.395  0.2025 -0.2550  0.4817
11529TIP3    H156002   1.569   5.319  13.484 -1.2210  0.5571  0.4885
11529TIP3    H256003   1.460   5.305  13.380  0.5161  0.1151 -1.3330
11530TIP3   OH256004   2.363   4.098  16.942 -0.3225 -0.3022  0.2778
11530TIP3    H156005   2.408   4.180  16.962 -1.1554 -0.1572  1.6817
11530TIP3    H256006   2.414   4.031  16.988  0.3551 -0.5939 -0.8651
11531TIP3   OH256007   1.686   3.138  13.500  0.3911  0.1945 -0.4897
11531TIP3    H156008   1.610   3.154  13.557  0.6439 -0.0667 -0.0725
11531TIP3    H256009   1.746   3.087  13.554  0.4547 -0.4298 -1.1464
11532TIP3   OH256010   2.982   1.769   0.264  0.1678 -0.4365 -0.0230
11532TIP3    H156011   2.910   1.817   0.223 -0.0964 -1.4042 -0.7337
11532TIP3    H256012   2.996   1.813   0.347  0.2740  1.1901 -0.8577
11533TIP3   OH256013   2.049   6.145   4.716  0.3500 -0.0696  0.4204
11533TIP3    H156014   1.999   6.064   4.720  1.1536 -0.5778  0.4929
11533TIP3    H256015   2.025   6.184   4.632  2.3134 -1.9884 -1.1340
11534TIP3   OH256016   2.458   0.515   5.673 -0.3818 -0.2678  0.0665
11534TIP3    H156017   2.426   0.566   5.746 -0.3077  0.9177 -0.6992
11534TIP3    H256018   2.439   0.424   5.696 -0.6443  0.1125  1.3913
11535TIP3   OH256019   0.689   5.492   4.841 -0.0426 -0.1700 -0.1808
11535TIP3    H156020   0.666   5.467   4.752  0.3941  0.7147 -0.5487
11535TIP3    H256021   0.608   5.526   4.879 -1.0294 -3.2590  0.7849
11536TIP3   OH256022   0.788   5.466   3.163  0.0732  0.8868  0.6495
11536TIP3    H156023   0.737   5.536   3.123 -0.2821  0.9880  1.2646
11536TIP3    H256024   0.871   5.508   3.187 -0.2242  1.1672  1.2237
11537TIP3   OH256025   3.561   0.997   1.174 -0.1371 -0.2200  0.2608
11537TIP3    H156026   3.497   0.984   1.105 -1.2101  1.9807  0.7495
11537TIP3    H256027   3.646   0.984   1.131 -0.8355 -2.1878 -0.6265
11538TIP3   OH256028   3.242   0.048   3.965  0.1258 -0.0647  0.3342
11538TIP3    H156029   3.259   0.085   4.051 -0.7579  0.7407  0.1809
11538TIP3    H256030   3.148   0.030   3.964 -0.1137  1.0049 -0.8297
11539TIP3   OH256031   4.568   2.307  14.153 -0.5322  0.3721  0.3360
11539TIP3    H156032   4.653   2.267  14.169 -0.6758 -0.1385 -0.1386
11539TIP3    H256033   4.574   2.394  14.193 -0.7622 -0.6844  2.9011
11540TIP3   OH256034   1.600   1.256   0.637 -0.1493 -0.0113 -0.4819
11540TIP3    H156035   1.570   1.251   0.546 -0.2360  0.2869 -0.4704
11540TIP3    H256036   1.651   1.337   0.641 -0.1997  0.0100 -0.2475
11541TIP3   OH256037   5.161   6.689   2.192  0.6587 -0.7837  0.7938
11541TIP3    H156038   5.098   6.716   2.125 -0.9946 -0.1042  2.5432
11541TIP3    H256039   5.227   6.759   2.192  0.5067 -0.6297  0.1179
11542TIP3   OH256040   6.354   1.559  10.421  0.0550  0.4567 -0.1180
11542TIP3    H156041   6.337   1.623  10.351 -0.1355  1.6296  0.9622
11542TIP3    H256042   6.301   1.483  10.397  1.5759 -0.0122 -2.3228
11543TIP3   OH256043   0.952   4.971  14.501  0.4467 -0.0806 -0.0410
11543TIP3    H156044   0.989   4.968  14.589 -0.7962 -0.7828  0.4916
11543TIP3    H256045   0.953   5.064  14.478  0.4987  0.1574  0.8585
11544TIP3   OH256046   1.884   3.692  11.800  0.7340  0.1717  0.0957
11544TIP3    H156047   1.939   3.660  11.871  0.7774  0.2316  0.0896
11544TIP3    H256048   1.849   3.613  11.759  0.7745  0.1350  0.1316
11545TIP3   OH256049   0.989   5.490   1.796  0.4225  0.7120 -0.1856
11545TIP3    H156050   0.988   5.421   1.863 -0.2089  0.8000 -0.0950
11545TIP3    H256051   0.910   5.474   1.745  0.9799  0.5512 -1.0216
11546TIP3   OH256052   2.903   2.061  12.068  0.1131 -0.2427 -0.1877
11546TIP3    H156053   2.891   2.152  12.094  1.3085  0.1864 -1.0278
11546TIP3    H256054   2.876   2.010  12.144 -1.6701  0.7542 -0.1003
11547TIP3   OH256055   1.721   0.086   4.419 -0.5776 -0.6357 -0.1871
11547TIP3    H156056   1.750   0.168   4.377  1.1422 -0.8643  0.4880
11547TIP3    H256057   1.785   0.021   4.389 -1.6552 -1.6413 -0.3284
11548TIP3   OH256058   4.600   1.930  10.886 -0.2516  0.7805  0.0566
11548TIP3    H156059   4.630   2.018  10.908  0.1467  0.8337 -0.6686
11548TIP3    H256060   4.661   1.899  10.819 -0.4913  0.0187  0.1722
11549TIP3   OH256061   0.476   3.816   5.531 -0.3380  0.1398  0.1378
11549TIP3    H156062   0.513   3.901   5.510 -1.1397  0.6078  0.5906
11549TIP3    H256063   0.384   3.823   5.507 -0.4645 -0.5111  0.4062
11550TIP3   OH256064   5.382   2.740   4.948  0.1696 -0.4315  0.0867
11550TIP3    H156065   5.340   2.744   5.034 -0.1703 -1.0800 -0.0425
11550TIP3    H256066   5.371   2.649   4.920  0.0948 -0.1849 -0.7300
11551TIP3   OH256067   5.174   3.560  13.368  0.2621 -0.2237 -0.1968
11551TIP3    H156068   5.168   3.536  13.461  0.3741 -1.1601 -0.4164
11551TIP3    H256069   5.083   3.573  13.342  0.3265  2.1564  0.5375
11552TIP3   OH256070   4.493   0.706   6.290 -0.0415  0.5141  0.1736
11552TIP3    H156071   4.567   0.767   6.284 -0.2495  0.6119 -3.2411
11552TIP3    H256072   4.416   0.762   6.300 -0.0101  0.7180 -0.6189
11553TIP3   OH256073   3.322   0.934   4.625  0.3354  0.2428  0.5672
11553TIP3    H156074   3.390   0.878   4.588  1.0838  0.9264  0.8688
11553TIP3    H256075   3.314   1.006   4.562  0.2014  0.3799  0.7400
11554TIP3   OH256076   0.253   1.627   0.117  0.1562 -0.2799 -0.1530
11554TIP3    H156077   0.301   1.679   0.182  0.9128  0.3631 -1.1949
11554TIP3    H256078   0.321   1.591   0.060 -0.4492 -1.3968 -0.2029
11555TIP3   OH256079   3.758   3.033  16.821  0.1738 -0.0979  0.5255
11555TIP3    H156080   3.686   3.074  16.774  0.4610 -0.8445 -0.6176
11555TIP3    H256081   3.767   2.947  16.780  2.4071  0.3787 -0.1128
11556TIP3   OH256082   5.690   6.485   2.960 -0.1467 -0.4049 -0.5983
11556TIP3    H156083   5.699   6.415   2.895  0.3465  0.4748 -1.5078
11556TIP3    H256084   5.614   6.535   2.931 -0.4240 -0.4764 -0.0187
11557TIP3   OH256085   0.814   0.143   4.650  0.2583  0.4880  0.4128
11557TIP3    H156086   0.740   0.084   4.662  0.7419 -0.2324 -0.0654
11557TIP3    H256087   0.774   0.230   4.644 -0.9934 -0.1579 -3.5317
11558TIP3   OH256088   3.256   1.554  11.067  0.0819  0.1222 -0.0002
11558TIP3    H156089   3.292   1.477  11.113 -1.0724  0.8944  2.3445
11558TIP3    H256090   3.305   1.557  10.985  0.0581 -3.2046 -0.2810
11559TIP3   OH256091   3.368   2.395  16.805 -0.4108  0.7284  0.3239
11559TIP3    H156092   3.432   2.453  16.845 -0.8595  1.8485 -0.5395
11559TIP3    H256093   3.391   2.395  16.712 -0.3211 -0.6233  0.3232
11560TIP3   OH256094   1.691   1.642  14.564  0.2981 -0.1985  0.6278
11560TIP3    H156095   1.708   1.727  14.606 -1.6173  1.3269 -1.5022
11560TIP3    H256096   1.615   1.607  14.610 -1.6224  1.3432 -1.1776
11561TIP3   OH256097   2.393   2.573   0.623 -0.0032  0.0528 -0.0769
11561TIP3    H156098   2.487   2.557   0.611  0.7216  2.9551  1.0698
11561TIP3    H256099   2.386   2.608   0.712 -2.0150  0.9599 -0.5450
11562TIP3   OH256100   0.790   6.337  12.711 -0.1871 -0.2215 -0.3728
11562TIP3    H156101   0.867   6.285  12.685  0.3084  0.5928 -0.5540
11562TIP3    H256102   0.807   6.424  12.675 -0.2604  0.5097  1.2758
11563TIP3   OH256103   5.020   6.237  12.417 -0.6859  1.0084  0.0429
11563TIP3    H156104   5.068   6.224  12.499  0.5827  0.8000 -0.7063
11563TIP3    H256105   4.964   6.160  12.410  2.8674 -1.7498 -1.7016
11564TIP3   OH256106   1.911   6.023   1.768 -0.0910  0.0688 -0.0804
11564TIP3    H156107   1.949   5.943   1.806  0.5729  0.0971 -0.6780
11564TIP3    H256108   1.880   6.073   1.844 -0.3289 -0.6598  0.3139
11565TIP3   OH256109   4.700   5.536   2.529 -0.2512 -0.6258 -0.2473
11565TIP3    H156110   4.617   5.556   2.486  0.3720 -1.4720 -1.9638
11565TIP3    H256111   4.677   5.490   2.609 -1.4371 -1.0643 -0.8259
11566TIP3   OH256112   0.074   6.741   6.470 -0.0520  0.0429  0.0319
11566TIP3    H156113   0.103   6.659   6.511  0.9594  0.0957 -0.5585
11566TIP3    H256114   0.151   6.798   6.474 -0.2046  0.3414 -1.1724
11567TIP3   OH256115   5.562   2.393   5.487  0.3411  0.3095 -0.0045
11567TIP3    H156116   5.514   2.472   5.461  0.4654  0.3744 -0.0438
11567TIP3    H256117   5.636   2.390   5.426  0.9786  0.8044  0.7223
11568TIP3   OH256118   6.245   0.679  16.512 -0.2197  0.9363  0.2041
11568TIP3    H156119   6.224   0.681  16.418  0.0998  1.4219  0.1393
11568TIP3    H256120   6.174   0.728  16.554 -0.0540  1.2254  0.1507
11569TIP3   OH256121   6.226   0.429  11.849 -0.0075  0.2017 -0.1727
11569TIP3    H156122   6.298   0.492  11.843  1.2701 -1.1516  0.2567
11569TIP3    H256123   6.165   0.467  11.913  0.6130  1.1054 -0.1089
11570TIP3   OH256124   3.420   3.458  15.453 -0.1359 -0.1250  0.2981
11570TIP3    H156125   3.406   3.522  15.383  1.3241 -0.1133 -0.0285
11570TIP3    H256126   3.514   3.438  15.449 -0.6715 -2.9812 -0.2062
11571TIP3   OH256127   2.863   5.350  12.474 -0.0771 -0.0310 -0.7586
11571TIP3    H156128   2.940   5.376  12.524  0.2907  0.0257 -1.3443
11571TIP3    H256129   2.853   5.257  12.492 -1.3733  0.4307  1.3136
11572TIP3   OH256130   1.623   5.785   5.025  0.0835  0.1947 -0.3821
11572TIP3    H156131   1.551   5.723   5.029 -0.0798  0.4775  1.9267
11572TIP3    H256132   1.662   5.784   5.112  1.5026  1.6843 -0.9359
11573TIP3   OH256133   5.893   5.828  10.685  0.2234  0.1431 -0.1964
11573TIP3    H156134   5.820   5.856  10.740  0.3036 -0.2557  0.1173
11573TIP3    H256135   5.913   5.904  10.631  0.6908  0.8141  0.9072
11574TIP3   OH256136   2.226   5.307  15.293  0.3297 -0.4535  0.0105
11574TIP3    H156137   2.262   5.287  15.380  1.5641  1.4573  0.0227
11574TIP3    H256138   2.202   5.400  15.299  0.2638 -0.3438 -1.6250
11575TIP3   OH256139   5.455   5.798  15.910 -0.0518 -0.4364 -1.1068
11575TIP3    H156140   5.372   5.763  15.943  1.2564 -1.6654  1.0677
11575TIP3    H256141   5.514   5.795  15.985  1.4617  2.2855 -2.0383
11576TIP3   OH256142   4.861   2.863   0.989 -0.3215  0.6519 -0.9365
11576TIP3    H156143   4.852   2.938   0.932  2.1707  0.1233 -2.1392
11576TIP3    H256144   4.907   2.896   1.066  1.6288  0.2275 -1.8800
11577TIP3   OH256145   5.851   2.436  12.241  0.1360  0.6374 -0.0301
11577TIP3    H156146   5.814   2.367  12.296 -3.8112  1.7038 -1.0486
11577TIP3    H256147   5.938   2.404  12.218 -0.7228 -3.0284  1.1905
11578TIP3   OH256148   1.836   1.727   5.125 -0.0566  0.3133 -0.0426
11578TIP3    H156149   1.745   1.702   5.141 -0.1753  0.1864 -0.8375
11578TIP3    H256150   1.833   1.773   5.041  0.6218  0.2472 -0.1031
11579TIP3   OH256151   0.221   1.838  14.698  0.4342  0.3805  0.1694
11579TIP3    H156152   0.223   1.817  14.792 -0.2831 -0.6884 -0.0315
11579TIP3    H256153   0.149   1.900  14.689  1.1036  1.2077  0.4520
11580TIP3   OH256154   2.976   5.201  13.522 -0.2986  0.1441  0.1039
11580TIP3    H156155   2.976   5.116  13.478  0.1510  0.4091 -0.4175
11580TIP3    H256156   2.924   5.187  13.601  0.2266 -0.7596  0.3006
11581TIP3   OH256157   0.730   1.686  14.183  0.5261  0.1337  0.1749
11581TIP3    H156158   0.703   1.769  14.144 -0.5394 -0.9054 -1.4427
11581TIP3    H256159   0.766   1.635  14.110  1.6103 -0.6649  1.2257
11582TIP3   OH256160   0.284   6.542   2.045  0.7469  0.7550 -0.2856
11582TIP3    H156161   0.243   6.497   1.970  1.2540 -0.3593  0.0821
11582TIP3    H256162   0.261   6.634   2.032 -1.0114  0.3185 -0.6385
11583TIP3   OH256163   2.171   3.646  11.679 -0.8362 -0.2389  0.0526
11583TIP3    H156164   2.178   3.601  11.763 -1.4266 -0.3386  0.0521
11583TIP3    H256165   2.237   3.716  11.684 -0.8091 -0.2972  0.5663
11584TIP3   OH256166   0.397   4.678  10.840 -0.3825  0.4920  0.2628
11584TIP3    H156167   0.377   4.637  10.756 -1.0281  0.5223  0.3955
11584TIP3    H256168   0.471   4.736  10.822  0.0367 -0.1508 -0.0933
11585TIP3   OH256169   5.141   6.738   7.025  0.1418 -0.0110 -0.1225
11585TIP3    H156170   5.199   6.683   6.973 -1.4551 -1.4974 -0.4368
11585TIP3    H256171   5.124   6.687   7.104  1.7301  1.7830  1.4688
11586TIP3   OH256172   2.521   0.393  15.951 -0.3151  0.2715  0.2923
11586TIP3    H156173   2.435   0.397  15.993 -0.9494 -0.6629 -0.8848
11586TIP3    H256174   2.510   0.439  15.868 -0.1171 -1.1296 -0.5491
11587TIP3   OH256175   0.335   2.165  10.800 -0.5044 -0.2766 -0.5470
11587TIP3    H156176   0.346   2.076  10.835 -0.2203  0.2047  0.6410
11587TIP3    H256177   0.422   2.204  10.805 -1.1569  1.0867  1.9270
11588TIP3   OH256178   0.367   2.920   3.659 -0.3639  0.1280  0.5831
11588TIP3    H156179   0.280   2.894   3.688 -0.1874 -0.7690  0.3505
11588TIP3    H256180   0.403   2.841   3.619  0.1307  0.7961 -0.3221
11589TIP3   OH256181   3.574   1.615  16.585 -0.2246  0.2988  0.3637
11589TIP3    H156182   3.599   1.625  16.493  0.8708  0.7171  0.6961
11589TIP3    H256183   3.480   1.635  16.587 -0.0919  1.0291 -0.5401
11590TIP3   OH256184   2.221   3.062  13.441  0.8665 -0.3611 -0.0310
11590TIP3    H156185   2.284   3.104  13.381  3.6582 -0.3314  2.6565
11590TIP3    H256186   2.197   3.132  13.502  1.3999 -1.3022  1.3138
11591TIP3   OH256187   6.336   1.710  13.067  0.0190 -0.3816  0.0215
11591TIP3    H156188   6.334   1.617  13.091 -0.4035 -0.1116  1.1151
11591TIP3    H256189   6.401   1.748  13.125 -1.8114  0.4906  1.6391
11592TIP3   OH256190   4.241   0.766   0.337 -0.5703 -0.3639  0.3858
11592TIP3    H156191   4.214   0.856   0.319 -0.3519 -0.4991 -0.6880
11592TIP3    H256192   4.317   0.775   0.394 -0.1766  0.1644 -0.2106
11593TIP3   OH256193   2.496   4.463   2.132 -0.4364  0.0897  0.2006
11593TIP3    H156194   2.543   4.394   2.085  0.5241 -1.1223  2.7143
11593TIP3    H256195   2.404   4.438   2.124 -0.0868 -1.8755  1.4322
11594TIP3   OH256196   5.315   6.189  14.555  0.3418  0.0978  0.7659
11594TIP3    H156197   5.243   6.127  14.566  0.1580 -0.0257 -0.9328
11594TIP3    H256198   5.394   6.138  14.577 -0.0659  0.5363  3.7595
11595TIP3   OH256199   6.257   3.245  15.926  0.1615 -0.0523 -0.3721
11595TIP3    H156200   6.246   3.165  15.875  0.3956  0.2759 -0.9397
11595TIP3    H256201   6.219   3.224  16.011  2.0472 -1.4614  0.1934
11596TIP3   OH256202   5.294   0.809   4.542 -0.0961 -0.4198  0.1738
11596TIP3    H156203   5.246   0.888   4.518  0.0309 -0.1695  0.7323
11596TIP3    H256204   5.383   0.839   4.559  0.3488 -0.9106 -1.0824
11597TIP3   OH256205   4.288   3.514   3.907  0.5719  0.4661  0.0735
11597TIP3    H156206   4.198   3.509   3.876  0.8613 -0.8847 -0.6195
11597TIP3    H256207   4.298   3.604   3.938 -0.7759  0.8488 -0.5510
11598TIP3   OH256208   1.684   6.229   3.080  0.1602  0.4234 -0.2975
11598TIP3    H156209   1.734   6.162   3.126  1.0784  1.1359 -0.2399
11598TIP3    H256210   1.622   6.179   3.025 -3.0335 -0.5410  3.6826
11599TIP3   OH256211   4.792   4.794   6.477  0.0995 -0.2139 -0.3999
11599TIP3    H156212   4.758   4.860   6.537  0.2325  0.8908 -1.5078
11599TIP3    H256213   4.880   4.774   6.511  0.9565  1.8287 -1.2599
11600TIP3   OH256214   0.569   2.394  12.683  0.9197 -0.5638 -0.7007
11600TIP3    H156215   0.637   2.336  12.717  0.3983 -1.4996 -1.2389
11600TIP3    H256216   0.570   2.379  12.588  2.0907  1.7162 -1.1488
11601TIP3   OH256217   1.032   0.918   1.761 -0.5369 -0.5085  0.4380
11601TIP3    H156218   0.993   0.843   1.717 -1.8602  0.8479 -0.8168
11601TIP3    H256219   0.997   0.914   1.850 -1.7075 -0.6409 -0.0016
11602TIP3   OH256220   4.216   3.722  16.449  0.2910 -0.1366  0.4647
11602TIP3    H156221   4.160   3.778  16.396 -0.2081 -0.7649  0.3156
11602TIP3    H256222   4.298   3.717  16.401  0.9339  1.7788  1.2895
11603TIP3   OH256223   1.317   6.743   5.493 -0.1946 -0.0378  0.7464
11603TIP3    H156224   1.398   6.720   5.539  0.6721  0.7898 -0.3065
11603TIP3    H256225   1.303   6.836   5.513 -0.8110 -0.1363  0.8031
11604TIP3   OH256226   4.676   2.700  16.838 -0.0772 -0.6296 -0.6896
11604TIP3    H156227   4.623   2.659  16.769  2.2693 -2.2014 -1.6676
11604TIP3    H256228   4.683   2.633  16.906  1.9655 -1.1106 -1.3197
11605TIP3   OH256229   6.652   1.825   3.320  0.4703 -0.2209  0.1131
11605TIP3    H156230   6.571   1.849   3.274 -0.5219 -0.2933  1.7376
11605TIP3    H256231   6.673   1.737   3.287 -1.4533 -1.2068  1.3161
11606TIP3   OH256232   1.222   5.281  13.071 -0.6105 -0.3163 -0.6299
11606TIP3    H156233   1.206   5.371  13.099 -1.1782 -0.5749 -0.0873
11606TIP3    H256234   1.135   5.247  13.050 -0.3973 -0.7323 -0.8327
11607TIP3   OH256235   3.957   2.777  12.775 -0.1550 -0.4767 -0.0611
11607TIP3    H156236   4.037   2.748  12.820  0.7250  2.3327  0.3873
11607TIP3    H256237   3.987   2.848  12.717 -2.4939  1.7777  1.3067
11608TIP3   OH256238   2.778   4.235  16.551  0.7803 -0.0887  0.3018
11608TIP3    H156239   2.769   4.330  16.552  2.0862  0.0477  1.5606
11608TIP3    H256240   2.734   4.205  16.631  0.5062 -0.5436 -0.0102
11609TIP3   OH256241   4.524   3.185  13.457 -0.1072 -0.2074 -0.3080
11609TIP3    H156242   4.592   3.163  13.393  0.3382  1.9214 -0.6433
11609TIP3    H256243   4.505   3.277  13.441 -0.2103  0.3247  2.4326
11610TIP3   OH256244   5.780   2.707   4.944  0.1628 -0.1316 -0.0866
11610TIP3    H156245   5.749   2.707   4.853 -0.0174  0.0338 -0.0263
11610TIP3    H256246   5.701   2.694   4.996  0.2899 -0.4044  0.0404
11611TIP3   OH256247   3.893   3.060  17.056  0.1131  0.0399  0.0155
11611TIP3    H156248   3.851   3.080  16.972 -0.8703 -0.2149  0.4334
11611TIP3    H256249   3.882   3.140  17.108 -2.2707 -0.8863  1.0685
11612TIP3   OH256250   3.985   0.922   2.828  0.1457  0.2678 -0.4327
11612TIP3    H156251   4.058   0.906   2.769  1.4001  0.3806  1.0115
11612TIP3    H256252   3.914   0.952   2.772  0.9636 -0.5720 -1.9712
11613TIP3   OH256253   0.939   2.316   5.303 -0.5642 -0.0183  0.3503
11613TIP3    H156254   0.985   2.378   5.360 -1.4882  0.5357  0.5224
11613TIP3    H256255   1.008   2.270   5.256  0.1863  0.1780  1.2340
11614TIP3   OH256256   4.988   5.023  15.065  0.4127 -0.3826  0.8299
11614TIP3    H156257   4.987   4.987  15.154 -1.6594  1.0031  1.4376
11614TIP3    H256258   4.956   5.113  15.076 -0.5536 -0.4066 -1.4023
11615TIP3   OH256259   1.192   3.513   1.185  0.2119  0.4546 -0.8275
11615TIP3    H156260   1.163   3.464   1.263  1.4730 -0.4975 -0.9127
11615TIP3    H256261   1.197   3.604   1.214 -0.0825  0.2253 -0.0256
11616TIP3   OH256262   5.293   0.138  12.906  0.1576 -0.0547 -0.2835
11616TIP3    H156263   5.278   0.233  12.915  2.8061  0.4907 -0.8393
11616TIP3    H256264   5.228   0.111  12.840  0.2634  1.6713 -1.1815
11617TIP3   OH256265   1.137   3.279   3.298  0.7011 -0.0994  0.5556
11617TIP3    H156266   1.147   3.310   3.208 -1.6101  0.0897  0.3008
11617TIP3    H256267   1.095   3.193   3.289  1.0686 -0.3881  1.4509
11618TIP3   OH256268   5.881   5.858   4.409  0.4171 -0.9638 -0.0496
11618TIP3    H156269   5.950   5.894   4.353  0.1583  0.4635  0.5139
11618TIP3    H256270   5.923   5.845   4.494 -0.3945  1.6990  0.8523
11619TIP3   OH256271   1.905   4.707   6.034  0.3235 -0.1053  0.4623
11619TIP3    H156272   1.898   4.771   5.963  2.1268 -0.4259 -0.0555
11619TIP3    H256273   1.861   4.629   6.000  1.6108 -0.4292 -0.5739
11620TIP3   OH256274   4.914   1.646  11.990  0.0021  0.0119 -0.6182
11620TIP3    H156275   4.944   1.737  11.996 -1.1257  0.3497  0.4888
11620TIP3    H256276   4.850   1.647  11.919  1.7527 -0.4820 -2.2689
11621TIP3   OH256277   0.904   5.391  13.434 -0.1580  0.1663 -0.1146
11621TIP3    H156278   0.888   5.394  13.528 -0.1766  1.4417 -0.1315
11621TIP3    H256279   0.989   5.347  13.425  0.5502  1.2999  0.6259
11622TIP3   OH256280   1.002   1.803   0.411  0.3759 -0.5224  0.1110
11622TIP3    H156281   0.971   1.887   0.375  2.2343  0.2825  0.2620
11622TIP3    H256282   1.085   1.788   0.367 -0.0565 -2.4647 -0.1074
11623TIP3   OH256283   0.498   5.513  15.923 -0.1404 -0.4265  0.1726
11623TIP3    H156284   0.436   5.584  15.938  0.4017  0.6364 -2.1511
11623TIP3    H256285   0.443   5.437  15.902 -0.7171  0.1543 -0.4894
11624TIP3   OH256286   1.945   2.529  11.016  0.6399  0.3355 -0.0008
11624TIP3    H156287   1.862   2.575  11.004  0.2612 -0.1044  0.8080
11624TIP3    H256288   1.977   2.514  10.927  1.1529  2.7841 -0.2942
11625TIP3   OH256289   5.897   6.226  13.606  0.1901 -0.0546 -0.5737
11625TIP3    H156290   5.808   6.196  13.623  0.1617 -0.6410 -1.6687
11625TIP3    H256291   5.925   6.177  13.529  1.9522 -0.8340  0.5059
11626TIP3   OH256292   0.076   3.281   0.664 -0.3554  0.1119 -0.4265
11626TIP3    H156293   0.146   3.343   0.679  0.2609 -0.3099 -1.4466
11626TIP3    H256294   0.094   3.244   0.577 -1.8037 -0.0417 -0.7027
11627TIP3   OH256295   3.973   0.918  13.754  0.5508 -0.8073  0.5631
11627TIP3    H156296   3.900   0.863  13.726  0.0464  0.0761  0.0847
11627TIP3    H256297   4.043   0.901  13.690  0.5511 -1.2062  0.6707
11628TIP3   OH256298   6.285   1.683  11.349 -0.4579 -0.1879 -0.1612
11628TIP3    H156299   6.227   1.678  11.425 -0.9245  1.7759 -0.3480
11628TIP3    H256300   6.302   1.776  11.338  2.7107 -0.6678 -0.1531
11629TIP3   OH256301   2.267   0.542   1.065  0.6094 -0.1550  0.2451
11629TIP3    H156302   2.257   0.525   1.158 -2.2379 -1.0924 -0.1365
11629TIP3    H256303   2.353   0.585   1.057  1.2834 -0.7731  3.1442
11630TIP3   OH256304   4.242   1.740  14.521  0.2200  0.0057  0.1121
11630TIP3    H156305   4.325   1.732  14.475  3.2129  0.1760  4.7810
11630TIP3    H256306   4.219   1.650  14.545  1.0333  0.1805  1.6941
11631TIP3   OH256307   4.080   2.657  15.767 -0.2602  0.0349 -0.5605
11631TIP3    H156308   4.174   2.653  15.747 -0.4725  2.6444 -2.6526
11631TIP3    H256309   4.041   2.595  15.705  0.0129 -0.7791  0.0608
11632TIP3   OH256310   5.266   4.371   1.792 -0.7264  0.0163  0.1484
11632TIP3    H156311   5.220   4.340   1.871 -1.2646  0.7214  0.1243
11632TIP3    H256312   5.216   4.333   1.720 -0.9866  0.3852  0.1310
11633TIP3   OH256313   0.092   0.455  16.572  0.3522 -0.1111  1.0715
11633TIP3    H156314   0.056   0.438  16.658 -1.2266  1.3251  0.7491
11633TIP3    H256315   0.041   0.528  16.538  1.6438  0.0762 -0.6551
11634TIP3   OH256316   6.467   6.017  15.013 -0.0104 -0.2307  0.4650
11634TIP3    H156317   6.483   6.102  14.972 -0.2562 -1.0116 -1.3238
11634TIP3    H256318   6.445   5.959  14.940 -1.2989 -1.4962  1.8021
11635TIP3   OH256319   0.090   6.194   3.849 -0.1387  0.0161 -0.4336
11635TIP3    H156320   0.181   6.221   3.861 -0.4189  0.8903 -0.1970
11635TIP3    H256321   0.078   6.191   3.754  1.1718 -3.7888 -0.6500
11636TIP3   OH256322   6.114   4.406   3.777  0.1389 -0.3698  0.7953
11636TIP3    H156323   6.025   4.412   3.743  0.9552  0.2761 -1.4125
11636TIP3    H256324   6.127   4.487   3.827  0.1430  0.5643 -0.6667
11637TIP3   OH256325   2.453   6.260  13.953  0.4815  0.2641 -0.4193
11637TIP3    H156326   2.520   6.197  13.929  2.7116  2.5822 -0.7241
11637TIP3    H256327   2.411   6.223  14.030  0.1752 -2.5410 -1.8192
11638TIP3   OH256328   2.853   1.710  11.287 -0.2546  0.6266  0.5840
11638TIP3    H156329   2.763   1.704  11.254  0.1701  0.0158 -0.5309
11638TIP3    H256330   2.849   1.775  11.357 -1.6287  0.3606  0.7836
11639TIP3   OH256331   3.909   2.830   4.093  0.4155  0.2510  0.2671
11639TIP3    H156332   3.947   2.793   4.173  0.8556  0.3975  0.1317
11639TIP3    H256333   3.849   2.763   4.061 -0.2691  0.4494  1.0719
11640TIP3   OH256334   4.375   4.294   0.331 -0.2306 -0.5766  0.6791
11640TIP3    H156335   4.456   4.335   0.302 -1.0793  1.1733  0.6441
11640TIP3    H256336   4.400   4.205   0.357  1.0692 -1.3193 -2.6588
11641TIP3   OH256337   6.614   3.492  14.178  0.1581 -0.1811 -0.7662
11641TIP3    H156338   6.683   3.428  14.191 -0.5429 -0.5856  1.5859
11641TIP3    H256339   6.547   3.469  14.243 -0.9247  1.8543 -1.0493
11642TIP3   OH256340   3.846   0.363   4.825 -0.5481  0.2256  0.0086
11642TIP3    H156341   3.934   0.351   4.787 -0.7106  1.8243 -0.9347
11642TIP3    H256342   3.857   0.340   4.917  0.8716  0.4160 -0.0832
11643TIP3   OH256343   3.445   6.112  12.281 -0.1210  0.4058  0.1682
11643TIP3    H156344   3.529   6.109  12.326  0.4845  0.6362 -0.9149
11643TIP3    H256345   3.466   6.097  12.189 -1.0896  1.8612 -0.3260
11644TIP3   OH256346   2.908   2.303   4.420 -0.4547  0.3867 -0.1245
11644TIP3    H156347   2.995   2.264   4.420 -1.0972 -1.1776 -1.6161
11644TIP3    H256348   2.900   2.346   4.505  1.6096  0.2348  0.1862
11645TIP3   OH256349   3.077   0.603   0.450  0.1975  0.5533  0.3199
11645TIP3    H156350   3.022   0.529   0.476 -1.3277  2.1013  1.7392
11645TIP3    H256351   3.045   0.677   0.502  0.0396  2.8324 -2.7423
11646TIP3   OH256352   0.536   5.065   4.708 -0.2753 -0.3747 -0.4091
11646TIP3    H156353   0.546   4.987   4.762 -0.1637  1.3388  2.1954
11646TIP3    H256354   0.622   5.077   4.667  0.2879 -0.5808  0.6866
11647TIP3   OH256355   4.585   5.291   5.056 -0.0428  0.3335 -0.1202
11647TIP3    H156356   4.632   5.360   5.009 -1.4896  1.1388 -0.4729
11647TIP3    H256357   4.556   5.333   5.137 -0.0837 -0.1749  0.1345
11648TIP3   OH256358   3.562   5.497   5.807 -0.0478 -0.5199 -0.2539
11648TIP3    H156359   3.613   5.561   5.857 -1.3971  1.1734 -0.9258
11648TIP3    H256360   3.624   5.428   5.786  1.4502  0.4892  0.6474
11649TIP3   OH256361   0.191   1.888  15.509  0.3532  0.5355  0.8795
11649TIP3    H156362   0.278   1.923  15.493  1.1896 -1.1595  1.4572
11649TIP3    H256363   0.161   1.858  15.422  0.9275 -0.1006  0.8922
11650TIP3   OH256364   6.046   4.802  12.493  0.3167  0.2529 -0.4039
11650TIP3    H156365   6.004   4.887  12.478 -1.6310 -0.5056  0.4697
11650TIP3    H256366   5.996   4.763  12.565  2.0385 -1.0786  0.1312
11651TIP3   OH256367   0.688   5.169  13.662  0.1927 -0.3843 -0.7680
11651TIP3    H156368   0.645   5.153  13.579 -0.6746  0.4176 -0.4869
11651TIP3    H256369   0.653   5.102  13.721  0.1397 -0.4009 -0.8187
11652TIP3   OH256370   5.870   2.810  16.010 -0.1199 -0.4368 -0.2220
11652TIP3    H156371   5.844   2.884  15.956 -0.4992  0.3491  0.9979
11652TIP3    H256372   5.955   2.835  16.046  0.2438 -1.0567 -0.6267
11653TIP3   OH256373   4.478   5.021   6.442  0.0035 -0.2867  0.5720
11653TIP3    H156374   4.417   5.042   6.513 -0.3868  0.3424  0.0580
11653TIP3    H256375   4.563   5.012   6.486  0.1089  1.8795  0.9201
11654TIP3   OH256376   6.576   5.953   1.110  0.2833 -0.4627 -0.3691
11654TIP3    H156377   6.531   5.868   1.109  0.3014 -0.4764 -1.4755
11654TIP3    H256378   6.570   5.982   1.201 -1.4634 -0.7404 -0.3620
11655TIP3   OH256379   1.265   3.982   2.219 -0.2472  0.7230 -0.5343
11655TIP3    H156380   1.292   4.071   2.199  1.9228 -0.3507 -3.1832
11655TIP3    H256381   1.185   3.969   2.169 -0.5750  1.1748 -0.1307
11656TIP3   OH256382   3.630   6.153  13.024  0.2574  0.1718 -0.3869
11656TIP3    H156383   3.666   6.239  13.002  1.1071 -0.2638 -0.7424
11656TIP3    H256384   3.669   6.132  13.109 -0.1432  0.2467 -0.1850
11657TIP3   OH256385   4.463   3.657  15.518  0.3489  0.0276 -0.0253
11657TIP3    H156386   4.418   3.707  15.450 -1.1660  0.7106  1.3937
11657TIP3    H256387   4.534   3.713  15.547  1.4987 -0.5874 -1.5181
11658TIP3   OH256388   4.982   1.365  16.573 -0.3041 -0.9771  0.1513
11658TIP3    H156389   4.996   1.442  16.518 -0.6722 -0.7841  0.3224
11658TIP3    H256390   4.904   1.386  16.624  0.0492 -1.1324  0.7731
11659TIP3   OH256391   1.052   2.596  15.924  0.4416  0.2411 -0.5885
11659TIP3    H156392   0.982   2.661  15.931  0.2169 -0.0348 -0.2062
11659TIP3    H256393   1.127   2.637  15.967  0.5094  0.5291 -0.9772
11660TIP3   OH256394   3.088   1.092   2.391  0.0648 -0.0329 -0.5981
11660TIP3    H156395   3.018   1.047   2.344 -1.5057  0.2452  1.3314
11660TIP3    H256396   3.045   1.168   2.431  1.9710  1.4310 -1.1597
11661TIP3   OH256397   6.150   4.109  13.514 -0.1469  0.1467  0.1854
11661TIP3    H156398   6.225   4.070  13.559  0.2309 -0.0499 -0.5931
11661TIP3    H256399   6.125   4.044  13.449 -1.4295 -0.0827  0.8745
11662TIP3   OH256400   4.364   0.395   3.811  0.5463 -0.0874 -0.3179
11662TIP3    H156401   4.311   0.379   3.733 -0.0515 -1.0261  0.2680
11662TIP3    H256402   4.307   0.373   3.885  1.8726 -1.6013  0.3329
11663TIP3   OH256403   5.361   3.026  13.875  0.4591 -0.4340 -0.5383
11663TIP3    H156404   5.287   2.973  13.903  0.0326 -0.0671 -0.9625
11663TIP3    H256405   5.335   3.116  13.893  1.2960 -0.3682  0.4448
11664TIP3   OH256406   2.954   0.163   3.726 -0.4581  0.0644 -0.5192
11664TIP3    H156407   2.952   0.148   3.820 -0.3387  3.9314  0.2605
11664TIP3    H256408   2.868   0.134   3.695  0.0244 -2.6301  0.4028
11665TIP3   OH256409   2.966   4.520   5.505  0.0007 -0.1520  0.1223
11665TIP3    H156410   3.045   4.513   5.559  1.1505 -0.6684 -1.5513
11665TIP3    H256411   2.940   4.429   5.490 -1.0584  0.0233  0.8335
11666TIP3   OH256412   0.162   5.171   4.112  0.2807  0.2560 -0.4095
11666TIP3    H156413   0.239   5.206   4.158  1.4225 -1.0605 -1.2431
11666TIP3    H256414   0.195   5.149   4.024 -1.2032  0.2219 -0.9800
11667TIP3   OH256415   6.432   6.729   4.570  0.0454  0.5001  0.0687
11667TIP3    H156416   6.430   6.674   4.648 -0.8593  1.4883  0.7773
11667TIP3    H256417   6.379   6.682   4.506 -0.4200  0.3694  0.5450
11668TIP3   OH256418   1.348   3.545  15.967 -0.1906  0.1127  0.2495
11668TIP3    H156419   1.400   3.585  15.897 -0.5153 -0.0262 -0.0756
11668TIP3    H256420   1.287   3.487  15.921 -1.1075  0.8020  0.5792
11669TIP3   OH256421   6.034   2.664  12.073 -0.4423  0.1464 -0.3885
11669TIP3    H156422   6.044   2.715  11.992 -0.2340  0.6516 -0.0474
11669TIP3    H256423   6.052   2.573  12.046  0.8854  0.4665 -0.6657
11670TIP3   OH256424   2.236   3.314  14.377  0.7069  0.3425 -0.1339
11670TIP3    H156425   2.331   3.312  14.391  0.4925 -1.9863  1.5261
11670TIP3    H256426   2.199   3.324  14.465 -0.6383  2.2859 -0.8419
11671TIP3   OH256427   1.493   2.038   1.016  0.1495 -0.1997 -0.2369
11671TIP3    H156428   1.399   2.022   1.020 -0.1224  0.9200 -1.3039
11671TIP3    H256429   1.520   1.997   0.933  0.0314  1.8637 -1.3683
11672TIP3   OH256430   4.390   3.616  10.866 -0.4411 -1.1207  0.0012
11672TIP3    H156431   4.360   3.534  10.826 -1.2529 -1.1172  0.5883
11672TIP3    H256432   4.486   3.607  10.869 -0.3168 -1.0311 -2.1071
11673TIP3   OH256433   2.918   1.370  15.806  0.1744 -0.3140  0.2407
11673TIP3    H156434   2.824   1.356  15.816 -0.1364  0.2560 -1.4672
11673TIP3    H256435   2.934   1.357  15.712  1.4163  1.6946  0.1163
11674TIP3   OH256436   5.972   3.372  13.989 -0.2224 -0.6477  0.6180
11674TIP3    H156437   5.989   3.431  14.063 -1.4634 -0.9723  1.1940
11674TIP3    H256438   5.954   3.431  13.916  1.8209 -0.3092  0.3194
11675TIP3   OH256439   4.003   2.537   0.290  0.2986 -0.4941  0.1191
11675TIP3    H156440   4.078   2.479   0.302  2.0150  1.9136  2.1968
11675TIP3    H256441   3.961   2.540   0.376 -0.6624  0.1381 -0.3578
11676TIP3   OH256442   3.575   2.192  12.982 -0.3472  0.4134  0.0316
11676TIP3    H156443   3.495   2.174  13.031 -0.6290 -0.0704 -0.5931
11676TIP3    H256444   3.621   2.108  12.979  0.3822  0.7716  0.7163
11677TIP3   OH256445   5.643   6.579   3.511  0.8064  0.4122 -0.1293
11677TIP3    H156446   5.653   6.660   3.461  1.1016 -0.3458 -1.3446
11677TIP3    H256447   5.702   6.517   3.469 -0.6595 -0.9372 -0.3248
11678TIP3   OH256448   2.503   4.299  15.739 -0.1367 -0.1731  0.1445
11678TIP3    H156449   2.425   4.314  15.792  0.4875 -1.5570  1.5468
11678TIP3    H256450   2.563   4.252  15.798  1.0715 -0.6875 -1.4299
11679TIP3   OH256451   5.861   1.881  16.005  0.6728 -0.2877  0.1155
11679TIP3    H156452   5.919   1.824  16.056  1.1756 -0.0413 -0.1751
11679TIP3    H256453   5.848   1.958  16.060  0.7303 -0.2820  0.1216
11680TIP3   OH256454   5.525   0.744   2.086 -0.0912 -0.7122 -0.1933
11680TIP3    H156455   5.533   0.759   2.181  0.1767  1.1774 -0.4806
11680TIP3    H256456   5.598   0.685   2.066  0.6898 -0.0511  0.5799
11681TIP3   OH256457   6.543   1.103  12.706 -0.0770  0.3609 -0.5517
11681TIP3    H156458   6.561   1.040  12.637  0.4497  1.8380 -1.8207
11681TIP3    H256459   6.563   1.188  12.667 -0.4413  1.3038  1.1996
11682TIP3   OH256460   1.472   3.269  13.957 -0.2115 -0.0374 -0.0166
11682TIP3    H156461   1.410   3.314  14.014 -0.7154  1.5158 -1.7004
11682TIP3    H256462   1.552   3.263  14.008 -0.6732  1.2086  0.8970
11683TIP3   OH256463   1.755   4.414   2.469  0.0285  0.3210 -0.0740
11683TIP3    H156464   1.738   4.486   2.408  1.5614  0.2982 -0.5760
11683TIP3    H256465   1.729   4.448   2.554 -0.7499  0.8901 -0.5210
11684TIP3   OH256466   0.076   6.357   1.012 -0.2913 -0.5224  0.1170
11684TIP3    H156467   0.090   6.451   1.022 -2.8039 -0.1347  0.6375
11684TIP3    H256468   0.144   6.317   1.066  0.9248  0.9533 -0.2319
11685TIP3   OH256469   1.318   5.820  11.468 -0.4761 -0.5304  0.3488
11685TIP3    H156470   1.393   5.772  11.431 -1.0454  0.9778 -3.1961
11685TIP3    H256471   1.317   5.902  11.419 -2.1788  1.2178  3.0849
11686TIP3   OH256472   4.403   1.213  11.221 -0.0494 -0.2414  0.2057
11686TIP3    H156473   4.349   1.134  11.216  0.2221 -0.3976 -0.3202
11686TIP3    H256474   4.368   1.260  11.297  0.7433 -1.5577  1.4421
11687TIP3   OH256475   6.228   6.317   3.765  0.1492  0.0026 -0.0819
11687TIP3    H156476   6.315   6.329   3.804 -0.8413  0.9240  1.9897
11687TIP3    H256477   6.204   6.404   3.732 -0.2511 -0.0795 -0.0186
11688TIP3   OH256478   3.059   0.657  12.622 -0.1390  0.2928 -0.3141
11688TIP3    H156479   3.114   0.693  12.692 -0.3007 -0.3198  0.1402
11688TIP3    H256480   3.029   0.734  12.573 -2.8590  1.1413  2.3522
11689TIP3   OH256481   1.598   2.103   1.416  0.1502 -0.0630  0.2226
11689TIP3    H156482   1.654   2.140   1.484 -0.3323 -1.9626  1.7444
11689TIP3    H256483   1.514   2.147   1.426  0.6906  1.2357 -0.6458
11690TIP3   OH256484   3.665   0.721  16.366  0.1042  0.1778  0.0361
11690TIP3    H156485   3.609   0.667  16.310  0.0319  0.8071 -0.5081
11690TIP3    H256486   3.752   0.685  16.355  0.0176  0.0218 -0.1393
11691TIP3   OH256487   0.396   4.196   4.768 -0.1366  0.0610  0.3102
11691TIP3    H156488   0.489   4.177   4.758 -0.2909  0.3952 -2.7938
11691TIP3    H256489   0.394   4.285   4.803  0.8560  1.0469 -1.8975
11692TIP3   OH256490   5.950   0.008  15.483 -0.1113  0.6242 -0.7311
11692TIP3    H156491   6.033   0.022  15.528  0.4041  0.2296 -1.5385
11692TIP3    H256492   5.927   0.093  15.446 -0.0111  0.7039 -0.6092
11693TIP3   OH256493   4.040   2.526  12.250  0.2801  0.1202  0.6426
11693TIP3    H156494   4.024   2.457  12.185 -0.9197  0.9609 -0.0007
11693TIP3    H256495   4.086   2.595  12.202 -0.0692  0.4894  0.8283
11694TIP3   OH256496   5.719   1.032  16.985 -0.2843  0.7280 -0.3776
11694TIP3    H156497   5.670   0.951  16.973  0.2588  0.4804 -1.0125
11694TIP3    H256498   5.762   1.022  17.070 -0.1230  0.2937 -0.5085
11695TIP3   OH256499   0.288   1.752   3.797 -0.1506 -0.2347 -0.3245
11695TIP3    H156500   0.293   1.658   3.811  1.8083 -0.1576 -0.1360
11695TIP3    H256501   0.237   1.785   3.871 -3.8530 -1.3913 -2.1286
11696TIP3   OH256502   5.167   2.256  12.978 -0.4776  0.3963 -0.3490
11696TIP3    H156503   5.078   2.242  13.008 -0.8911 -1.1548 -2.0866
11696TIP3    H256504   5.184   2.184  12.917  2.6771 -0.5060  1.3512
11697TIP3   OH256505   4.193   3.761  13.243 -0.0323  0.2330  0.1095
11697TIP3    H156506   4.129   3.830  13.223  0.6649  0.8190 -0.1598
11697TIP3    H256507   4.275   3.794  13.206 -0.1266 -1.7777 -2.1493
11698TIP3   OH256508   4.972   1.758  14.259  0.3156 -0.5517  0.3802
11698TIP3    H156509   5.028   1.786  14.331  1.4156 -0.8375 -0.3516
11698TIP3    H256510   4.956   1.665  14.276 -1.3669 -0.1122  1.5003
11699TIP3   OH256511   1.493   4.565   3.490  0.1362  0.2585  0.4681
11699TIP3    H156512   1.557   4.493   3.496  0.7091  0.7451  0.2806
11699TIP3    H256513   1.445   4.547   3.409  0.7837  0.4871  0.0228
11700TIP3   OH256514   4.022   5.041   1.659  0.2827  0.6258  0.2883
11700TIP3    H156515   4.090   5.044   1.726  1.3429 -0.1275 -0.7099
11700TIP3    H256516   3.976   4.959   1.675  1.7192 -0.4816 -0.9647
11701TIP3   OH256517   6.202   1.823  13.707  0.0302 -0.0165  0.4262
11701TIP3    H156518   6.298   1.823  13.702  0.1315 -0.3906  2.0892
11701TIP3    H256519   6.180   1.747  13.759 -1.0413  1.3115  2.0062
11702TIP3   OH256520   1.558   0.425  14.695  0.5073 -0.2239 -0.5387
11702TIP3    H156521   1.644   0.410  14.736  0.2028 -0.5237 -0.0060
11702TIP3    H256522   1.527   0.337  14.672  0.5185 -0.0829 -1.0932
11703TIP3   OH256523   3.995   2.688   2.657  0.1838 -0.8990  0.7617
11703TIP3    H156524   4.034   2.774   2.639 -0.9345 -0.3295  0.9840
11703TIP3    H256525   3.919   2.707   2.712 -1.1900 -1.8307 -0.7152
11704TIP3   OH256526   2.265   1.150  14.441  0.1073  0.1707 -0.7140
11704TIP3    H156527   2.185   1.189  14.407  0.0756  0.7276 -0.0154
11704TIP3    H256528   2.305   1.219  14.493  1.6513  0.2963 -1.9966
11705TIP3   OH256529   2.490   4.503  13.597  0.4395 -0.0580  0.6568
11705TIP3    H156530   2.441   4.559  13.657  0.9587  0.8659  0.2487
11705TIP3    H256531   2.535   4.441  13.654 -1.3895 -1.1180  1.0152
11706TIP3   OH256532   5.707   2.103  16.938  0.5278 -0.0227  0.1132
11706TIP3    H156533   5.705   2.054  17.021 -0.6187 -0.5498 -0.2023
11706TIP3    H256534   5.781   2.162  16.947  0.0016  0.4409  1.8111
11707TIP3   OH256535   5.169   2.796  15.726  0.2921  0.0305  0.1591
11707TIP3    H156536   5.196   2.704  15.725  0.8584  0.1509  1.6259
11707TIP3    H256537   5.226   2.838  15.662  0.4181 -0.5418 -0.1093
11708TIP3   OH256538   5.228   4.791  15.765  0.7010 -0.1720 -0.6158
11708TIP3    H156539   5.271   4.861  15.814  0.1518 -0.7481  0.7545
11708TIP3    H256540   5.166   4.753  15.828 -0.1771 -0.8253 -1.8400
11709TIP3   OH256541   4.622   3.650   1.080  0.4677  0.4583 -1.0665
11709TIP3    H156542   4.595   3.582   1.142  1.7941 -0.1825 -1.1560
11709TIP3    H256543   4.605   3.732   1.126  1.0502  0.0025 -0.0100
11710TIP3   OH256544   3.127   3.146  12.159 -0.0123 -0.1080  0.4559
11710TIP3    H156545   3.184   3.095  12.102 -0.0183  0.9365 -0.5228
11710TIP3    H256546   3.050   3.165  12.105 -0.5678 -0.1233  1.2222
11711TIP3   OH256547   3.982   0.374   0.044 -0.6825  0.4912 -0.1002
11711TIP3    H156548   3.999   0.461   0.081 -1.6125  1.3646 -1.6209
11711TIP3    H256549   4.054   0.360  -0.018 -0.8254  0.4344 -0.2563
11712TIP3   OH256550   2.102   4.929   5.807 -0.4250  0.3869 -0.3891
11712TIP3    H156551   2.105   5.002   5.745  0.9033  1.4071  0.7767
11712TIP3    H256552   2.016   4.937   5.849 -0.4786  1.0081 -0.5981
11713TIP3   OH256553   0.284   4.913   1.282 -0.1580  0.3366 -0.1785
11713TIP3    H156554   0.289   4.996   1.329 -0.6920  0.3983 -0.2247
11713TIP3    H256555   0.201   4.916   1.236 -0.4071 -0.4252  0.1987
11714TIP3   OH256556   2.931   0.021  12.588  0.2859  0.2394  0.0849
11714TIP3    H156557   2.953   0.082  12.658 -0.9160 -0.8933  1.5228
11714TIP3    H256558   2.921  -0.063  12.632 -2.5661 -0.1335 -1.0519
11715TIP3   OH256559   5.817   3.659   3.599 -0.3747  0.3305 -0.5763
11715TIP3    H156560   5.897   3.710   3.610 -0.7528  0.7776  0.2268
11715TIP3    H256561   5.765   3.710   3.537 -1.3797  1.7817  1.3152
11716TIP3   OH256562   1.429   5.191  16.738  0.3541  0.0051 -0.0080
11716TIP3    H156563   1.483   5.161  16.811  0.4345  0.0139 -0.0638
11716TIP3    H256564   1.468   5.148  16.661 -0.0397 -0.4047  0.0163
11717TIP3   OH256565   4.508   0.683  11.986  0.3826  0.3227  0.1076
11717TIP3    H156566   4.443   0.637  11.934  1.3213 -2.4988  1.2694
11717TIP3    H256567   4.523   0.765  11.938 -2.3777  0.1162 -1.3199
11718TIP3   OH256568   0.602   4.650   2.759 -0.0403  0.0495 -0.4714
11718TIP3    H156569   0.565   4.697   2.685 -0.1735  1.2131  0.3195
11718TIP3    H256570   0.598   4.558   2.733  0.7657  0.4856 -2.2824
11719TIP3   OH256571   2.978   5.482  11.312  0.4075  0.2836  0.3499
11719TIP3    H156572   2.973   5.456  11.404  0.8783  3.6307  1.4483
11719TIP3    H256573   2.888   5.479  11.281  0.3136 -1.4544  0.6777
11720TIP3   OH256574   2.081   0.480   4.757  0.2447  0.7261 -0.1930
11720TIP3    H156575   2.003   0.490   4.702 -1.9413  3.8592  3.0208
11720TIP3    H256576   2.149   0.532   4.713  0.2612 -0.9997 -2.3771
11721TIP3   OH256577   4.613   6.048   2.524 -0.2847 -0.3681  0.1986
11721TIP3    H156578   4.683   6.021   2.583 -0.9026  1.0578  1.6734
11721TIP3    H256579   4.603   6.142   2.540 -1.9359 -0.3613 -0.5963
11722TIP3   OH256580   1.833   0.701  10.999 -0.6567 -0.3012 -0.7576
11722TIP3    H156581   1.876   0.616  11.012 -2.1236 -1.2829 -1.9009
11722TIP3    H256582   1.873   0.735  10.919 -0.0406  0.1321 -0.2777
11723TIP3   OH256583   5.990   3.361   2.531 -0.3439  0.3752 -0.1820
11723TIP3    H156584   5.963   3.270   2.515 -0.7053 -0.0521  2.4008
11723TIP3    H256585   5.915   3.413   2.503  0.3460  0.0560 -2.8988
11724TIP3   OH256586   2.060   5.089  11.994 -0.1085  0.1727  0.1311
11724TIP3    H156587   2.015   5.094  12.078 -0.2263 -0.2658  0.0988
11724TIP3    H256588   2.058   5.178  11.960 -0.5781  0.2408  0.3252
11725TIP3   OH256589   4.099   3.181  12.277  0.1995  0.2877 -0.4001
11725TIP3    H156590   4.134   3.134  12.202 -0.6029  0.2690 -0.7740
11725TIP3    H256591   4.159   3.255  12.289  2.0819 -1.3323  0.8427
11726TIP3   OH256592   4.858   5.528   6.514 -0.0413  0.1460  0.4421
11726TIP3    H156593   4.902   5.472   6.578  2.2616  0.7170 -0.5186
11726TIP3    H256594   4.766   5.527   6.540  0.4573 -1.3885  2.4141
11727TIP3   OH256595   3.059   5.465  16.643 -0.0687  0.2945 -0.1033
11727TIP3    H156596   2.970   5.457  16.608  0.3349 -1.1876 -0.9106
11727TIP3    H256597   3.087   5.553  16.619 -0.7668  0.2317 -1.2231
11728TIP3   OH256598   2.860   2.425   3.627  0.0640  0.0383 -0.0123
11728TIP3    H156599   2.869   2.495   3.692  0.0911 -0.3632  0.4285
11728TIP3    H256600   2.838   2.470   3.546  3.3059  0.8717 -0.5653
11729TIP3   OH256601   1.800   5.141   3.174 -0.1979  0.9658 -0.3464
11729TIP3    H156602   1.790   5.047   3.193 -3.0902  1.0221 -1.1619
11729TIP3    H256603   1.789   5.184   3.259 -2.1824  0.6693 -0.4010
11730TIP3   OH256604   1.825   5.155  11.049 -0.3812 -0.1615  0.5410
11730TIP3    H156605   1.843   5.186  10.960 -0.2123  1.2423  1.0521
11730TIP3    H256606   1.839   5.060  11.044 -0.4348 -0.1177 -0.9393
11731TIP3   OH256607   2.145   5.759  17.368  0.0048 -0.0702 -0.4611
11731TIP3    H156608   2.222   5.706  17.390  0.6189  0.7064 -0.7078
11731TIP3    H256609   2.181   5.842  17.338 -0.9664  0.7239  0.5266
11732TIP3   OH256610   5.835   6.255  13.043 -0.0161  0.1654 -0.1104
11732TIP3    H156611   5.775   6.316  13.000  0.7594  0.7445 -0.3872
11732TIP3    H256612   5.903   6.238  12.978  0.3757 -0.1161  0.3670
11733TIP3   OH256613   0.164   4.584   1.588 -0.0953  0.1454  0.1327
11733TIP3    H156614   0.129   4.650   1.647  1.3038  0.2500  0.8615
11733TIP3    H256615   0.127   4.501   1.621 -0.1128  0.3158  0.5474
11734TIP3   OH256616   0.246   4.141   1.283 -0.0306 -0.3236 -0.5422
11734TIP3    H156617   0.194   4.102   1.354 -1.5572  1.5270 -0.5411
11734TIP3    H256618   0.181   4.170   1.219  1.2247 -0.4745 -1.9301
11735TIP3   OH256619   3.358   0.980   5.813  0.2967 -0.1331 -0.1895
11735TIP3    H156620   3.426   0.935   5.863 -0.5938 -0.9842  0.2837
11735TIP3    H256621   3.276   0.940   5.842 -0.2287 -1.2441 -2.9227
11736TIP3   OH256622   2.620   5.694   5.079  0.2331  0.5729 -0.0567
11736TIP3    H156623   2.627   5.599   5.080 -1.4370  0.4195  1.2771
11736TIP3    H256624   2.532   5.711   5.046 -0.8255  1.4840  2.9398
11737TIP3   OH256625   0.985   1.678   5.131  0.6997 -0.3219  0.4653
11737TIP3    H156626   0.946   1.691   5.044  0.7403  1.0033  0.6207
11737TIP3    H256627   1.060   1.737   5.132  0.7504 -0.3913  1.3707
11738TIP3   OH256628   6.113   2.808   0.403  0.3595  0.0925 -0.1605
11738TIP3    H156629   6.201   2.815   0.364  0.9943  2.1193  1.4058
11738TIP3    H256630   6.056   2.850   0.339  0.7485 -0.0011 -0.5820
11739TIP3   OH256631   0.682   0.909  15.623  0.8087 -0.3588  0.4055
11739TIP3    H156632   0.708   0.909  15.715  1.2692  0.3517  0.2870
11739TIP3    H256633   0.698   0.999  15.594  0.5386 -0.5425 -0.3305
11740TIP3   OH256634   3.523   2.597   0.724  0.9348 -0.2647  0.3018
11740TIP3    H156635   3.458   2.528   0.743 -1.4772  0.6400 -3.5123
11740TIP3    H256636   3.607   2.555   0.741 -0.4951 -3.0594  1.2478
11741TIP3   OH256637   1.042   5.548   6.714  0.3193 -0.3101  0.3347
11741TIP3    H156638   1.114   5.554   6.652  0.3073  1.7704  0.4500
11741TIP3    H256639   0.964   5.532   6.660  0.6167 -0.9323  0.0731
11742TIP3   OH256640   3.929   0.639  14.103 -0.2889 -0.1125 -0.4558
11742TIP3    H156641   3.993   0.686  14.049 -0.4827 -1.2372 -1.7023
11742TIP3    H256642   3.957   0.656  14.193  1.5969 -0.3460 -0.9586
11743TIP3   OH256643   4.578   2.051  11.476  0.2812  0.4206  0.2325
11743TIP3    H156644   4.574   1.962  11.511  0.3806  1.2952  2.6631
11743TIP3    H256645   4.669   2.063  11.448  0.5844  0.1547  1.0877
11744TIP3   OH256646   1.539   1.130  16.687  0.4468  0.0488 -0.2332
11744TIP3    H156647   1.506   1.122  16.598 -2.2401  2.3549  0.4416
11744TIP3    H256648   1.590   1.050  16.701  2.0807  0.2049 -4.2129
11745TIP3   OH256649   3.296   2.617   1.993 -0.2193 -0.8704 -0.0495
11745TIP3    H156650   3.379   2.602   2.040 -0.5054  1.5667  1.4643
11745TIP3    H256651   3.236   2.552   2.029  0.7221 -1.9241 -0.3285
11746TIP3   OH256652   5.263   2.806   4.709  0.0150  0.3158 -0.2198
11746TIP3    H156653   5.285   2.774   4.797 -0.6503  0.0650 -0.1345
11746TIP3    H256654   5.339   2.857   4.682  0.8682 -0.8867 -0.1338
11747TIP3   OH256655   2.846   5.836  11.188  0.2933 -0.1413 -0.8624
11747TIP3    H156656   2.801   5.754  11.212  1.5409 -0.9223 -1.1302
11747TIP3    H256657   2.775   5.899  11.176 -0.6067 -0.5054  1.7722
11748TIP3   OH256658   4.142   2.736  12.458  0.0837 -0.3203  0.1874
11748TIP3    H156659   4.083   2.685  12.403  1.3784 -1.4208 -0.2398
11748TIP3    H256660   4.209   2.674  12.485  1.0661  0.8954  0.6385
11749TIP3   OH256661   4.289   2.109  15.347 -0.5257  0.0704 -0.4336
11749TIP3    H156662   4.248   2.195  15.349 -0.1945  0.2263  0.7101
11749TIP3    H256663   4.223   2.051  15.310 -1.5824  0.4229  0.8332
11750TIP3   OH256664   1.369   3.764  13.081 -0.1155  0.4749 -0.0520
11750TIP3    H156665   1.345   3.726  12.996  1.2622 -1.4945  0.3771
11750TIP3    H256666   1.462   3.785  13.072  0.6328 -1.7650  1.5834
11751TIP3   OH256667   1.944   3.833  11.532  0.2874 -0.7761  0.0384
11751TIP3    H156668   1.885   3.784  11.475 -1.1131 -0.4649  1.1673
11751TIP3    H256669   1.930   3.796  11.619 -1.2068  1.8427  1.0493
11752TIP3   OH256670   4.098   2.182   0.909  0.4549 -0.3624 -0.0704
11752TIP3    H156671   4.178   2.229   0.885 -0.9163  2.1153 -0.0097
11752TIP3    H256672   4.084   2.120   0.837  3.2845 -2.1423  0.7206
11753TIP3   OH256673   4.945   1.272  10.859  0.2271 -0.2020 -0.5609
11753TIP3    H156674   4.871   1.292  10.916 -1.0788  3.0914 -3.0544
11753TIP3    H256675   4.979   1.358  10.834  4.6782 -1.5260  0.0121
11754TIP3   OH256676   3.185   1.707   2.316 -0.5923  0.2136 -0.4253
11754TIP3    H156677   3.094   1.707   2.344 -0.5835  0.1630 -0.3966
11754TIP3    H256678   3.198   1.622   2.274 -0.9756  0.8071 -1.8033
11755TIP3   OH256679   1.658   2.357  16.035 -0.1963  0.2031 -0.2330
11755TIP3    H156680   1.680   2.448  16.056  0.5940 -0.3059  1.3403
11755TIP3    H256681   1.565   2.359  16.011  0.0920  1.5740 -1.3608
11756TIP3   OH256682   3.078   1.387   5.020  0.4341 -0.3347 -0.1180
11756TIP3    H156683   3.028   1.413   4.942  1.9169  0.0551 -0.9839
11756TIP3    H256684   3.137   1.460   5.036  0.6132 -0.7091  0.9787
11757TIP3   OH256685   5.479   2.553  13.926 -0.0812 -0.0933  0.1002
11757TIP3    H156686   5.511   2.629  13.877 -0.2609  1.4256  2.1908
11757TIP3    H256687   5.395   2.533  13.885  1.1964 -1.0399 -2.2981
11758TIP3   OH256688   1.845   2.132   5.106 -0.3534 -0.2001  0.0708
11758TIP3    H156689   1.854   2.203   5.170 -0.0955 -1.3125  1.3073
11758TIP3    H256690   1.930   2.128   5.063  0.0421 -0.5606  0.8686
11759TIP3   OH256691   4.877   3.591  15.198 -0.3699  0.1047  0.4821
11759TIP3    H156692   4.792   3.636  15.196 -0.2076  0.4153  0.4030
11759TIP3    H256693   4.857   3.503  15.230 -0.5942  0.4480  1.2964
11760TIP3   OH256694   5.451   0.703   3.954  0.1843 -0.5277 -0.5705
11760TIP3    H156695   5.384   0.709   4.022  1.4430  1.1397  0.6047
11760TIP3    H256696   5.509   0.634   3.984 -0.0781 -0.8341 -0.7524
11761TIP3   OH256697   4.414   6.002  14.741 -0.4208  0.1062 -0.0572
11761TIP3    H156698   4.434   6.006  14.834  0.3956 -0.1735 -0.2157
11761TIP3    H256699   4.494   6.033  14.697 -0.6653 -0.1116 -0.6746
11762TIP3   OH256700   1.780   1.158  15.500  0.0923 -0.5418  0.3572
11762TIP3    H156701   1.816   1.095  15.562  1.9412 -0.3151 -0.4131
11762TIP3    H256702   1.856   1.205  15.466 -1.1640  1.6421  0.3714
11763TIP3   OH256703   6.295   4.734  15.095 -0.2371 -0.4969  0.5115
11763TIP3    H156704   6.376   4.767  15.134 -0.0021 -0.9117  0.3813
11763TIP3    H256705   6.255   4.682  15.165 -1.4624  1.4062  1.3064
11764TIP3   OH256706   5.158   5.768   4.463  0.6671 -0.5942 -0.0503
11764TIP3    H156707   5.080   5.771   4.519 -0.0183  0.0310 -1.0021
11764TIP3    H256708   5.172   5.675   4.445  0.7035 -0.7771  0.8753
11765TIP3   OH256709   5.690   1.646   2.908  0.8153  0.7013 -0.0541
11765TIP3    H156710   5.703   1.552   2.920 -0.9455  0.3216 -0.6992
11765TIP3    H256711   5.652   1.653   2.821 -0.0468  1.8964  0.3963
11766TIP3   OH256712   2.992   0.630  16.588 -0.2074  0.0181 -0.7243
11766TIP3    H156713   2.961   0.540  16.577  0.0894 -0.0784 -0.7925
11766TIP3    H256714   2.927   0.671  16.646 -0.9934  0.1193 -1.6618
11767TIP3   OH256715   4.670   0.488   5.895  0.4159  0.1568 -0.3432
11767TIP3    H156716   4.622   0.412   5.864  0.4259  0.0176 -0.0162
11767TIP3    H256717   4.643   0.499   5.986 -0.0731  0.9251 -0.5670
11768TIP3   OH256718   2.802   1.002   1.790  0.0901 -0.4152 -0.7254
11768TIP3    H156719   2.727   1.062   1.790  0.2185 -0.2070  1.0195
11768TIP3    H256720   2.785   0.944   1.715 -2.3259 -0.9597  0.1290
11769TIP3   OH256721   5.693   6.718   1.000 -0.4089 -0.3074 -0.2718
11769TIP3    H156722   5.686   6.631   0.961  1.9733 -1.4288  1.5497
11769TIP3    H256723   5.752   6.765   0.941  0.8380 -1.0357  0.3395
11770TIP3   OH256724   5.809   1.790  14.392 -0.2754  0.5164 -0.2587
11770TIP3    H156725   5.883   1.815  14.447  0.8798  0.3939 -1.6923
11770TIP3    H256726   5.763   1.872  14.374 -0.5178  0.5901  0.6354
11771TIP3   OH256727   2.163   2.838   6.452  0.1707  1.0055  0.2883
11771TIP3    H156728   2.076   2.798   6.460  0.3804 -0.3158 -2.6360
11771TIP3    H256729   2.146   2.926   6.419 -0.0827  0.6022 -0.6943
11772TIP3   OH256730   5.750   2.440  10.213 -0.6273  0.2529  0.6692
11772TIP3    H156731   5.732   2.348  10.197  1.2054  0.1378 -1.0480
11772TIP3    H256732   5.711   2.486  10.138  0.3404  0.6336  0.3812
11773TIP3   OH256733   5.058   3.194   5.453  0.6879 -0.0465 -0.3920
11773TIP3    H156734   5.118   3.150   5.392  0.8137 -1.2725  0.5908
11773TIP3    H256735   5.112   3.261   5.495  1.3020 -0.9504  0.2775
11774TIP3   OH256736   4.177   5.489  15.536  0.4290 -0.0374 -0.3263
11774TIP3    H156737   4.226   5.528  15.607 -0.1821  1.5033 -0.7056
11774TIP3    H256738   4.141   5.564  15.488  0.4509 -1.0391 -1.9819
11775TIP3   OH256739   2.551   3.440  14.964  0.1736  0.0105  0.0432
11775TIP3    H156740   2.596   3.489  15.032 -0.6715  1.5589 -0.4794
11775TIP3    H256741   2.498   3.375  15.011  0.5796  0.2200  0.7863
11776TIP3   OH256742   3.952   2.125  12.501 -0.1907 -0.0466  0.0739
11776TIP3    H156743   3.936   2.211  12.461 -0.9163 -1.4318 -2.9298
11776TIP3    H256744   4.040   2.102  12.472 -1.1343 -1.5462 -1.9069
11777TIP3   OH256745   3.318   3.706   2.491 -0.2395  0.0778  0.1564
11777TIP3    H156746   3.256   3.656   2.545  1.2672 -0.3872  1.5380
11777TIP3    H256747   3.362   3.640   2.438 -0.8301  0.4004 -0.7643
11778TIP3   OH256748   1.745   6.344  10.855 -0.3748  0.1250 -0.1272
11778TIP3    H156749   1.724   6.433  10.826 -0.5370 -0.5045 -2.1378
11778TIP3    H256750   1.774   6.300  10.775  1.6362 -1.0921  1.1917
11779TIP3   OH256751   2.706   3.696  14.803 -0.6611 -0.6105 -0.0766
11779TIP3    H156752   2.673   3.625  14.749 -0.9253 -1.3148  0.9660
11779TIP3    H256753   2.791   3.718  14.766 -1.1455 -0.5680 -1.2025
11780TIP3   OH256754   4.076   6.686  16.382 -0.0818  0.1799  0.2275
11780TIP3    H156755   4.117   6.641  16.307 -0.9247 -0.9812  0.4326
11780TIP3    H256756   3.982   6.674  16.368 -0.3153  1.4541  0.5858
11781TIP3   OH256757   3.252   6.275  12.732 -0.0479 -0.6927  0.2026
11781TIP3    H156758   3.167   6.237  12.757 -0.7176  1.3668  1.3095
11781TIP3    H256759   3.271   6.236  12.647 -3.9166  1.3444 -1.8575
11782TIP3   OH256760   4.974   0.676   2.833  0.4669 -0.3741  0.3399
11782TIP3    H156761   5.001   0.720   2.913  1.3213 -1.7483  0.8581
11782TIP3    H256762   4.982   0.582   2.854  1.2594 -0.7675 -1.5154
11783TIP3   OH256763   0.030   2.073   3.267  0.4822  0.1073  0.1399
11783TIP3    H156764   0.059   2.099   3.354  0.7407 -0.6894  0.2958
11783TIP3    H256765  -0.035   2.005   3.282  0.8296 -0.3316 -0.2893
11784TIP3   OH256766   3.653   1.753  13.767 -0.5392 -0.2512 -0.6694
11784TIP3    H156767   3.622   1.756  13.677 -1.6411 -0.0961 -0.3060
11784TIP3    H256768   3.671   1.844  13.790  2.0995 -0.4979 -1.4768
11785TIP3   OH256769   1.687   1.517  12.690 -0.2377  0.3653  0.1308
11785TIP3    H156770   1.728   1.501  12.775  0.5205 -2.2747 -0.6363
11785TIP3    H256771   1.738   1.465  12.628 -2.5262 -0.1575 -1.4766
11786TIP3   OH256772   4.010   1.757  17.319  0.2172  0.3399 -0.0630
11786TIP3    H156773   4.096   1.797  17.333  0.8347 -0.6498 -0.9862
11786TIP3    H256774   3.955   1.830  17.289  0.8319  0.8809  0.0908
11787TIP3   OH256775   0.438   2.008  16.733  0.1292 -0.2535 -0.1293
11787TIP3    H156776   0.387   2.088  16.720  1.8680  0.7648 -1.1711
11787TIP3    H256777   0.393   1.941  16.682 -1.5730 -0.0932  1.0635
11788TIP3   OH256778   1.069   5.979   1.804  0.2984  0.1393  0.8296
11788TIP3    H156779   1.022   5.998   1.723 -0.2440  1.1686  1.3669
11788TIP3    H256780   1.053   5.887   1.821 -0.0593  0.0606  0.0731
11789TIP3   OH256781   5.647   0.420  12.325 -0.8353  0.5443 -0.0965
11789TIP3    H156782   5.712   0.384  12.385 -2.4092  0.4742  1.6490
11789TIP3    H256783   5.605   0.342  12.287 -1.1972  0.5685  0.2499
11790TIP3   OH256784   3.586   5.406   6.123  0.0453  0.2669  0.4072
11790TIP3    H156785   3.560   5.495   6.148  1.5516  0.4496  1.4245
11790TIP3    H256786   3.664   5.388   6.176  1.2466 -0.7073 -1.5806
11791TIP3   OH256787   2.536   4.079  13.946  0.2056 -0.9164  0.4176
11791TIP3    H156788   2.452   4.075  13.992 -0.1702  2.1501  0.2410
11791TIP3    H256789   2.525   4.022  13.870 -2.0046 -0.0469  0.0249
11792TIP3   OH256790   5.794   6.379   1.266  0.6446 -0.1878 -0.5003
11792TIP3    H156791   5.861   6.311   1.278  0.7199 -0.2718 -1.3264
11792TIP3    H256792   5.752   6.386   1.351  1.0281 -0.8592 -0.2441
11793TIP3   OH256793   1.951   5.717   2.435 -0.3108 -0.4853 -0.1738
11793TIP3    H156794   1.868   5.754   2.407  0.0956 -0.2357 -1.0996
11793TIP3    H256795   1.937   5.690   2.526 -1.3619 -0.3554 -0.2934
11794TIP3   OH256796   6.560   2.965   2.027  0.0096 -0.3526 -0.3829
11794TIP3    H156797   6.532   3.049   2.062 -0.4952 -0.5421 -0.3146
11794TIP3    H256798   6.574   2.980   1.934 -1.8657 -0.6033 -0.7458
11795TIP3   OH256799   1.107   1.422  15.330  0.2188 -0.2444 -0.2459
11795TIP3    H156800   1.048   1.364  15.379  1.2608 -0.9203  0.2493
11795TIP3    H256801   1.195   1.398  15.361  0.7392  0.8987 -0.7938
11796TIP3   OH256802   3.409   6.100  15.638  0.1086 -0.0725  0.4845
11796TIP3    H156803   3.383   6.128  15.726 -2.3818  2.2272 -0.8532
11796TIP3    H256804   3.410   6.004  15.643 -1.3338 -0.0370  2.6823
11797TIP3   OH256805   0.352   4.025  15.871 -0.1764 -0.0875 -0.2195
11797TIP3    H156806   0.342   3.968  15.795 -2.4637 -0.8045  0.5206
11797TIP3    H256807   0.379   3.965  15.941 -0.8311  0.0545  0.1584
11798TIP3   OH256808   6.138   3.141   5.188 -0.2226  0.5093 -0.9293
11798TIP3    H156809   6.230   3.147   5.215 -1.0141  1.9964  1.8187
11798TIP3    H256810   6.142   3.113   5.097  2.8939 -1.0274 -0.4600
11799TIP3   OH256811   0.840   0.960   5.391 -0.2762 -0.5953  0.3763
11799TIP3    H156812   0.820   0.877   5.435 -0.4964  0.7103  2.9840
11799TIP3    H256813   0.774   1.021   5.425  0.7111  0.9667 -0.3873
11800TIP3   OH256814   6.687   4.388   2.768 -0.3048 -0.3905 -0.6791
11800TIP3    H156815   6.614   4.431   2.813  0.1569  0.7693 -1.0068
11800TIP3    H256816   6.647   4.339   2.697 -0.9704 -1.5950  0.4875
11801TIP3   OH256817   3.276   0.934  14.166  0.0941 -0.1137  0.3474
11801TIP3    H156818   3.235   1.019  14.177 -0.5884 -0.1790 -1.4472
11801TIP3    H256819   3.345   0.948  14.102  0.7529 -0.6869  0.9068
11802TIP3   OH256820   6.748   0.436   6.393 -0.5208 -0.2697  0.4393
11802TIP3    H156821   6.734   0.483   6.310 -2.9098  0.4666  1.1767
11802TIP3    H256822   6.826   0.476   6.430 -0.2871  0.4382 -0.7529
11803TIP3   OH256823   1.115   6.606   1.061 -0.1587 -1.1650 -0.5488
11803TIP3    H156824   1.182   6.579   0.998  0.0670 -0.3511 -0.6730
11803TIP3    H256825   1.165   6.645   1.133 -0.4800 -0.9270 -0.4542
11804TIP3   OH256826   3.052   3.452   1.204  0.1522  0.5732 -0.2602
11804TIP3    H156827   3.105   3.373   1.216 -1.9135 -1.1874 -1.7158
11804TIP3    H256828   2.975   3.437   1.260  0.0280  1.8788 -0.0597
11805TIP3   OH256829   0.826   2.056  13.220  0.3508 -0.3201 -0.1962
11805TIP3    H156830   0.911   2.084  13.185  1.0113 -1.3762  0.5025
11805TIP3    H256831   0.821   2.098  13.306 -1.4787  2.6593 -1.6209
11806TIP3   OH256832   3.974   3.819  12.881 -0.3417  0.3667  0.2590
11806TIP3    H156833   3.954   3.739  12.833  0.3381  0.3625 -0.0263
11806TIP3    H256834   4.042   3.862  12.829 -0.8655  1.2450  0.2849
11807TIP3   OH256835   3.396   6.739   3.232 -0.0204  0.0241 -0.3621
11807TIP3    H156836   3.328   6.677   3.208  0.3983 -0.7252  0.3561
11807TIP3    H256837   3.474   6.708   3.186 -0.4652  1.7775 -2.4770
11808TIP3   OH256838   5.350   4.697   3.525 -0.4602 -0.2722  0.0642
11808TIP3    H156839   5.390   4.643   3.457 -1.1883 -0.0483 -0.5608
11808TIP3    H256840   5.257   4.674   3.522 -0.6405  0.3896  0.3765
11809TIP3   OH256841   4.247   1.404   3.302 -0.6320 -0.3249  0.6539
11809TIP3    H156842   4.261   1.350   3.224 -0.8707  1.3996 -0.6600
11809TIP3    H256843   4.335   1.426   3.332 -0.5315 -0.2729  0.3293
11810TIP3   OH256844   4.882   4.854   0.392 -0.5132  0.2050  0.2956
11810TIP3    H156845   4.899   4.905   0.313  2.1662 -0.3085  0.4662
11810TIP3    H256846   4.920   4.906   0.463 -2.8516  0.6469  1.3264
11811TIP3   OH256847   0.247   0.018  16.009 -0.0538 -0.2553 -0.1760
11811TIP3    H156848   0.238   0.110  16.034 -0.9883 -0.5796  0.7660
11811TIP3    H256849   0.228  -0.030  16.090  0.6507 -1.2736 -0.5992
11812TIP3   OH256850   1.376   4.841   2.064 -0.4599  0.3004  0.4766
11812TIP3    H156851   1.295   4.836   2.115 -1.3923  0.8815 -0.9110
11812TIP3    H256852   1.348   4.855   1.974  1.1057 -2.0445 -0.4668
11813TIP3   OH256853   6.375   1.167   2.429 -0.3421  0.3236 -0.0323
11813TIP3    H156854   6.290   1.151   2.387 -0.6566  0.5382  0.5022
11813TIP3    H256855   6.439   1.153   2.360 -0.5922 -2.6119  0.2080
11814TIP3   OH256856   5.675   3.177   1.842 -0.0748 -0.2597 -0.0274
11814TIP3    H156857   5.754   3.139   1.806  0.2654  0.5936 -0.2116
11814TIP3    H256858   5.637   3.107   1.895  1.6569 -0.1913  1.4019
11815TIP3   OH256859   2.553   4.391  12.648  0.1968 -0.0626  0.0117
11815TIP3    H156860   2.498   4.312  12.655  1.8898 -1.2784  0.3769
11815TIP3    H256861   2.631   4.361  12.600  1.7878  0.8438  1.8813
11816TIP3   OH256862   1.233   4.206  12.324 -0.1913  0.2951 -0.0336
11816TIP3    H156863   1.291   4.272  12.362  1.1389 -0.2115 -1.0938
11816TIP3    H256864   1.156   4.206  12.381  0.8902  0.9255  1.5100
11817TIP3   OH256865   6.440   5.483  11.615 -0.1625 -0.5142 -0.0119
11817TIP3    H156866   6.469   5.520  11.698 -0.7306 -1.6713  0.7281
11817TIP3    H256867   6.397   5.556  11.570 -1.2835 -0.2475  1.4134
11818TIP3   OH256868   6.427   4.640   3.129  0.5185  0.5669  0.0595
11818TIP3    H156869   6.453   4.554   3.161 -0.0946 -0.0296 -0.9898
11818TIP3    H256870   6.335   4.630   3.105  0.2167  1.7377  0.6672
11819TIP3   OH256871   4.077   2.130  12.851 -0.3160 -0.5769  0.1147
11819TIP3    H156872   4.095   2.181  12.772  0.4434 -0.3842  0.4062
11819TIP3    H256873   3.997   2.082  12.830 -0.3308 -0.2473 -0.6345
11820TIP3   OH256874   0.306   4.599   5.362  0.9771 -0.2421 -0.3648
11820TIP3    H156875   0.320   4.634   5.274  0.6475 -0.4793 -0.5147
11820TIP3    H256876   0.289   4.676   5.416  0.3387 -0.1567 -0.6773
11821TIP3   OH256877   3.202   1.593  15.512  0.2285  0.2850  0.5361
11821TIP3    H156878   3.222   1.540  15.435 -0.6377  2.1374 -1.0462
11821TIP3    H256879   3.193   1.529  15.584  1.6133 -1.4379 -0.7469
11822TIP3   OH256880   6.554   1.597  11.206  0.2876  0.5448  0.0919
11822TIP3    H156881   6.623   1.656  11.174 -0.6474  1.0407 -1.0689
11822TIP3    H256882   6.595   1.511  11.204  1.3641  1.0102  0.8839
11823TIP3   OH256883   6.042   3.954  14.112 -0.4615 -0.1662 -0.0248
11823TIP3    H156884   5.990   3.953  14.193  0.7442 -3.1937  0.8308
11823TIP3    H256885   6.044   3.863  14.084  1.8252  0.3419 -1.7450
11824TIP3   OH256886   4.625   4.217  16.435 -0.6776  0.5528 -0.0341
11824TIP3    H156887   4.586   4.199  16.520  0.5179 -0.5130  0.3304
11824TIP3    H256888   4.567   4.175  16.372  0.3084 -1.9212  0.5710
11825TIP3   OH256889   3.670   2.416  13.168 -0.0826 -0.1321 -0.1865
11825TIP3    H156890   3.617   2.448  13.241  0.5000  2.0635 -0.6624
11825TIP3    H256891   3.606   2.389  13.102 -0.6609 -3.5008  1.5541
11826TIP3   OH256892   4.965   1.583  15.170  0.0526  0.7078 -0.6012
11826TIP3    H156893   5.029   1.640  15.214 -1.0671  1.2683  0.3451
11826TIP3    H256894   4.890   1.640  15.153 -1.4358 -0.6349  1.1199
11827TIP3   OH256895   3.575   1.419   3.169  0.1128 -0.1759  0.5210
11827TIP3    H156896   3.657   1.407   3.121 -1.2386 -0.6674 -1.7875
11827TIP3    H256897   3.541   1.331   3.182  0.6915 -0.1081  2.9744
11828TIP3   OH256898   4.373   3.450   5.098  0.1415 -0.5082  0.0976
11828TIP3    H156899   4.389   3.363   5.062  0.7085 -0.2471 -0.2926
11828TIP3    H256900   4.279   3.464   5.088  0.4198 -0.0152 -2.2608
11829TIP3   OH256901   2.387   4.931   3.050  0.2577  0.2811 -0.1799
11829TIP3    H156902   2.348   5.016   3.066  1.1857  0.4460  1.4752
11829TIP3    H256903   2.384   4.920   2.955 -1.8566  1.1654 -0.2682
11830TIP3   OH256904   6.652   2.738   4.322 -0.2723  0.0384 -0.1462
11830TIP3    H156905   6.637   2.726   4.415  3.7143 -2.6410  0.3795
11830TIP3    H256906   6.611   2.662   4.281  0.6102 -0.4254 -0.1866
11831TIP3   OH256907   0.715   1.361   2.631  0.0108 -0.2062 -0.6250
11831TIP3    H156908   0.763   1.283   2.603  0.2673 -0.2343 -0.1159
11831TIP3    H256909   0.783   1.423   2.658 -0.2362 -0.4315  0.5770
11832TIP3   OH256910   0.002   0.842   5.079  0.3327  0.1623  0.1499
11832TIP3    H156911   0.072   0.778   5.091 -1.4261 -1.8965  0.0117
11832TIP3    H256912   0.029   0.893   5.003  1.0772 -1.5198 -0.7780
11833TIP3   OH256913   4.250   0.270   4.573  0.0189 -0.4499  0.0102
11833TIP3    H156914   4.215   0.202   4.514  0.3953 -1.4968  0.9492
11833TIP3    H256915   4.260   0.225   4.657  2.8737  0.0134  0.0070
11834TIP3   OH256916   3.846   5.068   3.847  0.2806 -0.6085 -0.4354
11834TIP3    H156917   3.936   5.101   3.860 -0.1430  0.4688 -0.1143
11834TIP3    H256918   3.803   5.136   3.795 -0.7779 -0.3569  0.7020
11835TIP3   OH256919   6.452   0.074   0.885 -0.5000 -0.2541 -0.0999
11835TIP3    H156920   6.536   0.033   0.905  0.0344  0.2922 -1.1433
11835TIP3    H256921   6.457   0.160   0.926 -0.9627 -0.5933  0.6886
11836TIP3   OH256922   3.833   5.449   2.603 -0.0167  1.0488  0.5143
11836TIP3    H156923   3.894   5.508   2.647  0.4954  0.2766  0.8747
11836TIP3    H256924   3.877   5.364   2.605 -1.4207  0.3022  1.4576
11837TIP3   OH256925   2.041   3.313  13.178  0.5013  0.2346  0.0470
11837TIP3    H156926   2.044   3.390  13.122  1.8946  0.6683  0.6689
11837TIP3    H256927   1.977   3.255  13.136 -0.7331  1.7830 -0.3254
11838TIP3   OH256928   2.327   2.400  16.598 -0.4084 -0.0078  0.4080
11838TIP3    H156929   2.261   2.469  16.599  0.0697  0.4506  0.8607
11838TIP3    H256930   2.391   2.426  16.665 -0.3179 -0.9821  0.7217
11839TIP3   OH256931   6.328   4.859  12.864  0.2096  0.1568 -0.1951
11839TIP3    H156932   6.317   4.921  12.792  0.2372  1.4610  0.8699
11839TIP3    H256933   6.238   4.837  12.890  0.0821  2.2748  1.4483
11840TIP3   OH256934   4.578   2.449  12.396  0.0467 -0.4633  0.0803
11840TIP3    H156935   4.621   2.493  12.470  1.3834 -1.9685  0.2372
11840TIP3    H256936   4.629   2.370  12.381 -0.1743 -0.2184 -2.4928
11841TIP3   OH256937   3.853   1.305   0.877  0.2564  0.3630  0.5356
11841TIP3    H156938   3.853   1.398   0.855  0.3857  0.9033  2.5797
11841TIP3    H256939   3.899   1.263   0.804  0.3732  1.9157 -0.3361
11842TIP3   OH256940   6.085   1.468   5.861  0.2398  0.4383 -0.3843
11842TIP3    H156941   6.061   1.561   5.867  0.4048  0.4996 -0.6403
11842TIP3    H256942   6.057   1.443   5.773 -0.9810 -0.0950  0.1320
11843TIP3   OH256943   0.292   0.938  14.781 -0.1231  0.2404  0.5346
11843TIP3    H156944   0.379   0.900  14.771 -0.0774  0.4298  0.2010
11843TIP3    H256945   0.263   0.908  14.867  0.4549  0.5477  0.8410
11844TIP3   OH256946   3.617   3.625   0.070 -0.2286 -0.1872  0.0392
11844TIP3    H156947   3.620   3.573  -0.010 -0.2613 -0.2832  0.1000
11844TIP3    H256948   3.554   3.694   0.051  1.0414  0.8207 -0.6303
11845TIP3   OH256949   6.040   2.110  11.146 -0.3063 -0.1573 -0.2540
11845TIP3    H156950   5.970   2.172  11.170 -1.1113 -1.4028  0.7538
11845TIP3    H256951   6.115   2.139  11.198 -1.6042 -1.9101  2.8934
11846TIP3   OH256952   3.567   2.179  12.390 -0.3721  0.2579 -0.3600
11846TIP3    H156953   3.558   2.183  12.485  0.5671 -0.2579 -0.2389
11846TIP3    H256954   3.545   2.268  12.360 -0.1995  0.5543  0.3739
11847TIP3   OH256955   3.103   6.300  11.166 -0.1794  0.0541  0.5359
11847TIP3    H156956   3.037   6.348  11.216  0.2176 -1.4249  2.6218
11847TIP3    H256957   3.187   6.334  11.198  0.1751  1.7346 -1.9082
11848TIP3   OH256958   0.546   0.155   4.982 -0.0922 -0.4929 -0.1242
11848TIP3    H156959   0.559   0.214   4.908  0.1844  1.0657  1.1026
11848TIP3    H256960   0.572   0.069   4.949  0.6868  0.2741 -1.6243
11849TIP3   OH256961   5.360   5.830   3.841 -0.1354 -0.3102 -0.0203
11849TIP3    H156962   5.438   5.783   3.871 -1.1577 -0.9725  1.7090
11849TIP3    H256963   5.393   5.888   3.772  1.7584 -1.0594  0.1807
11850TIP3   OH256964   3.383   0.600  15.231 -1.1386 -0.0488  0.2447
11850TIP3    H156965   3.470   0.597  15.270 -2.0746 -0.7375  2.4318
11850TIP3    H256966   3.341   0.676  15.271 -1.9776 -0.4747  0.2017
11851TIP3   OH256967   6.480   2.786  12.191  0.0624 -0.5274  0.3227
11851TIP3    H156968   6.465   2.709  12.136  1.5641  0.6836 -1.9491
11851TIP3    H256969   6.410   2.847  12.167 -1.4661 -1.2983  2.5303
11852TIP3   OH256970   3.176   6.715  15.841 -0.1547 -0.9494  0.0728
11852TIP3    H156971   3.106   6.692  15.901 -0.9917  1.9334  0.3158
11852TIP3    H256972   3.254   6.722  15.896 -0.4774 -0.4087  0.4639
11853TIP3   OH256973   3.506   0.457   4.126  0.5145  0.0780 -0.4580
11853TIP3    H156974   3.556   0.408   4.060  0.7750  0.9929 -0.9544
11853TIP3    H256975   3.562   0.457   4.203  0.2935 -0.8295 -0.2832
11854TIP3   OH256976   5.323   6.683  13.660  0.1815 -0.3755 -0.4100
11854TIP3    H156977   5.236   6.704  13.625 -0.3119 -0.2558  0.8469
11854TIP3    H256978   5.335   6.744  13.733  1.3108 -0.4202 -0.5491
11855TIP3   OH256979   5.822   5.393  15.404 -0.1305 -0.0578  0.0104
11855TIP3    H156980   5.797   5.353  15.320  0.4117  0.3671 -0.3622
11855TIP3    H256981   5.739   5.423  15.442 -0.3460  0.0206 -0.5127
11856TIP3   OH256982   1.531   6.196  13.376 -0.2138 -0.9319 -0.1522
11856TIP3    H156983   1.563   6.250  13.303 -1.2507 -1.4497 -1.0140
11856TIP3    H256984   1.460   6.145  13.338 -0.6118 -1.3910  1.1810
11857TIP3   OH256985   5.081   5.945  17.284  0.2392 -0.2058  0.2234
11857TIP3    H156986   5.082   6.040  17.300  0.0564 -0.2263  0.3524
11857TIP3    H256987   5.018   5.911  17.346  0.8513 -0.5109  0.6870
11858TIP3   OH256988   2.290   5.585  14.189 -0.8293 -0.2817  0.6004
11858TIP3    H156989   2.346   5.537  14.250  0.7779  0.8062  0.0555
11858TIP3    H256990   2.263   5.663  14.237 -0.3944  0.0729  0.2824
11859TIP3   OH256991   1.595   0.449  17.068 -0.1128  0.3320  0.0401
11859TIP3    H156992   1.542   0.442  17.147 -1.5248  0.9309 -0.8114
11859TIP3    H256993   1.611   0.358  17.042  1.1891  0.0963  1.4881
11860TIP3   OH256994   0.472   0.792  13.860 -0.0883 -0.1418  0.2992
11860TIP3    H156995   0.445   0.700  13.861 -0.9512  0.0674 -0.9101
11860TIP3    H256996   0.389   0.841  13.853  0.4121  0.6764 -0.0447
11861TIP3   OH256997   0.643   6.721  13.966 -0.7316  0.4455  0.2130
11861TIP3    H156998   0.583   6.656  13.928 -1.6311  0.4093  1.5879
11861TIP3    H256999   0.667   6.777  13.893 -1.2919 -0.4287 -0.6736
11862TIP3   OH257000   2.725   6.026  17.081 -0.2772 -0.6081 -0.0163
11862TIP3    H157001   2.713   5.940  17.121 -2.9403 -0.3332 -0.0570
11862TIP3    H257002   2.775   6.076  17.145  0.8518 -1.9868  0.2382
11863TIP3   OH257003   3.029   0.773  11.850  0.9004  0.4070  0.0977
11863TIP3    H157004   3.084   0.841  11.889  0.7518  0.1067  0.8581
11863TIP3    H257005   2.976   0.819  11.785 -0.0079  1.2438  1.3851
11864TIP3   OH257006   4.911   5.182  13.760  0.0403  0.1070 -0.6831
11864TIP3    H157007   4.862   5.247  13.811 -3.5180  0.0540 -3.6116
11864TIP3    H257008   4.897   5.100  13.807  0.2959  0.6322  0.3455
11865TIP3   OH257009   0.551   1.656   3.731  0.4267 -0.2147  0.3634
11865TIP3    H157010   0.576   1.722   3.667  0.0893  1.9932  2.3725
11865TIP3    H257011   0.456   1.663   3.738  0.5371  0.3019  1.7658
11866TIP3   OH257012   0.754   1.103  11.007  0.4368 -0.2845  0.2208
11866TIP3    H157013   0.731   1.052  10.930 -1.6128  1.7584 -0.6646
11866TIP3    H257014   0.849   1.111  11.005  0.5591 -1.7932 -1.0479
11867TIP3   OH257015   3.324   5.284   3.981  0.0645  0.4254 -0.3041
11867TIP3    H157016   3.417   5.265   3.994  0.4121  1.9680 -0.3565
11867TIP3    H257017   3.293   5.309   4.069 -0.0514  0.8620 -0.4653
11868TIP3   OH257018   5.209   6.368  13.721  0.1486  0.0899  0.1766
11868TIP3    H157019   5.172   6.424  13.789  2.4833  2.1817 -0.1118
11868TIP3    H257020   5.175   6.404  13.639 -0.4838 -0.6735  0.0945
11869TIP3   OH257021   3.598   2.267   3.762  0.3822  0.1527  0.1579
11869TIP3    H157022   3.677   2.217   3.782 -0.1777 -0.1954  1.5896
11869TIP3    H257023   3.562   2.224   3.684  1.1047 -0.2573  0.0412
11870TIP3   OH257024   2.038   2.895   4.186 -0.1819 -0.6314  0.2029
11870TIP3    H157025   2.075   2.854   4.264 -0.0586 -1.3925 -0.2435
11870TIP3    H257026   1.973   2.957   4.219  0.7068 -0.0663  0.9559
11871TIP3   OH257027   2.651   4.513  14.340 -0.2683  0.0764 -0.3872
11871TIP3    H157028   2.715   4.463  14.290  1.0348  1.0042  0.2819
11871TIP3    H257029   2.675   4.498  14.432 -0.7302  0.7838 -0.1376
11872TIP3   OH257030   6.523   0.139  10.416  0.0676 -0.2060 -0.3300
11872TIP3    H157031   6.488   0.077  10.480  0.4833 -0.1454 -0.0455
11872TIP3    H257032   6.466   0.216  10.424  0.7827  0.2322  0.7496
11873TIP3   OH257033   2.949   5.064   0.848 -0.1239 -0.0599  0.0402
11873TIP3    H157034   2.866   5.035   0.886 -1.0485 -2.0392 -3.0495
11873TIP3    H257035   2.928   5.146   0.803  0.1014  0.4581  0.8697
11874TIP3   OH257036   5.380   3.194   0.760 -0.7237 -0.1364 -0.3088
11874TIP3    H157037   5.433   3.121   0.729  0.7140  0.6694  0.1493
11874TIP3    H257038   5.406   3.268   0.706 -0.5079  0.5422  0.6848
11875TIP3   OH257039   4.635   6.236  15.056 -0.3163  0.1552  0.0497
11875TIP3    H157040   4.555   6.266  15.013  1.0021  1.5586 -1.6251
11875TIP3    H257041   4.658   6.155  15.012 -0.5728 -0.0181  0.2322
11876TIP3   OH257042   5.656   4.075   4.097  0.5117  0.1875  0.5129
11876TIP3    H157043   5.637   4.169   4.087 -1.7276 -0.3970 -1.7576
11876TIP3    H257044   5.572   4.036   4.121 -0.0929 -1.8199 -3.8572
11877TIP3   OH257045   4.447   6.479   3.376  0.0088 -0.4237  0.5804
11877TIP3    H157046   4.474   6.388   3.390  0.1368 -0.3503  0.8330
11877TIP3    H257047   4.431   6.485   3.282  0.4827 -0.5796  0.4857
11878TIP3   OH257048   5.953   5.358  10.960  0.8345 -0.1384 -0.0915
11878TIP3    H157049   5.882   5.359  11.025  1.4213  0.9352  0.5645
11878TIP3    H257050   6.005   5.281  10.982  0.1560 -0.6617 -0.2767
11879TIP3   OH257051   1.096   3.878  14.656 -0.0420 -0.1329 -0.1612
11879TIP3    H157052   1.174   3.857  14.605  0.3945 -1.1143  0.8926
11879TIP3    H257053   1.025   3.831  14.612 -0.0585  0.7191 -1.0886
11880TIP3   OH257054   1.025   4.402  14.805 -0.1593  0.4747  0.4311
11880TIP3    H157055   1.050   4.339  14.738 -1.9953  0.0867  0.0577
11880TIP3    H257056   1.074   4.482  14.784  0.3703 -0.0869 -0.4977
11881TIP3   OH257057   3.576   2.799  13.666 -0.5892  0.5798 -0.3185
11881TIP3    H157058   3.543   2.731  13.724  0.6527  0.3432  0.1588
11881TIP3    H257059   3.554   2.881  13.710 -1.3944  0.4647 -0.5010
11882TIP3   OH257060   0.213   0.218  14.673 -0.1279  0.2425 -0.1114
11882TIP3    H157061   0.275   0.166  14.723 -1.6353  0.1884  1.8328
11882TIP3    H257062   0.267   0.268  14.612  1.5551 -1.7140 -0.3293
11883TIP3   OH257063   2.964   4.041  13.343 -0.0977 -1.0533  0.1337
11883TIP3    H157064   3.047   4.045  13.296 -0.2323 -0.1660 -0.0629
11883TIP3    H257065   2.899   4.021  13.276 -0.6440  2.5696 -0.6585
11884TIP3   OH257066   2.098   3.583  16.777 -0.2202 -0.1435 -0.3819
11884TIP3    H157067   2.094   3.548  16.687 -2.8099 -2.3168  0.4411
11884TIP3    H257068   2.161   3.527  16.822 -1.7581 -1.6090  0.0432
11885TIP3   OH257069   1.072   3.576  16.793 -0.2081 -0.0748  0.5471
11885TIP3    H157070   1.020   3.557  16.715 -0.4169 -0.1802  0.7078
11885TIP3    H257071   1.020   3.640  16.842  0.1208  0.3086  0.3972
11886TIP3   OH257072   5.587   2.607   5.097  0.3337  0.0258  0.1506
11886TIP3    H157073   5.545   2.535   5.145 -0.6524  0.0618 -0.6442
11886TIP3    H257074   5.557   2.686   5.142  1.3851 -0.0332  0.9986
11887TIP3   OH257075   6.153   6.607  17.134  0.3120 -0.1997  0.8083
11887TIP3    H157076   6.064   6.572  17.136  0.4192 -1.0294 -2.5409
11887TIP3    H257077   6.189   6.575  17.051  3.0952  1.6546  1.1687
11888TIP3   OH257078   6.490   5.334   1.286  0.2331  0.0245 -0.2793
11888TIP3    H157079   6.570   5.383   1.305  0.0769 -0.5034  2.0418
11888TIP3    H257080   6.419   5.396   1.304  0.0850  0.1086 -1.1176
11889TIP3   OH257081   0.728   4.979   1.454 -0.2394  0.2269 -0.0398
11889TIP3    H157082   0.657   5.042   1.468 -0.0675  0.1412  1.2709
11889TIP3    H257083   0.684   4.897   1.432 -0.6152 -0.0810  1.7353
11890TIP3   OH257084   0.350   3.013   6.565 -0.3162 -0.3521  0.5644
11890TIP3    H157085   0.357   2.981   6.654 -0.6613  0.3181  0.8391
11890TIP3    H257086   0.302   2.944   6.518 -0.8733 -0.3370  1.1008
11891TIP3   OH257087   2.177   0.994   5.691 -0.1694  0.5781 -0.3531
11891TIP3    H157088   2.204   1.085   5.680 -0.7745  0.8213  0.1012
11891TIP3    H257089   2.161   0.963   5.602 -1.6448  1.4588 -0.4311
11892TIP3   OH257090   2.900   3.557   1.961  0.5814  0.1532  0.5165
11892TIP3    H157091   2.853   3.615   1.901 -0.7918  0.6683  2.0234
11892TIP3    H257092   2.967   3.612   2.001  1.4809 -0.1838 -0.4901
11893TIP3   OH257093   1.322   6.275  13.756  0.0565 -0.4096  0.7477
11893TIP3    H157094   1.311   6.183  13.734  0.0673 -0.0321 -0.9282
11893TIP3    H257095   1.407   6.300  13.719 -0.3562  0.4896  0.3582
11894TIP3   OH257096   0.310   3.867   4.342 -0.3689 -0.2187 -0.6984
11894TIP3    H157097   0.385   3.820   4.378 -0.3237 -1.5302 -2.3665
11894TIP3    H257098   0.280   3.923   4.413  1.9341  0.0540  0.1519
11895TIP3   OH257099   3.726   1.049   4.427  0.2855 -0.2751  0.6367
11895TIP3    H157100   3.664   0.981   4.451 -0.4418  0.1285 -0.0680
11895TIP3    H257101   3.714   1.062   4.333  1.1588  0.0926  0.5573
11896TIP3   OH257102   4.296   5.764   1.414 -0.4562 -0.0270  0.0099
11896TIP3    H157103   4.368   5.802   1.363 -0.6538 -1.5529 -1.5309
11896TIP3    H257104   4.217   5.802   1.375 -0.5512  0.4470  0.6509
11897TIP3   OH257105   0.755   5.751   3.128 -0.0438  0.5517  0.2721
11897TIP3    H157106   0.735   5.843   3.111  0.9377  0.6881 -0.2141
11897TIP3    H257107   0.783   5.749   3.220  1.4918  1.0357 -0.1542
11898TIP3   OH257108   0.829   1.563   5.457  0.4379 -0.5840  0.0938
11898TIP3    H157109   0.780   1.509   5.519 -0.3433  0.0307  0.0399
11898TIP3    H257110   0.779   1.645   5.454  0.3778 -0.6552 -1.4435
11899TIP3   OH257111   0.122   5.996   1.153  0.1512  0.2422  0.1689
11899TIP3    H157112   0.031   5.984   1.124  0.4341  1.4376 -1.3278
11899TIP3    H257113   0.115   6.055   1.228 -0.3555 -0.3147  0.5748
11900TIP3   OH257114   2.927   1.151  13.727  0.6307  0.0723 -0.0664
11900TIP3    H157115   2.962   1.239  13.741  0.8194  0.1113 -0.7511
11900TIP3    H257116   2.974   1.096  13.789  1.4845  0.2225 -0.5677
11901TIP3   OH257117   6.458   5.402  14.817 -0.1656 -0.2397 -0.0903
11901TIP3    H157118   6.518   5.440  14.753 -0.2707 -0.2192 -0.1764
11901TIP3    H257119   6.503   5.322  14.847  1.5950  1.5512  2.4755
11902TIP3   OH257120   3.071   3.913   6.099  0.1522  0.3510 -0.0017
11902TIP3    H157121   3.008   3.962   6.151  0.7710  1.4526 -0.2547
11902TIP3    H257122   3.144   3.897   6.159 -0.1796 -0.5502  0.1709
11903TIP3   OH257123   1.703   4.693   0.487  0.5124  0.2940  0.7296
11903TIP3    H157124   1.642   4.635   0.440  0.5818  0.9244 -0.1606
11903TIP3    H257125   1.787   4.680   0.442  0.2570  2.0046 -0.3211
11904TIP3   OH257126   5.660   6.041   5.144  0.3511 -0.2753 -0.0879
11904TIP3    H157127   5.618   6.027   5.229  2.3751  1.4895  1.3017
11904TIP3    H257128   5.707   6.124   5.154  1.4272 -0.4966 -2.6409
11905TIP3   OH257129   1.036   4.079  12.861  0.0446  0.0261  0.4825
11905TIP3    H157130   0.963   4.017  12.868  1.8237 -2.3662 -0.7417
11905TIP3    H257131   0.995   4.165  12.873 -2.4895 -1.3215  2.8398
11906TIP3   OH257132   4.873   1.223  16.957  0.4768 -0.0877  0.5103
11906TIP3    H157133   4.854   1.153  16.894 -0.3537  1.4016 -1.0133
11906TIP3    H257134   4.968   1.229  16.959  0.6499  1.7880 -3.1409
11907TIP3   OH257135   5.183   2.361  16.758  0.2409  0.2816  0.2120
11907TIP3    H157136   5.238   2.323  16.689 -1.3391  0.5555 -1.2559
11907TIP3    H257137   5.242   2.367  16.833  2.0790  0.0688 -1.1134
11908TIP3   OH257138   6.649   5.439   0.015  0.1991 -0.2203 -0.5459
11908TIP3    H157139   6.635   5.384  -0.062  0.0935 -1.8203  0.5593
11908TIP3    H257140   6.628   5.382   0.089 -0.2063  1.4254  0.6597
11909TIP3   OH257141   2.497   2.014   5.193 -0.3762  0.4482 -0.5231
11909TIP3    H157142   2.447   2.093   5.174 -0.6529  0.4881  0.3280
11909TIP3    H257143   2.461   1.982   5.276  1.7255  1.1067  0.7192
11910TIP3   OH257144   2.715   2.182   4.255 -0.2004 -0.0089  0.0152
11910TIP3    H157145   2.767   2.241   4.309  1.0670  0.4223 -1.6114
11910TIP3    H257146   2.628   2.223   4.251 -0.4353 -0.2137  1.9191
11911TIP3   OH257147   3.365   4.883  13.640  0.2092  0.0129 -0.5264
11911TIP3    H157148   3.343   4.912  13.552 -1.0608  1.1343  0.1247
11911TIP3    H257149   3.302   4.927  13.697 -0.8729 -2.8796  0.7067
11912TIP3   OH257150   0.416   6.010   3.683 -0.1232  0.2352  0.1051
11912TIP3    H157151   0.428   5.937   3.743 -2.3653  0.1846  0.5626
11912TIP3    H257152   0.484   6.073   3.708  1.0517 -1.1545  0.5109
11913TIP3   OH257153   1.398   2.557   1.725  0.4830  0.4751  0.2293
11913TIP3    H157154   1.456   2.568   1.801 -0.4241 -0.9605  1.1884
11913TIP3    H257155   1.457   2.557   1.650  1.5713  0.4890  1.0552
11914TIP3   OH257156   1.816   3.553   3.809  0.1529 -0.2743 -0.0526
11914TIP3    H157157   1.790   3.615   3.877  0.9692  1.4003 -1.2004
11914TIP3    H257158   1.907   3.531   3.830  0.2336 -0.1721 -0.2905
11915TIP3   OH257159   1.365   0.070   3.679 -0.5393 -0.3952 -0.2012
11915TIP3    H157160   1.270   0.065   3.679 -0.6733 -0.7695  3.3605
11915TIP3    H257161   1.386   0.137   3.744  1.6397  0.0280 -1.2441
11916TIP3   OH257162   6.368   0.854  12.922 -0.0290 -0.1318 -0.1187
11916TIP3    H157163   6.279   0.819  12.930 -0.1768  0.0920 -0.7474
11916TIP3    H257164   6.367   0.904  12.841  0.4790  0.4687  0.2411
11917TIP3   OH257165   5.836   4.655   2.879 -0.0468 -0.5273  0.6238
11917TIP3    H157166   5.746   4.673   2.851  0.1619 -1.4228 -0.7156
11917TIP3    H257167   5.870   4.741   2.905 -1.4572 -0.2549  1.7953
11918TIP3   OH257168   6.573   3.103   3.847 -0.1135  0.0895 -0.4136
11918TIP3    H157169   6.566   3.146   3.932  0.1194  0.3489 -0.5227
11918TIP3    H257170   6.485   3.109   3.810  0.3955  2.5915 -1.4220
11919TIP3   OH257171   3.476   3.270  10.515  0.0548 -0.0289  0.4532
11919TIP3    H157172   3.381   3.272  10.521  0.0579  1.9057  0.3439
11919TIP3    H257173   3.502   3.362  10.514  2.0165 -0.5051  1.9180
11920TIP3   OH257174   4.280   3.381  12.304  0.2649  0.1036 -0.1069
11920TIP3    H157175   4.362   3.364  12.257  0.9127 -1.0360  1.3601
11920TIP3    H257176   4.301   3.453  12.363 -0.5208  1.4637 -1.4089
11921TIP3   OH257177   5.391   3.167   4.051 -0.0649  0.3237 -0.2034
11921TIP3    H157178   5.343   3.092   4.014  1.3221 -0.3423 -0.7066
11921TIP3    H257179   5.376   3.238   3.989 -2.2995  0.8564  0.8178
11922TIP3   OH257180   1.940   5.844  11.341 -0.9097  0.4422 -1.0228
11922TIP3    H157181   1.910   5.753  11.348  0.0639  0.1328 -0.7092
11922TIP3    H257182   1.966   5.868  11.430 -0.1738  0.6712 -1.2931
11923TIP3   OH257183   6.500   5.200   2.876  0.3698  0.1235 -0.4097
11923TIP3    H157184   6.428   5.162   2.827  0.5191 -0.0585 -0.4875
11923TIP3    H257185   6.547   5.126   2.913 -0.2646  0.2819  0.7760
11924TIP3   OH257186   4.134   3.384   1.835  0.0125 -0.2864  0.0313
11924TIP3    H157187   4.049   3.413   1.868 -0.9523 -1.3917 -1.3892
11924TIP3    H257188   4.198   3.424   1.895 -1.4245  1.4924  0.4511
11925TIP3   OH257189   0.422   3.626   4.714 -0.0883 -0.0394  0.3570
11925TIP3    H157190   0.417   3.699   4.776 -1.2620  1.9455 -1.9042
11925TIP3    H257191   0.417   3.667   4.628 -2.0654 -2.8399 -1.0449
11926TIP3   OH257192   1.085   6.074  11.170 -0.2604  0.1164 -0.0765
11926TIP3    H157193   1.076   6.035  11.084 -1.5977  0.2663 -0.0186
11926TIP3    H257194   1.078   6.169  11.154 -1.2728  0.1102  0.2677
11927TIP3   OH257195   4.384   6.734   2.858  0.1842  0.2040 -0.3596
11927TIP3    H157196   4.315   6.705   2.917  0.6221  1.0866  0.6191
11927TIP3    H257197   4.447   6.779   2.915  0.7847  0.7910 -1.4511
11928TIP3   OH257198   5.682   3.745  11.142  0.1874  0.0174 -0.2955
11928TIP3    H157199   5.689   3.832  11.102  2.9131  1.0053  2.0421
11928TIP3    H257200   5.614   3.755  11.208 -0.7452 -0.1790 -1.2011
11929TIP3   OH257201   0.541   5.771  13.000  0.0027 -0.1514 -0.0484
11929TIP3    H157202   0.605   5.730  13.059  1.0455  1.2340 -0.1701
11929TIP3    H257203   0.551   5.865  13.015 -0.8620  0.1554 -1.2669
11930TIP3   OH257204   6.428   1.440   3.738  0.3211 -0.5014 -0.1300
11930TIP3    H157205   6.516   1.441   3.776 -0.1019  0.1940  0.8554
11930TIP3    H257206   6.369   1.452   3.812 -0.6718 -1.8840 -0.6576
11931TIP3   OH257207   6.283   4.978  14.141  0.0288 -0.2262 -0.7544
11931TIP3    H157208   6.346   4.934  14.198  1.1231 -0.0233 -1.7677
11931TIP3    H257209   6.320   5.065  14.128 -0.4361 -0.1175 -1.3957
11932TIP3   OH257210   1.842   0.045  15.946 -0.4220  0.7367 -0.2820
11932TIP3    H157211   1.878  -0.012  16.014 -1.3304  0.5642  0.0693
11932TIP3    H257212   1.912   0.108  15.929  0.0546  0.4058  0.3670
11933TIP3   OH257213   1.849   4.633  11.501  0.4506 -0.1629 -0.0236
11933TIP3    H157214   1.841   4.563  11.436  0.5291 -3.3958  3.1317
11933TIP3    H257215   1.764   4.633  11.546  0.9005  0.8945  0.8568
11934TIP3   OH257216   1.020   0.195  16.959  0.0511  0.0465 -0.3827
11934TIP3    H157217   1.074   0.139  16.903  1.6182  0.8470  0.2631
11934TIP3    H257218   1.082   0.257  16.997 -1.4112  1.2842  0.0709
11935TIP3   OH257219   0.204   4.425   1.323  0.2642  0.4957  0.1948
11935TIP3    H157220   0.208   4.348   1.266  0.9633  1.7887 -1.5852
11935TIP3    H257221   0.184   4.389   1.410 -0.2737 -1.5989 -0.7315
11936TIP3   OH257222   0.658   5.420  12.068  0.3489  0.7810  0.3481
11936TIP3    H157223   0.675   5.514  12.075 -0.6878  1.1144 -1.2397
11936TIP3    H257224   0.739   5.383  12.035  0.0570  1.4578 -1.1897
11937TIP3   OH257225   6.349   5.831   4.247 -0.1354 -0.4737 -0.7120
11937TIP3    H157226   6.281   5.769   4.272 -0.1997  0.1901  0.8437
11937TIP3    H257227   6.343   5.901   4.312  1.9477 -0.3410 -0.5989
11938TIP3   OH257228   1.373   6.440   2.891  0.0164 -0.1327  0.3453
11938TIP3    H157229   1.303   6.499   2.916 -1.8659 -0.9290 -2.6086
11938TIP3    H257230   1.449   6.497   2.875 -0.9757  1.1628  0.1343
11939TIP3   OH257231   1.432   5.482  15.229 -0.0122 -0.3528  0.2361
11939TIP3    H157232   1.475   5.527  15.302 -0.4754 -2.2896  1.7852
11939TIP3    H257233   1.340   5.506  15.238  0.2840  1.8751 -1.6531
11940TIP3   OH257234   3.559   3.138  11.315 -0.0337  0.8054 -0.1078
11940TIP3    H157235   3.496   3.210  11.310 -1.5096 -0.3467  1.0505
11940TIP3    H257236   3.531   3.086  11.390  0.4847 -1.4233 -1.3556
11941TIP3   OH257237   3.820   6.108   5.244  0.2110  0.0174 -0.2850
11941TIP3    H157238   3.835   6.198   5.272 -2.2890  0.2036  0.7816
11941TIP3    H257239   3.750   6.114   5.179 -1.3268 -1.2312  1.1614
11942TIP3   OH257240   0.146   4.826   3.819 -0.1478  0.0080  0.1376
11942TIP3    H157241   0.068   4.821   3.764  0.5418 -1.3437 -0.7485
11942TIP3    H257242   0.181   4.914   3.802 -0.7973  0.1782 -0.3772
11943TIP3   OH257243   0.462   2.459  14.741  0.0347  0.1260  0.3827
11943TIP3    H157244   0.521   2.430  14.672 -0.0402  0.0021  0.3704
11943TIP3    H257245   0.518   2.470  14.818 -0.3276 -2.8089  1.1939
11944TIP3   OH257246   0.631   1.801   5.042 -0.2131  0.3318 -0.1667
11944TIP3    H157247   0.699   1.773   4.982  0.0236  0.1951  0.1616
11944TIP3    H257248   0.600   1.884   5.007  1.0372  1.0669  0.4080
11945TIP3   OH257249   5.393   0.558  15.132  0.3315 -0.0957 -0.7152
11945TIP3    H157250   5.331   0.584  15.200  1.4897 -3.7044  1.9849
11945TIP3    H257251   5.479   0.586  15.165  0.9902 -2.5080 -0.1599
11946TIP3   OH257252   5.550   5.954   3.698  0.3980  0.2268  0.3743
11946TIP3    H157253   5.636   5.914   3.708  0.2002 -0.7658 -1.4247
11946TIP3    H257254   5.567   6.048   3.700  1.1287  0.1094  2.7117
11947TIP3   OH257255   5.523   1.155   3.931  0.6229 -0.1025  0.2297
11947TIP3    H157256   5.486   1.213   3.864  0.7182  0.6031  0.7780
11947TIP3    H257257   5.553   1.078   3.883  0.4107  0.2645 -0.4965
11948TIP3   OH257258   0.732   4.131   0.216  0.0774 -0.1943  0.3865
11948TIP3    H157259   0.754   4.221   0.191 -0.6468  0.2252  1.1865
11948TIP3    H257260   0.750   4.127   0.310 -2.4559 -0.0240  0.9435
11949TIP3   OH257261   6.666   1.702  16.564  0.4513 -0.2618  0.2130
11949TIP3    H157262   6.584   1.701  16.613  0.3087 -2.1913 -0.0226
11949TIP3    H257263   6.652   1.644  16.490  1.0880  1.6348 -1.4950
11950TIP3   OH257264   3.326   4.226   6.079 -0.5376  0.4247 -0.0578
11950TIP3    H157265   3.290   4.259   6.161 -0.9643 -0.6471  0.2019
11950TIP3    H257266   3.388   4.158   6.106  0.2814  0.9383 -0.5812
11951TIP3   OH257267   4.621   4.717   2.758  0.1045 -0.0652 -0.6355
11951TIP3    H157268   4.692   4.661   2.726 -0.0171 -0.2221 -0.6322
11951TIP3    H257269   4.642   4.733   2.850  0.2038 -0.0050 -0.6685
11952TIP3   OH257270   1.658   2.869  13.401  0.5037 -0.5759 -0.4040
11952TIP3    H157271   1.649   2.846  13.493  2.5732  1.5837  0.4373
11952TIP3    H257272   1.668   2.964  13.401  0.6019 -0.5292 -2.8647
11953TIP3   OH257273   0.991   6.098  16.360  0.3024  0.3375  0.1850
11953TIP3    H157274   1.021   6.068  16.445  1.0646  2.4906  0.7217
11953TIP3    H257275   0.896   6.108  16.369  0.1746 -0.8732  0.2920
11954TIP3   OH257276   0.484   1.366  15.324 -0.5884  0.3688 -0.3064
11954TIP3    H157277   0.448   1.431  15.264  0.6112 -0.0384 -1.5220
11954TIP3    H257278   0.440   1.284  15.300  1.1155 -0.1573 -1.8851
11955TIP3   OH257279   5.327   1.079   5.439 -0.0216  0.0291 -0.1040
11955TIP3    H157280   5.347   1.072   5.532 -2.2992 -1.3263  0.3497
11955TIP3    H257281   5.232   1.093   5.435  0.3506  3.2723 -2.1610
11956TIP3   OH257282   2.956   3.166  12.791  0.0412  0.1415 -0.0799
11956TIP3    H157283   3.032   3.204  12.748  0.4199  1.6533  1.7891
11956TIP3    H257284   2.886   3.170  12.725  1.0589  0.5734 -1.1643
11957TIP3   OH257285   0.881   4.111  12.452 -0.2186  0.3524  0.4552
11957TIP3    H157286   0.817   4.093  12.521 -1.1535 -0.7766 -0.6394
11957TIP3    H257287   0.860   4.047  12.383 -1.1350  3.1023 -2.0453
11958TIP3   OH257288   0.724   6.152  16.423 -0.1365 -0.5316 -0.5136
11958TIP3    H157289   0.643   6.101  16.435  1.1637 -2.3406  1.3871
11958TIP3    H257290   0.734   6.199  16.506  0.7204 -0.2650 -0.7653
11959TIP3   OH257291   2.461   0.325   3.305  0.0799 -0.1569  0.2737
11959TIP3    H157292   2.483   0.414   3.278 -0.6884 -0.0218  0.0806
11959TIP3    H257293   2.475   0.271   3.227  0.4795 -0.1995  0.3719
11960TIP3   OH257294   6.095   2.675   3.648  0.5138  0.4317  0.6555
11960TIP3    H157295   6.039   2.611   3.692 -0.2525  1.2848  0.9465
11960TIP3    H257296   6.074   2.759   3.690 -0.7489  1.4099 -1.7422
11961TIP3   OH257297   3.312   6.605  16.178 -0.1275  0.5276  0.4947
11961TIP3    H157298   3.390   6.592  16.232  1.1256  1.2900 -1.0400
11961TIP3    H257299   3.275   6.688  16.208 -0.0308  0.4329  0.8682
11962TIP3   OH257300   6.528   0.201  13.629 -0.1307  0.8317 -0.7986
11962TIP3    H157301   6.459   0.264  13.648 -0.3137  0.4603 -0.2013
11962TIP3    H257302   6.487   0.138  13.570 -0.4568  0.3478 -0.0722
11963TIP3   OH257303   2.525   1.807  15.356  0.2836  0.0053 -0.0949
11963TIP3    H157304   2.522   1.755  15.437  0.9083  1.3211  0.8218
11963TIP3    H257305   2.434   1.834  15.341  0.0875 -0.6634 -0.1174
11964TIP3   OH257306   0.636   4.208   2.099 -0.1438  0.0927  0.3314
11964TIP3    H157307   0.638   4.134   2.159 -0.2924 -1.3031 -1.3082
11964TIP3    H257308   0.696   4.184   2.028 -1.4639  0.7506 -1.0896
11965TIP3   OH257309   0.842   3.261  13.772 -0.3743 -0.0694  0.4896
11965TIP3    H157310   0.866   3.257  13.864  0.0967 -0.8780  0.3429
11965TIP3    H257311   0.781   3.334  13.766 -0.2125  0.1505  1.3936
11966TIP3   OH257312   5.760   5.172   4.331 -0.8030  0.1713 -0.1405
11966TIP3    H157313   5.808   5.177   4.248  2.4203  0.9848  1.6012
11966TIP3    H257314   5.810   5.110   4.384 -1.7382  0.9976  1.8181
11967TIP3   OH257315   0.653   4.106   2.553 -0.4215  0.0533 -0.7299
11967TIP3    H157316   0.625   4.172   2.490  1.5040  0.8507 -0.8121
11967TIP3    H257317   0.738   4.076   2.521  0.1442 -0.2474  0.9369
11968TIP3   OH257318   3.710   0.092  11.367 -0.0314 -0.0014  0.4107
11968TIP3    H157319   3.699   0.090  11.272  0.5109 -1.6012  0.3520
11968TIP3    H257320   3.634   0.045  11.401  0.8976 -1.4277  0.6093
11969TIP3   OH257321   4.738   4.971   4.255 -0.0533 -0.6627  0.0490
11969TIP3    H157322   4.649   4.998   4.229 -0.1851 -0.9826  0.1585
11969TIP3    H257323   4.725   4.921   4.336  0.2465 -0.5694  0.1564
11970TIP3   OH257324   6.417   0.677  13.391  0.3491  0.3789 -0.4790
11970TIP3    H157325   6.355   0.718  13.450  1.3835 -0.2761  1.1308
11970TIP3    H257326   6.364   0.622  13.334 -0.6952  1.2070 -0.3195
11971TIP3   OH257327   4.417   5.728   3.809  0.6079 -0.2173  0.1394
11971TIP3    H157328   4.457   5.769   3.732  0.2898 -0.5163 -0.1887
11971TIP3    H257329   4.325   5.717   3.785  0.7417 -1.3972  0.1010
11972TIP3   OH257330   5.446   4.205  14.374 -0.1459  0.1874 -0.6153
11972TIP3    H157331   5.485   4.222  14.288  1.0788 -0.1827 -0.1475
11972TIP3    H257332   5.352   4.220  14.360  0.2250  1.9799 -1.5544
11973TIP3   OH257333   6.745   5.403   3.418  0.1396 -0.1072 -1.0224
11973TIP3    H157334   6.756   5.432   3.509 -1.1401 -0.0017 -0.8777
11973TIP3    H257335   6.758   5.482   3.366 -2.8733  0.7502 -0.6587
11974TIP3   OH257336   2.870   2.972   6.117  0.2660 -0.8239 -0.2705
11974TIP3    H157337   2.920   3.041   6.161  0.3386  0.0300 -1.6559
11974TIP3    H257338   2.782   3.008   6.108  0.0473 -1.3117 -0.1427
11975TIP3   OH257339   1.124   1.904  14.977 -0.3084 -0.0809  0.3308
11975TIP3    H157340   1.054   1.840  14.963  1.6931 -2.7212  1.3898
11975TIP3    H257341   1.195   1.874  14.920  0.9086  0.8897  1.2893
11976TIP3   OH257342   5.969   2.518   4.903  0.2856 -0.9783  0.3508
11976TIP3    H157343   5.916   2.590   4.938  1.5782  0.6487 -0.8986
11976TIP3    H257344   5.904   2.452   4.876 -1.2378  1.2940 -1.9348
11977TIP3   OH257345   1.558   4.274  11.740  0.8702  0.2443  0.0967
11977TIP3    H157346   1.491   4.334  11.772 -1.0704 -2.2176  1.0236
11977TIP3    H257347   1.522   4.240  11.657  1.4745 -0.3324  0.0615
11978TIP3   OH257348   2.639   5.896   4.536 -0.6006 -0.3186 -0.2796
11978TIP3    H157349   2.585   5.835   4.585  0.3169 -1.2281 -0.3539
11978TIP3    H257350   2.588   5.918   4.459  0.1991 -3.4157 -1.8421
11979TIP3   OH257351   0.367   0.184  13.598  0.3439  0.8536 -0.0429
11979TIP3    H157352   0.406   0.270  13.616  1.1162  0.5623 -0.3133
11979TIP3    H257353   0.415   0.151  13.522 -0.6958  0.6565 -0.6274
11980TIP3   OH257354   5.711   2.606   1.680 -0.1781 -0.1639  0.1054
11980TIP3    H157355   5.697   2.512   1.679  1.8231 -0.5475  2.0481
11980TIP3    H257356   5.704   2.632   1.588 -0.9084 -2.1508 -0.4417
11981TIP3   OH257357   0.558   6.322  13.436 -0.5757 -0.5480  0.2207
11981TIP3    H157358   0.572   6.233  13.403  0.0992  0.7478 -3.4300
11981TIP3    H257359   0.622   6.375  13.389  0.3319  1.7118  3.6656
11982TIP3   OH257360   0.674   4.981   3.633  0.1939  0.1618  0.0706
11982TIP3    H157361   0.753   4.927   3.624  0.5184 -0.4197  4.2804
11982TIP3    H257362   0.701   5.051   3.693 -2.4495 -0.1509  1.7689
11983TIP3   OH257363   1.330   6.586   0.899  0.2467  0.2808 -0.1657
11983TIP3    H157364   1.404   6.640   0.872  0.6002 -0.3125 -0.4222
11983TIP3    H257365   1.369   6.500   0.918 -0.3530  0.0014 -0.1714
11984TIP3   OH257366   6.497   1.644  16.076  0.4429  0.0452 -0.2090
11984TIP3    H157367   6.497   1.550  16.089 -0.7298 -0.2733 -2.1383
11984TIP3    H257368   6.589   1.670  16.085  0.5567 -0.9880  1.9637
11985TIP3   OH257369   2.791   6.178  10.708  0.1576 -0.0672  0.3895
11985TIP3    H157370   2.821   6.126  10.782 -0.1240  0.9976  1.2893
11985TIP3    H257371   2.702   6.206  10.733 -0.7188 -1.2812 -1.2140
11986TIP3   OH257372   0.299   2.317  15.253  0.2403  0.4937 -0.1757
11986TIP3    H157373   0.307   2.253  15.323 -0.1657 -0.5809 -1.0796
11986TIP3    H257374   0.278   2.399  15.297 -0.0695 -0.1756  0.9452
11987TIP3   OH257375   4.631   5.919  15.224  0.1939  0.0608  0.3853
11987TIP3    H157376   4.589   5.955  15.302  0.3620 -0.0621  0.5333
11987TIP3    H257377   4.705   5.978  15.207 -0.9149  1.1737 -0.7718
11988TIP3   OH257378   1.772   1.918   4.948 -0.4695  0.1564  0.5341
11988TIP3    H157379   1.800   1.998   4.993  0.0924  1.4494 -1.9655
11988TIP3    H257380   1.678   1.927   4.940 -0.4535  0.3852  0.5751
11989TIP3   OH257381   0.866   3.332  16.781  0.2251  0.2292 -0.1035
11989TIP3    H157382   0.918   3.251  16.778  1.6963  1.0261  1.5711
11989TIP3    H257383   0.790   3.310  16.835 -0.4112 -0.5230 -1.2657
11990TIP3   OH257384   3.544   2.135   0.283  0.2178  0.3905 -0.0718
11990TIP3    H157385   3.545   2.158   0.191  0.9762  0.7331  0.0135
11990TIP3    H257386   3.470   2.075   0.293  0.6852 -0.3853 -1.0778
11991TIP3   OH257387   0.189   4.365  11.799  0.0900  0.1117  0.0167
11991TIP3    H157388   0.272   4.338  11.759  0.3300  1.3175 -0.3339
11991TIP3    H257389   0.124   4.351  11.730  0.5551  2.5290 -1.0220
11992TIP3   OH257390   4.464   3.155  15.720 -0.3552 -0.0690  0.3254
11992TIP3    H157391   4.517   3.091  15.672  0.3479  1.6048 -1.2491
11992TIP3    H257392   4.453   3.227  15.658 -1.2216  1.2859  1.9960
11993TIP3   OH257393   3.935   3.384  13.850 -0.0161 -0.8918 -0.1358
11993TIP3    H157394   3.845   3.413  13.864  0.1403 -0.2903 -0.3196
11993TIP3    H257395   3.980   3.404  13.932 -0.2665 -2.0920  0.3056
11994TIP3   OH257396   5.789   4.100  15.739  0.3269  0.8644 -0.0036
11994TIP3    H157397   5.858   4.156  15.773 -0.6076  1.9120  0.2210
11994TIP3    H257398   5.741   4.156  15.677 -0.8717  0.4685  0.5255
11995TIP3   OH257399   5.859   4.991  11.832 -0.2986 -0.1688 -0.3611
11995TIP3    H157400   5.779   4.939  11.831 -0.4479  0.0602 -0.4707
11995TIP3    H257401   5.926   4.934  11.794 -0.4266 -0.3366 -0.3331
11996TIP3   OH257402   0.546   2.928  15.638 -0.2078 -0.3746 -0.3734
11996TIP3    H157403   0.633   2.967  15.627 -0.3570  0.1117  0.1103
11996TIP3    H257404   0.563   2.840  15.670  0.0909  0.5497  2.2072
11997TIP3   OH257405   6.358   1.520  14.739 -0.1170  0.1171  0.3642
11997TIP3    H157406   6.350   1.431  14.774 -0.2024 -0.7895 -1.8101
11997TIP3    H257407   6.269   1.554  14.739 -0.1185  0.1240  0.9694
11998TIP3   OH257408   5.357   2.136  13.162  0.3619  1.1138  0.2822
11998TIP3    H157409   5.285   2.074  13.150  1.5862 -0.3374  0.1352
11998TIP3    H257410   5.326   2.217  13.123 -0.7879  0.2102 -0.7543
11999TIP3   OH257411   0.186   3.113   2.507 -0.6449  0.3608  0.1352
11999TIP3    H157412   0.182   3.018   2.499 -0.5783  0.2478  1.1962
11999TIP3    H257413   0.216   3.128   2.597  0.7985  1.3702 -0.4629
12000TIP3   OH257414   6.399   3.676  16.054  0.2708  0.2596 -0.1270
12000TIP3    H157415   6.348   3.637  15.983 -0.3629  0.6317  0.1093
12000TIP3    H257416   6.482   3.702  16.014  1.3244 -2.5701 -0.0217
12001TIP3   OH257417   0.854   5.143   6.082  0.4981 -0.1544  0.0899
12001TIP3    H157418   0.815   5.153   6.168  2.0658 -0.5220  0.8847
12001TIP3    H257419   0.819   5.060   6.049  0.5052 -0.4123  0.7191
12002TIP3   OH257420   4.374   3.203   2.062 -0.2306 -0.1776  0.1556
12002TIP3    H157421   4.363   3.295   2.037 -0.7039 -0.4392 -0.6287
12002TIP3    H257422   4.446   3.172   2.008 -1.0845 -0.6731 -0.7308
12003TIP3   OH257423   4.759   0.639   0.925 -0.4265 -0.0962  0.5376
12003TIP3    H157424   4.682   0.679   0.966 -0.0709 -0.1490  1.2676
12003TIP3    H257425   4.772   0.557   0.973  1.2109  0.7936  1.6836
12004TIP3   OH257426   3.723   3.471  11.992  0.0313 -0.1900 -0.3639
12004TIP3    H157427   3.660   3.478  12.064  1.3663 -0.6137  0.8858
12004TIP3    H257428   3.784   3.403  12.020  1.4509  0.6894 -1.2262
12005TIP3   OH257429   2.743   2.262   4.659 -0.1681  0.0581 -0.0267
12005TIP3    H157430   2.702   2.258   4.745 -1.8942  0.0970 -0.8090
12005TIP3    H257431   2.709   2.343   4.620  0.8876  0.2410 -0.6130
12006TIP3   OH257432   1.105   5.594   2.209 -0.1833  0.3349 -0.6672
12006TIP3    H157433   1.105   5.686   2.233  0.7122  0.3937 -0.8655
12006TIP3    H257434   1.186   5.559   2.246 -0.9202 -0.5832  0.1498
12007TIP3   OH257435   2.370   5.073   2.086 -0.3489 -0.1998 -0.0790
12007TIP3    H157436   2.296   5.119   2.124 -0.9427 -0.5732 -0.7474
12007TIP3    H257437   2.403   5.133   2.018  0.9058  0.6018  1.1904
12008TIP3   OH257438   5.986   3.784  10.763 -0.4579  1.2891 -0.1674
12008TIP3    H157439   6.048   3.725  10.721 -0.7925  0.9911 -0.2546
12008TIP3    H257440   5.928   3.811  10.692 -1.5362  0.1329  0.2245
12009TIP3   OH257441   5.277   4.684  17.078  0.8065 -0.3307 -0.2590
12009TIP3    H157442   5.364   4.679  17.116  1.3280  0.2254 -1.3251
12009TIP3    H257443   5.246   4.772  17.098 -0.2408 -1.0591  1.5692
12010TIP3   OH257444   5.586   2.924   3.392  0.2775 -0.2208 -0.4152
12010TIP3    H157445   5.507   2.877   3.365  0.2227 -0.1563 -0.3670
12010TIP3    H257446   5.581   3.008   3.345 -0.6818  0.6127  1.1055
12011TIP3   OH257447   6.112   3.938  10.516 -0.5253 -0.1758 -0.5702
12011TIP3    H157448   6.083   3.990  10.592 -1.2329  0.5801 -1.3384
12011TIP3    H257449   6.204   3.960  10.506 -1.2596  2.6874 -2.1666
12012TIP3   OH257450   2.740   2.700  11.367  0.1661  0.0575 -0.2846
12012TIP3    H157451   2.712   2.768  11.306 -1.9609  0.0319  0.5966
12012TIP3    H257452   2.711   2.618  11.326  0.0946 -0.0810  0.0384
12013TIP3   OH257453   1.933   5.341   0.921  0.3167  0.3507  0.2311
12013TIP3    H157454   1.899   5.285   0.991 -0.5977 -1.3960 -1.4896
12013TIP3    H257455   1.899   5.428   0.940  0.6763  0.0914  2.2908
12014TIP3   OH257456   5.305   5.038   1.400 -0.3466 -0.1419 -0.1735
12014TIP3    H157457   5.301   4.945   1.423  1.7206 -0.1812  0.2381
12014TIP3    H257458   5.257   5.081   1.470 -1.1147 -0.8718 -0.2314
12015TIP3   OH257459   2.722   1.266  12.836  0.2983 -0.7719  0.5111
12015TIP3    H157460   2.762   1.268  12.923  0.9920  0.3402  0.1815
12015TIP3    H257461   2.777   1.324  12.783 -0.8805 -0.4136 -0.3443
12016TIP3   OH257462   5.581   2.941   4.971  0.0824  0.1482  0.0927
12016TIP3    H157463   5.543   2.854   4.978  2.2714 -0.8845  0.0298
12016TIP3    H257464   5.557   2.970   4.883 -0.9839 -0.1999  0.2489
12017TIP3   OH257465   5.578   3.868   2.951 -0.0832 -0.4830 -0.1884
12017TIP3    H157466   5.646   3.808   2.984 -1.4493 -2.1055 -0.1898
12017TIP3    H257467   5.496   3.819   2.961 -1.6085  2.2356  1.8792
12018TIP3   OH257468   3.975   1.386  15.750 -0.4356 -0.0495  0.7106
12018TIP3    H157469   3.948   1.341  15.830  0.9487  0.2409  1.3703
12018TIP3    H257470   3.968   1.319  15.681 -2.1394 -0.1578  0.9385
12019TIP3   OH257471   0.007   0.525  11.470  0.0087  0.8339 -0.0321
12019TIP3    H157472   0.059   0.475  11.407  1.5465  2.2668  0.0494
12019TIP3    H257473   0.043   0.501  11.556  2.7199  4.0082 -0.0966
12020TIP3   OH257474   5.969   1.515  13.014 -0.1620 -0.2606  0.4459
12020TIP3    H157475   6.005   1.589  12.966  0.8527 -1.6237 -0.9689
12020TIP3    H257476   5.911   1.472  12.952 -0.1378 -1.1080  0.9989
12021TIP3   OH257477   6.412   3.054  16.744  0.4348 -0.3651  0.2030
12021TIP3    H157478   6.504   3.081  16.745  0.5884 -0.8928  0.7862
12021TIP3    H257479   6.376   3.088  16.825 -0.3978  1.5114 -0.8980
12022TIP3   OH257480   3.711   3.614  13.344 -0.3766  0.7748  0.5683
12022TIP3    H157481   3.650   3.681  13.376  0.2985  1.4405  0.4918
12022TIP3    H257482   3.737   3.645  13.257  2.0329  1.8861  1.5988
12023TIP3   OH257483   6.538   1.669   0.117 -0.3450 -0.0477 -0.2532
12023TIP3    H157484   6.538   1.699   0.026  0.2445 -0.1318 -0.2854
12023TIP3    H257485   6.607   1.721   0.159  0.0795 -0.7207 -0.0976
12024TIP3   OH257486   5.033   0.987  17.186  0.1986  0.3907  0.2522
12024TIP3    H157487   5.040   1.005  17.093 -1.5461  0.2599  0.0479
12024TIP3    H257488   4.949   1.026  17.212 -1.0593 -2.4694  0.9660
12025TIP3   OH257489   5.641   5.339   6.180  0.2049  0.1649 -0.9042
12025TIP3    H157490   5.591   5.288   6.115  0.4190 -0.1574 -0.8205
12025TIP3    H257491   5.583   5.345   6.255  1.2698 -2.6497  0.3027
12026TIP3   OH257492   3.988   4.538   6.530 -0.0558  0.2118  0.4599
12026TIP3    H157493   3.902   4.560   6.494  0.5186 -0.3142 -1.3463
12026TIP3    H257494   4.007   4.451   6.495  1.1767  0.2768  0.9186
12027TIP3   OH257495   5.015   3.298  17.094  0.7321  0.2373  0.6424
12027TIP3    H157496   5.035   3.385  17.130  0.8064 -0.0863  1.4174
12027TIP3    H257497   5.004   3.243  17.172  3.3863 -1.0772  0.1822
12028TIP3   OH257498   5.371   1.449  13.623 -0.0293  0.1402  0.5176
12028TIP3    H157499   5.450   1.432  13.675  1.0372  0.2820 -0.9976
12028TIP3    H257500   5.356   1.369  13.574 -1.2380 -0.1156  1.2574
12029TIP3   OH257501   6.271   2.916   6.096 -0.0051 -0.5032  0.4251
12029TIP3    H157502   6.205   2.893   6.161 -0.1997 -0.1646  0.3514
12029TIP3    H257503   6.228   2.982   6.041  1.1685  1.5962  1.8541
12030TIP3   OH257504   1.061   4.448   1.273  0.4674  0.0143 -0.0313
12030TIP3    H157505   1.028   4.394   1.202 -0.0893  1.1883 -0.6950
12030TIP3    H257506   1.110   4.518   1.229  2.7513 -0.9335  0.8757
12031TIP3   OH257507   3.074   6.527   0.147 -0.0731  0.4745  0.0518
12031TIP3    H157508   3.145   6.494   0.201 -0.9170  0.1759  1.0238
12031TIP3    H257509   3.115   6.589   0.087  1.4592 -1.8376 -1.4153
12032TIP3   OH257510   1.061   5.036  12.353  0.4956  0.6796 -0.2743
12032TIP3    H157511   1.096   5.039  12.442  2.2869  1.1926 -0.9517
12032TIP3    H257512   1.118   4.975  12.306 -0.6529  0.1226 -1.0029
12033TIP3   OH257513   5.167   6.480   4.883 -0.2191 -0.8062 -0.5373
12033TIP3    H157514   5.129   6.535   4.951  0.2872  0.4606 -1.2450
12033TIP3    H257515   5.099   6.473   4.817  0.9814  2.3003 -2.2769
12034TIP3   OH257516   5.351   2.139  17.258 -0.6558  0.1971 -0.2969
12034TIP3    H157517   5.354   2.213  17.198  0.7912  0.9371  0.6301
12034TIP3    H257518   5.437   2.138  17.300 -2.1730  0.8956  3.1641
12035TIP3   OH257519   3.511   2.338   4.891 -0.3212 -0.1147  0.4826
12035TIP3    H157520   3.432   2.286   4.874 -0.4715  0.6970 -1.5930
12035TIP3    H257521   3.505   2.362   4.984 -3.5858  1.6014 -0.0319
12036TIP3   OH257522   4.214   0.745   1.836  0.4680  0.0875 -0.0867
12036TIP3    H157523   4.176   0.823   1.796  2.1105  0.8421 -0.2397
12036TIP3    H257524   4.279   0.715   1.772  2.0898  0.4605  1.3350
12037TIP3   OH257525   5.526   6.206   5.735  0.1153  0.1529 -0.0210
12037TIP3    H157526   5.440   6.185   5.772  0.7577  1.0893  2.2115
12037TIP3    H257527   5.571   6.122   5.729 -0.5440 -0.2013 -0.0702
12038TIP3   OH257528   4.618   1.414   6.009 -0.4875 -0.0748 -0.2395
12038TIP3    H157529   4.706   1.427   6.045 -1.1705 -2.1190  2.4943
12038TIP3    H257530   4.567   1.488   6.043 -0.5157 -0.6192  0.9749
12039TIP3   OH257531   4.539   6.469  16.674  0.7539 -0.3879 -0.0523
12039TIP3    H157532   4.561   6.517  16.594 -1.2669  1.0643  0.1877
12039TIP3    H257533   4.565   6.528  16.745  0.7401 -0.8399  0.3330
12040TIP3   OH257534   4.235   6.052  15.141 -0.5101 -0.5116  0.5514
12040TIP3    H157535   4.278   5.975  15.103  2.2108  1.0829  0.1780
12040TIP3    H257536   4.283   6.069  15.222 -0.1421  1.5773 -0.0699
12041TIP3   OH257537   5.780   2.260  14.771 -0.4238  0.3050  0.0056
12041TIP3    H157538   5.761   2.183  14.823  0.0032 -0.2551 -0.6384
12041TIP3    H257539   5.864   2.292  14.804  0.4328 -0.7316 -1.0633
12042TIP3   OH257540   3.912   1.838   4.688 -0.4261 -0.2513  0.3476
12042TIP3    H157541   3.996   1.831   4.733 -0.8730  0.8857  1.3913
12042TIP3    H257542   3.928   1.797   4.602  1.2798  0.2385  0.3970
12043TIP3   OH257543   2.244   3.901  12.797 -0.7591 -0.1211 -0.3435
12043TIP3    H157544   2.219   3.847  12.872 -1.2058 -1.9145 -1.7105
12043TIP3    H257545   2.161   3.927  12.758 -0.5424  1.3899  0.1344
12044TIP3   OH257546   5.648   0.186   0.598 -0.5107 -0.2965  0.1604
12044TIP3    H157547   5.738   0.214   0.586 -0.5303 -0.2023  0.2386
12044TIP3    H257548   5.644   0.100   0.556 -0.8451  0.4696 -1.4441
12045TIP3   OH257549   3.729   2.250  15.656 -0.1639  0.2037  0.0387
12045TIP3    H157550   3.661   2.301  15.612  0.2439 -0.1362 -1.0191
12045TIP3    H257551   3.749   2.178  15.596  3.4683  2.0963 -1.3583
12046TIP3   OH257552   0.197   5.407   2.314 -0.4151  0.0817 -0.5841
12046TIP3    H157553   0.207   5.483   2.370 -1.9519 -0.0948 -0.0503
12046TIP3    H257554   0.111   5.417   2.273 -0.4937 -1.1783 -0.7814
12047TIP3   OH257555   1.324   1.821  14.828 -0.3902 -0.8271 -0.1909
12047TIP3    H157556   1.407   1.833  14.873 -1.6221  0.5351  1.8733
12047TIP3    H257557   1.312   1.726  14.824  1.9887 -1.1480 -2.0863
12048TIP3   OH257558   3.349   5.678  11.361 -0.1943  0.2991  0.2969
12048TIP3    H157559   3.293   5.749  11.329 -0.2169  0.6318  1.0560
12048TIP3    H257560   3.368   5.626  11.283 -0.7206  0.7625 -0.1525
12049TIP3   OH257561   1.976   0.364  12.139 -0.0211  0.1273 -0.2292
12049TIP3    H157562   2.054   0.331  12.095  0.7994  1.6307  0.0215
12049TIP3    H257563   1.903   0.320  12.095  0.9153 -0.7209 -0.9927
12050TIP3   OH257564   5.459   5.094  11.016 -0.1428 -0.1243 -0.5631
12050TIP3    H157565   5.458   5.142  10.933  2.2216 -0.3584 -0.8098
12050TIP3    H257566   5.462   5.002  10.990  1.2376 -0.1863 -0.3050
12051TIP3   OH257567   5.781   2.242   5.801 -0.0114 -0.7591 -0.4364
12051TIP3    H157568   5.854   2.241   5.862  0.1422  2.1020 -0.4760
12051TIP3    H257569   5.821   2.256   5.715 -0.5265 -0.2694 -0.6020
12052TIP3   OH257570   1.867   4.991   5.955  0.0300  0.5192 -0.2467
12052TIP3    H157571   1.862   5.057   5.887  2.1852  1.1540  0.1582
12052TIP3    H257572   1.832   5.034   6.033 -3.8516 -0.6657 -1.1239
12053TIP3   OH257573   4.815   2.009   0.070  0.0624 -0.7293  0.1824
12053TIP3    H157574   4.762   2.085   0.094 -0.7456 -1.1082 -0.3463
12053TIP3    H257575   4.828   2.018  -0.025  0.5292 -0.8982  0.2281
12054TIP3   OH257576   3.553   3.302   0.844 -0.0025  0.2261  0.2515
12054TIP3    H157577   3.566   3.207   0.836  2.6667  0.3722  1.6517
12054TIP3    H257578   3.615   3.340   0.782 -0.1810  1.0615  0.5816
12055TIP3   OH257579   5.623   4.474   1.170 -0.3624 -0.0960  0.1976
12055TIP3    H157580   5.663   4.435   1.247 -2.3204 -0.1836  1.2517
12055TIP3    H257581   5.587   4.400   1.121  1.7651 -0.1508 -1.4383
12056TIP3   OH257582   1.941   6.035   5.002 -0.4271 -0.5710  0.1611
12056TIP3    H157583   2.029   6.069   4.985 -0.5533 -1.0459 -1.5324
12056TIP3    H257584   1.954   5.942   5.020 -0.4095 -0.2813  1.7901
12057TIP3   OH257585   3.633   0.828  12.456 -0.0522  0.0921  0.2451
12057TIP3    H157586   3.562   0.892  12.463  0.6201  0.9847 -0.7207
12057TIP3    H257587   3.590   0.747  12.429 -0.5373  1.1492 -2.5374
12058TIP3   OH257588   0.126   4.034   0.349 -0.3255 -0.4178 -0.2394
12058TIP3    H157589   0.101   4.027   0.257 -0.1468 -0.4950 -0.2822
12058TIP3    H257590   0.075   3.966   0.393  0.2353 -0.9614 -0.4151
12059TIP3   OH257591   5.600   5.696   0.141  0.5765  0.1720 -0.0790
12059TIP3    H157592   5.505   5.693   0.153  0.4838  1.9530 -0.1280
12059TIP3    H257593   5.625   5.606   0.120 -1.1932 -0.1693 -0.8221
12060TIP3   OH257594   5.119   0.517  11.340 -0.3839 -0.4643  0.5632
12060TIP3    H157595   5.121   0.436  11.289 -0.5987  0.1552 -0.4550
12060TIP3    H257596   5.208   0.552  11.334 -1.0146  0.9745 -1.7025
12061TIP3   OH257597   0.166   4.185   6.150  0.4319 -0.3742  0.4848
12061TIP3    H157598   0.179   4.253   6.217 -1.5042  0.2910  0.2744
12061TIP3    H257599   0.164   4.234   6.068 -0.9786 -0.6486  0.3301
12062TIP3   OH257600   3.532   0.138  15.273 -0.2891 -0.1616 -0.1529
12062TIP3    H157601   3.499   0.187  15.349  2.1349 -0.6102  1.2594
12062TIP3    H257602   3.500   0.188  15.198 -3.7672 -0.3388  1.0258
12063TIP3   OH257603   2.991   0.277   2.292 -0.8246 -0.1715  0.6964
12063TIP3    H157604   3.081   0.285   2.323 -0.4613  2.1956 -0.7067
12063TIP3    H257605   2.946   0.354   2.326 -0.8902  1.5008 -2.7602
12064TIP3   OH257606   2.036   6.371   1.873  0.4795 -0.4265  0.0755
12064TIP3    H157607   2.118   6.335   1.906  0.6285  1.7941  2.3540
12064TIP3    H257608   2.063   6.434   1.806  0.3543 -2.2790 -1.8279
12065TIP3   OH257609   0.502   3.067   2.703 -0.3392  0.1375  0.2878
12065TIP3    H157610   0.410   3.071   2.728 -0.1245  0.0843  1.1127
12065TIP3    H257611   0.532   2.981   2.732  0.3626  0.7503  1.4556
12066TIP3   OH257612   2.870   5.509   4.643 -0.1549  0.2429 -0.4015
12066TIP3    H157613   2.908   5.487   4.728 -0.0111 -0.1160 -0.5547
12066TIP3    H257614   2.792   5.453   4.636 -0.6763  0.9172 -0.1235
12067TIP3   OH257615   3.953   3.082  14.016 -0.4808 -0.5582  0.2117
12067TIP3    H157616   3.968   3.097  14.109  0.9938 -3.8813  0.6864
12067TIP3    H257617   4.028   3.122  13.973 -0.6226  0.0999  0.5724
12068TIP3   OH257618   3.380   4.236  13.579 -0.0646  0.4013  0.2267
12068TIP3    H157619   3.286   4.243  13.563  0.0681  0.6964 -0.4759
12068TIP3    H257620   3.399   4.307  13.641 -0.1768  0.8901 -0.2798
12069TIP3   OH257621   1.671   1.724   4.614 -0.6700  0.5143 -0.2882
12069TIP3    H157622   1.705   1.677   4.691 -2.1790  0.0086  0.1125
12069TIP3    H257623   1.681   1.663   4.542 -1.1586  0.1735 -0.0747
12070TIP3   OH257624   5.380   0.656   5.596 -0.2509 -0.2561 -0.3356
12070TIP3    H157625   5.293   0.641   5.634 -0.6775  0.3641 -1.0423
12070TIP3    H257626   5.440   0.629   5.665 -0.9552 -2.8057 -0.6343
12071TIP3   OH257627   0.179   5.748  13.780  0.2669  0.2510  0.1966
12071TIP3    H157628   0.256   5.731  13.833  1.6665 -0.7723 -2.0112
12071TIP3    H257629   0.200   5.828  13.732 -0.1267  0.1018 -0.2340
12072TIP3   OH257630   0.860   5.224   0.991 -0.2776  0.3682 -0.3636
12072TIP3    H157631   0.804   5.188   1.059 -1.3397  1.4273 -0.6541
12072TIP3    H257632   0.868   5.154   0.926 -1.2382  0.1886 -0.2938
12073TIP3   OH257633   0.372   4.956   2.479  0.1329 -0.6301  0.8232
12073TIP3    H157634   0.359   5.049   2.463  0.2341 -0.7414  0.0960
12073TIP3    H257635   0.397   4.951   2.571 -0.8396 -0.0319  1.1396
12074TIP3   OH257636   6.594   3.863  15.839  0.1459 -0.4422  0.0696
12074TIP3    H157637   6.615   3.771  15.821  0.0416 -0.2209 -1.3391
12074TIP3    H257638   6.639   3.882  15.921 -1.9024 -2.4428  1.7877
12075TIP3   OH257639   4.251   0.071   3.286 -0.4535  0.5818 -0.2337
12075TIP3    H157640   4.165   0.109   3.305 -0.7855 -0.4290  0.3418
12075TIP3    H257641   4.238   0.023   3.204  0.1108  2.1234 -1.2725
12076TIP3   OH257642   1.376   1.200  16.199  0.1551 -0.2910  0.5905
12076TIP3    H157643   1.360   1.151  16.119 -0.8861  0.5528  0.2540
12076TIP3    H257644   1.455   1.251  16.182 -1.2121  1.5150 -0.7463
12077TIP3   OH257645   6.330   3.222   2.921 -0.1923  0.3298 -0.6637
12077TIP3    H157646   6.374   3.274   2.988  0.0566 -0.3729 -0.2738
12077TIP3    H257647   6.327   3.280   2.844 -3.7337  2.5942  0.8887
12078TIP3   OH257648   1.173   2.990   5.406 -0.4823 -0.1658 -0.0621
12078TIP3    H157649   1.267   2.994   5.424 -0.5612 -0.5958  0.4832
12078TIP3    H257650   1.134   2.969   5.491 -0.9629 -1.2074 -0.5271
12079TIP3   OH257651   4.762   2.639  15.911  0.3936 -0.1533 -0.1933
12079TIP3    H157652   4.797   2.705  15.850 -0.5159 -0.8898 -1.5777
12079TIP3    H257653   4.687   2.682  15.952  1.5735  0.6839  1.1899
12080TIP3   OH257654   2.086   4.861   5.452 -0.4105 -0.3500 -0.5793
12080TIP3    H157655   2.133   4.794   5.503 -0.3060 -1.0114 -1.5236
12080TIP3    H257656   2.113   4.944   5.492 -0.2797 -0.8424  0.3945
12081TIP3   OH257657   4.626   6.274   5.202  0.5532  0.7606 -0.4554
12081TIP3    H157658   4.670   6.196   5.170 -1.8933 -0.2390 -1.6123
12081TIP3    H257659   4.552   6.241   5.254  1.2805  2.3564  1.7696
12082TIP3   OH257660   3.621   5.673   6.182 -0.6840  0.4009  0.3294
12082TIP3    H157661   3.656   5.659   6.094  0.6860 -0.6861  0.9965
12082TIP3    H257662   3.646   5.762   6.204 -1.4535  0.8489 -0.5495
12083TIP3   OH257663   5.136   5.559   4.148  0.4546 -0.7505  0.0537
12083TIP3    H157664   5.190   5.637   4.132 -0.4876  0.2812  1.6241
12083TIP3    H257665   5.187   5.505   4.208  0.3361 -0.4333  0.4444
12084TIP3   OH257666   2.383   5.891  16.994  0.3815  0.0212  0.0373
12084TIP3    H157667   2.394   5.800  16.968  0.2965  0.0491 -0.0922
12084TIP3    H257668   2.401   5.941  16.915 -2.3739  0.0228 -0.6624
12085TIP3   OH257669   3.899   0.621   2.921 -0.6514  0.1297  0.3451
12085TIP3    H157670   3.994   0.615   2.922 -0.6589 -0.0381  0.0690
12085TIP3    H257671   3.876   0.623   2.829 -0.7766  2.4959  0.3673
12086TIP3   OH257672   3.071   1.929   4.568  0.2767 -0.4776 -0.0810
12086TIP3    H157673   3.109   1.882   4.642 -0.0376  0.2451  0.5489
12086TIP3    H257674   3.113   1.891   4.491  0.0368 -1.7787  0.4133
12087TIP3   OH257675   0.923   6.677   4.518 -0.2086  0.0406  0.4674
12087TIP3    H157676   0.891   6.762   4.551 -1.2199  0.0790 -0.5544
12087TIP3    H257677   1.014   6.674   4.546  0.6845  2.6599 -1.7033
12088TIP3   OH257678   0.011   2.600  12.007  0.8108  0.8588  0.0931
12088TIP3    H157679   0.033   2.569  11.919  1.0739  0.9555  0.1252
12088TIP3    H257680   0.039   2.529  12.065  0.3063  0.6384  0.0724
12089TIP3   OH257681   2.855   0.239   3.154 -0.2428 -0.2427  0.2940
12089TIP3    H157682   2.879   0.284   3.235  0.5693 -1.9519  1.0711
12089TIP3    H257683   2.896   0.291   3.085  0.8449  0.0983  1.1640
12090TIP3   OH257684   0.479   2.675  13.351  0.2496  0.3104  0.0455
12090TIP3    H157685   0.480   2.661  13.446  2.6728  0.5899  0.1139
12090TIP3    H257686   0.548   2.618  13.318 -0.3848  0.4278 -1.5405
12091TIP3   OH257687   1.194   1.117   1.306 -0.0188 -0.3628  0.5273
12091TIP3    H157688   1.168   1.099   1.396 -0.7250  0.0378  0.4153
12091TIP3    H257689   1.115   1.100   1.255 -0.1771  1.1668  0.2006
12092TIP3   OH257690   2.082   3.110   1.501 -0.4654  0.0804 -0.1897
12092TIP3    H157691   2.142   3.177   1.468  0.5489  1.2009  3.3925
12092TIP3    H257692   2.129   3.070   1.574 -2.6376 -1.7424  0.3356
12093TIP3   OH257693   1.202   0.594   2.434  0.3890 -0.2971  0.2265
12093TIP3    H157694   1.179   0.610   2.343  0.7643 -0.1500  0.1566
12093TIP3    H257695   1.233   0.503   2.435  1.1516 -0.0475  0.0516
12094TIP3   OH257696   2.222   2.012   3.592  0.3076 -0.0666  0.5130
12094TIP3    H157697   2.186   2.087   3.640 -0.0979  1.1803 -1.6237
12094TIP3    H257698   2.145   1.964   3.562  0.3612  1.1793 -1.8683
12095TIP3   OH257699   1.376   3.730  11.608  0.2288  0.4214 -0.0084
12095TIP3    H157700   1.391   3.824  11.603 -3.4073  1.3965  2.8969
12095TIP3    H257701   1.422   3.702  11.687 -1.6169  0.6091  1.1830
12096TIP3   OH257702   2.848   6.663   1.077  0.0220  0.3339 -0.0878
12096TIP3    H157703   2.767   6.665   1.127 -1.2423  0.9262 -2.0647
12096TIP3    H257704   2.903   6.730   1.119 -0.9200  0.7000  0.6004
12097TIP3   OH257705   3.344   3.653   1.634  0.4651 -0.7237  0.0789
12097TIP3    H157706   3.321   3.627   1.545 -0.9099 -0.6875  0.4088
12097TIP3    H257707   3.403   3.728   1.622 -0.9640  0.3033 -0.8064
12098TIP3   OH257708   2.739   1.405  13.663 -0.0260  0.1931  0.4599
12098TIP3    H157709   2.645   1.407  13.644 -0.4602 -0.1300  2.3292
12098TIP3    H257710   2.774   1.336  13.607 -0.9567  0.0971 -0.0248
12099TIP3   OH257711   4.234   0.155   5.550  0.2001  0.3890  0.2939
12099TIP3    H157712   4.209   0.082   5.606  1.5899  0.4435  1.0500
12099TIP3    H257713   4.304   0.120   5.494  0.2459  0.8889  0.0289
12100TIP3   OH257714   4.914   2.874  15.785  0.1925  0.7897  0.0188
12100TIP3    H157715   5.007   2.854  15.773  0.1208 -0.4872  1.2398
12100TIP3    H257716   4.881   2.889  15.697  1.2966 -0.0125 -0.5595
12101TIP3   OH257717   2.734   2.063  16.552  0.0349 -0.8411  0.0065
12101TIP3    H157718   2.764   2.075  16.462 -0.1470 -2.4136 -0.2945
12101TIP3    H257719   2.654   2.115  16.558  0.2484 -0.4286 -0.6278
12102TIP3   OH257720   3.939   5.900   3.751 -1.2087  0.1315  0.2408
12102TIP3    H157721   3.969   5.980   3.707  0.6238 -0.3565  0.5405
12102TIP3    H257722   3.906   5.845   3.680 -1.2461  0.6147 -0.1245
12103TIP3   OH257723   1.883   4.075   2.192  0.1567 -0.0855  0.2319
12103TIP3    H157724   1.910   4.075   2.100  1.9743 -0.5923  0.7279
12103TIP3    H257725   1.962   4.096   2.240 -0.9285  0.8983  1.6758
12104TIP3   OH257726   5.418   3.126  11.239  0.0105 -0.3040 -0.3893
12104TIP3    H157727   5.485   3.156  11.300  0.8465 -0.0821 -1.3775
12104TIP3    H257728   5.336   3.156  11.277  0.5854  0.6362  0.1548
12105TIP3   OH257729   4.745   4.701   3.369 -0.4648  0.4563 -0.1691
12105TIP3    H157730   4.829   4.737   3.341  0.1826  1.2320  2.4776
12105TIP3    H257731   4.695   4.777   3.399 -0.4028 -0.3521  2.2781
12106TIP3   OH257732   4.070   0.582   0.181 -0.0431  0.0591 -0.3783
12106TIP3    H157733   3.988   0.598   0.227  0.0404  1.3886 -0.6410
12106TIP3    H257734   4.135   0.636   0.227  1.2688 -2.6806  1.2965
12107TIP3   OH257735   4.746   1.513   5.644  0.1316 -0.4861  0.5105
12107TIP3    H157736   4.830   1.516   5.691  0.5089 -1.4969 -0.0783
12107TIP3    H257737   4.768   1.533   5.553 -0.2253 -0.9864  0.3104
12108TIP3   OH257738   0.265   1.116   0.864 -0.5710 -0.2882 -0.1030
12108TIP3    H157739   0.175   1.092   0.840 -0.0461  0.2678 -3.0951
12108TIP3    H257740   0.255   1.195   0.917 -1.8608 -0.7846  0.4457
12109TIP3   OH257741   0.503   1.549  13.166 -0.9411  0.1606 -0.7629
12109TIP3    H157742   0.492   1.513  13.078  0.0324 -0.5493 -0.6153
12109TIP3    H257743   0.514   1.643  13.151  0.3517 -0.0802 -1.5308
12110TIP3   OH257744   3.838   6.390   6.758  0.3173  0.4038  0.0736
12110TIP3    H157745   3.777   6.383   6.685  1.4428  0.0326 -0.8741
12110TIP3    H257746   3.917   6.345   6.727  0.7538  0.0451  1.6051
12111TIP3   OH257747   3.549   0.251  16.092  0.3812  0.4971  0.2054
12111TIP3    H157748   3.477   0.303  16.130  0.1151  0.1073  0.2398
12111TIP3    H257749   3.533   0.255  15.998  0.0324  0.0051  0.2423
12112TIP3   OH257750   3.042   5.307   5.495 -0.9908  0.1179  0.1676
12112TIP3    H157751   3.138   5.313   5.505 -1.0861  1.7791  0.4043
12112TIP3    H257752   3.025   5.214   5.483  0.6873 -0.1883 -0.1126
12113TIP3   OH257753   0.999   6.724   0.798  0.3016 -0.0063  0.0917
12113TIP3    H157754   1.007   6.680   0.882  1.1801 -2.1363 -1.0445
12113TIP3    H257755   0.929   6.677   0.753 -0.9339  1.8096 -0.0331
12114TIP3   OH257756   5.540   0.108   5.985  0.0001 -0.4720  0.3302
12114TIP3    H157757   5.608   0.175   5.974  2.8553 -3.0180  0.7949
12114TIP3    H257758   5.541   0.088   6.079 -1.5859 -0.4639  0.3740
12115TIP3   OH257759   6.129   2.809  14.041  0.6399 -0.0358  0.1466
12115TIP3    H157760   6.048   2.859  14.048  0.5801 -0.2015  0.6637
12115TIP3    H257761   6.173   2.823  14.125 -0.3241 -2.4875  1.1288
12116TIP3   OH257762   3.747   2.019  16.525  0.1219  0.0351  0.3026
12116TIP3    H157763   3.834   2.019  16.486 -0.7057  1.5038 -1.7335
12116TIP3    H257764   3.694   1.968  16.463 -1.0191  1.5414 -0.0094
12117TIP3   OH257765   5.376   3.701   0.831  0.6212  0.4291  0.0323
12117TIP3    H157766   5.399   3.683   0.922 -0.5422 -2.5500 -0.1587
12117TIP3    H257767   5.321   3.780   0.836 -1.7476 -1.2044  2.3350
12118TIP3   OH257768   4.760   3.063  15.902 -0.1161  0.2186  0.2295
12118TIP3    H157769   4.743   3.117  15.825 -1.7306  0.4001  0.6678
12118TIP3    H257770   4.787   2.979  15.867 -0.1138  0.5219 -0.5227
12119TIP3   OH257771   3.423   0.906   6.131  0.8166 -0.8191  0.0801
12119TIP3    H157772   3.504   0.866   6.164  0.6413 -0.7959  0.5439
12119TIP3    H257773   3.368   0.916   6.208 -0.8065 -3.5076 -0.5737
12120TIP3   OH257774   5.301   5.356  12.689  0.0360 -0.3021 -0.2722
12120TIP3    H157775   5.244   5.282  12.667 -1.1386  0.3991  0.3615
12120TIP3    H257776   5.375   5.347  12.628 -0.9030 -1.0268 -1.3631
12121TIP3   OH257777   6.548   2.629   2.653  0.6690 -0.5681  0.2598
12121TIP3    H157778   6.630   2.641   2.699  0.3445 -0.4175  0.8092
12121TIP3    H257779   6.560   2.675   2.570  1.0979 -0.4579  0.3805
12122TIP3   OH257780   4.239   3.997  12.089  0.7619  0.1691  0.2097
12122TIP3    H157781   4.196   4.081  12.076 -2.1182 -0.9352  1.7267
12122TIP3    H257782   4.304   4.013  12.157 -0.5927  0.9791  1.3742
12123TIP3   OH257783   2.891   0.973   5.208 -0.9278 -0.3599  0.4116
12123TIP3    H157784   2.879   0.911   5.280  1.0362  1.0409  2.0453
12123TIP3    H257785   2.985   0.976   5.195 -1.2263 -0.4817 -2.2160
12124TIP3   OH257786   4.360   2.130  14.682 -0.5637  0.4307  0.9802
12124TIP3    H157787   4.332   2.170  14.765  2.3533  0.8052  1.9047
12124TIP3    H257788   4.384   2.205  14.627  0.0537  0.1282  0.8288
12125TIP3   OH257789   5.802   1.931   2.409  0.7189  0.1446 -0.7259
12125TIP3    H157790   5.843   2.012   2.437 -0.1908  0.5258 -0.4597
12125TIP3    H257791   5.788   1.882   2.490  2.2566 -0.7804 -0.9806
12126TIP3   OH257792   5.624   0.257  16.136 -0.3552  0.1484  0.4474
12126TIP3    H157793   5.650   0.341  16.099  0.2968 -0.6895 -1.1005
12126TIP3    H257794   5.703   0.224  16.179 -0.1878 -0.3107 -0.2044
12127TIP3   OH257795   4.745   5.269   1.431 -0.2079  0.2139  0.6649
12127TIP3    H157796   4.668   5.230   1.473  0.4808 -0.3490  1.4490
12127TIP3    H257797   4.800   5.194   1.407 -0.3740  0.5561 -0.8604
12128TIP3   OH257798   3.091   4.926   2.628  0.2080 -0.3587  0.4266
12128TIP3    H157799   3.168   4.981   2.618  0.3233 -0.5310  0.3712
12128TIP3    H257800   3.109   4.872   2.705  0.2444 -0.5697  0.2682
12129TIP3   OH257801   2.794   0.077  15.982  0.3810  0.7163 -0.0440
12129TIP3    H157802   2.881   0.044  16.005 -1.2511 -2.3914  2.3776
12129TIP3    H257803   2.782   0.154  16.038 -0.0682 -1.5679  3.2925
12130TIP3   OH257804   3.197   4.220   4.209 -0.1790 -0.8510  0.8159
12130TIP3    H157805   3.234   4.134   4.191 -0.5634 -0.6602 -1.1331
12130TIP3    H257806   3.273   4.276   4.225  0.2225 -1.1108 -0.0799
12131TIP3   OH257807   5.815   4.520  14.587 -0.4155 -0.1009  1.2099
12131TIP3    H157808   5.743   4.457  14.580  0.7565 -1.3312 -0.7507
12131TIP3    H257809   5.894   4.468  14.572  0.6639  1.6897  0.3617
12132TIP3   OH257810   1.857   3.119  11.974  0.4165 -0.2571 -0.1178
12132TIP3    H157811   1.931   3.097  12.030  0.8644 -2.6851 -1.5229
12132TIP3    H257812   1.895   3.135  11.888 -0.3526  2.5115 -0.0401
12133TIP3   OH257813   1.039   0.709  12.801 -0.1332 -0.2799  0.7844
12133TIP3    H157814   0.981   0.779  12.834  1.0254  1.6840 -1.1268
12133TIP3    H257815   1.020   0.705  12.707  1.2121 -1.2180  0.5360
12134TIP3   OH257816   5.585   6.696   2.240  0.8769 -0.3779  0.2632
12134TIP3    H157817   5.564   6.745   2.160 -0.3658 -0.4749  0.5117
12134TIP3    H257818   5.544   6.747   2.310 -0.0519 -1.5120  0.5768
12135TIP3   OH257819   0.160   3.151   1.768 -0.2408 -0.5573  0.3866
12135TIP3    H157820   0.138   3.120   1.681 -0.9959  0.1836  0.2973
12135TIP3    H257821   0.170   3.072   1.821 -1.8954 -0.9776  0.1250
12136TIP3   OH257822   4.974   4.543  16.022 -0.1171  1.2106 -0.1645
12136TIP3    H157823   5.050   4.510  16.069 -1.2859 -0.5147  0.6288
12136TIP3    H257824   4.980   4.502  15.935  0.3438  1.8224 -0.4242
12137TIP3   OH257825   1.539   5.612  13.356  0.1678  0.5331 -0.0183
12137TIP3    H157826   1.497   5.608  13.270  1.2393  1.6908 -0.6313
12137TIP3    H257827   1.610   5.547  13.351  0.5379  0.9460 -0.1975
12138TIP3   OH257828   3.977   5.342  13.800 -0.3889 -0.1446  0.0319
12138TIP3    H157829   3.918   5.403  13.758  0.3218  0.3333 -0.2922
12138TIP3    H257830   3.927   5.260  13.806 -1.3062  0.4259  0.3716
12139TIP3   OH257831   1.212   1.619  15.709 -0.1750 -0.1299  0.7163
12139TIP3    H157832   1.257   1.679  15.650  0.2789 -0.3958  0.7895
12139TIP3    H257833   1.252   1.534  15.692 -1.9462 -0.7560 -0.5882
12140TIP3   OH257834   2.013   1.377   2.830 -0.2980 -0.5461  0.4488
12140TIP3    H157835   1.965   1.331   2.761  0.3858 -1.4623  0.5583
12140TIP3    H257836   2.048   1.455   2.787 -1.4307 -0.1267  0.2406
12141TIP3   OH257837   5.854   6.597  11.643 -0.1758  0.2125 -0.0622
12141TIP3    H157838   5.897   6.524  11.598  0.1291 -0.6702  1.5683
12141TIP3    H257839   5.838   6.564  11.731 -0.0307  2.1460  0.7322
12142TIP3   OH257840   0.803   4.233   6.378  0.8004 -0.1470  0.6242
12142TIP3    H157841   0.742   4.306   6.369  1.3784  0.2918  0.2372
12142TIP3    H257842   0.876   4.269   6.428  2.1486  0.2067 -1.5007
12143TIP3   OH257843   0.926   4.235  15.686  0.1754 -0.5370  0.7454
12143TIP3    H157844   0.848   4.291  15.692 -0.7596 -1.6849 -0.1412
12143TIP3    H257845   0.907   4.176  15.613  2.4561  0.0004 -0.3798
12144TIP3   OH257846   4.511   2.926   2.706 -0.0241 -0.2175  0.3959
12144TIP3    H157847   4.498   2.955   2.796 -0.7993  0.4874  0.0627
12144TIP3    H257848   4.536   3.005   2.659  0.0045 -0.5126 -0.0865
12145TIP3   OH257849   2.459   6.300  14.459 -0.5026  0.1294 -0.3149
12145TIP3    H157850   2.454   6.379  14.512 -1.5680 -1.5017  2.2011
12145TIP3    H257851   2.551   6.294  14.433 -0.0522  1.2544  0.9291
12146TIP3   OH257852   0.684   0.679   0.011 -0.0360  0.0818 -0.6178
12146TIP3    H157853   0.676   0.651  -0.081  0.5755 -1.2161 -0.3053
12146TIP3    H257854   0.777   0.699   0.021 -0.0243 -0.2109 -0.1607
12147TIP3   OH257855   2.170   3.963  13.895  0.4460 -0.0731  0.2388
12147TIP3    H157856   2.104   4.001  13.836 -0.6204  0.4957  1.7428
12147TIP3    H257857   2.254   3.995  13.860 -0.2638  1.6698 -0.0024
12148TIP3   OH257858   4.473   0.002  16.375  0.5040  0.1343  0.2474
12148TIP3    H157859   4.529  -0.025  16.448 -0.2223  2.1751  1.6511
12148TIP3    H257860   4.533   0.011  16.301  1.2391 -2.1393  0.4772
12149TIP3   OH257861   6.084   3.098  17.100  0.1479 -0.1342  0.1943
12149TIP3    H157862   6.171   3.085  17.063 -0.5912 -2.2472 -0.9578
12149TIP3    H257863   6.040   3.013  17.090 -1.5190  0.3894  2.2253
12150TIP3   OH257864   2.350   3.073   2.007  0.7623 -0.0205 -0.2354
12150TIP3    H157865   2.302   3.141   1.960  2.0770  1.5670  0.6231
12150TIP3    H257866   2.440   3.082   1.977  0.7835 -2.2635 -1.0457
12151TIP3   OH257867   0.029   5.596   2.986  0.3606  0.3547  0.6729
12151TIP3    H157868   0.076   5.655   3.045  0.9402  0.3461  0.2321
12151TIP3    H257869  -0.014   5.533   3.044  0.7785  0.4471  1.0897
12152TIP3   OH257870   2.024   1.703  17.179  0.1237 -0.0444  0.0362
12152TIP3    H157871   2.007   1.668  17.267 -1.0252 -0.8105 -0.4661
12152TIP3    H257872   2.097   1.651  17.146 -0.3282 -0.6895  0.0310
12153TIP3   OH257873   3.941   4.260   3.865  0.8220  0.1573 -0.0006
12153TIP3    H157874   3.852   4.271   3.898  0.8108  0.6388 -0.1823
12153TIP3    H257875   3.996   4.304   3.930  0.9947 -0.7857  0.4951
12154TIP3   OH257876   6.479   5.553   0.476  0.2141  0.5600  0.8291
12154TIP3    H157877   6.511   5.521   0.560  0.6544  1.7504  1.1431
12154TIP3    H257878   6.543   5.619   0.450  0.5248 -0.3489 -0.8497
12155TIP3   OH257879   2.222   3.307   1.852  0.0512 -0.2718  0.6124
12155TIP3    H157880   2.237   3.275   1.763 -0.6895 -0.8791  0.6864
12155TIP3    H257881   2.233   3.401   1.847 -0.2696 -0.2717 -0.1893
12156TIP3   OH257882   4.313   2.037   4.019 -0.4128  0.1559  0.3250
12156TIP3    H157883   4.313   2.082   3.934 -0.8028 -1.5998 -0.6649
12156TIP3    H257884   4.363   2.094   4.077 -0.4126  1.5610 -1.0048
12157TIP3   OH257885   3.800   1.696  11.796 -0.4138  0.4763 -0.4986
12157TIP3    H157886   3.851   1.644  11.858  0.2507 -0.4736 -1.7960
12157TIP3    H257887   3.771   1.634  11.729  2.1339  1.9726 -3.2481
12158TIP3   OH257888   5.261   3.356   0.522  0.6870  0.2915  0.4972
12158TIP3    H157889   5.223   3.268   0.529 -3.5861  1.5030 -2.7326
12158TIP3    H257890   5.222   3.405   0.594  1.8338 -0.0662  1.3750
12159TIP3   OH257891   0.380   6.515  12.070  0.1569  0.4203  0.2588
12159TIP3    H157892   0.332   6.596  12.087  0.0695  1.4171 -3.7196
12159TIP3    H257893   0.469   6.544  12.047  0.9751 -0.9008  1.6297
12160TIP3   OH257894   4.945   4.163  13.762  0.4212 -0.4194  0.2589
12160TIP3    H157895   5.004   4.181  13.834  0.7184 -0.0636 -0.0672
12160TIP3    H257896   4.917   4.250  13.732 -1.3119 -0.5863  1.2572
12161TIP3   OH257897   2.745   5.553  15.452 -0.6553 -0.6124  0.2789
12161TIP3    H157898   2.786   5.595  15.377 -1.2791 -0.2735  0.1202
12161TIP3    H257899   2.818   5.512  15.499 -0.4233 -2.1658 -1.3342
12162TIP3   OH257900   0.297   5.778   5.559  0.5201  0.1171 -0.2182
12162TIP3    H157901   0.392   5.791   5.565  0.6486 -0.8097 -0.2235
12162TIP3    H257902   0.280   5.699   5.610 -0.1095 -0.3563 -1.1386
12163TIP3   OH257903   0.478   1.618   4.776  0.2388  0.4562 -0.1045
12163TIP3    H157904   0.410   1.557   4.748 -0.3457  0.7263  0.6737
12163TIP3    H257905   0.495   1.594   4.867  0.2469  1.2187  0.1055
12164TIP3   OH257906   3.574   6.016  14.291  0.2271  0.0609 -0.3944
12164TIP3    H157907   3.612   6.008  14.378 -1.0283 -0.0029  0.1754
12164TIP3    H257908   3.553   5.926  14.265 -0.7904  0.1925 -0.0916
12165TIP3   OH257909   5.402   3.508   1.981 -0.6563 -0.1498  0.0774
12165TIP3    H157910   5.355   3.467   2.054 -0.8677  2.0899  1.2853
12165TIP3    H257911   5.344   3.498   1.906 -1.4121 -0.6363  0.7153
12166TIP3   OH257912   1.065   2.978   4.661 -0.0058  0.7751  0.2279
12166TIP3    H157913   1.135   3.034   4.694 -0.7230  1.1681  1.1486
12166TIP3    H257914   1.028   3.026   4.587  0.1127  0.9885  0.3062
12167TIP3   OH257915   3.838   3.310   4.172 -0.5162  0.0265 -0.1000
12167TIP3    H157916   3.818   3.289   4.263  0.8808  1.3435  0.5565
12167TIP3    H257917   3.835   3.406   4.169  0.6538  0.0469 -1.1378
12168TIP3   OH257918   3.998   4.834  14.699  0.0504 -0.0299 -0.5110
12168TIP3    H157919   3.975   4.758  14.752  1.4341 -0.3401 -0.3063
12168TIP3    H257920   4.004   4.800  14.610 -2.7313  0.5842 -1.0231
12169TIP3   OH257921   6.720   0.175   2.943 -0.2598  0.2924 -0.8263
12169TIP3    H157922   6.659   0.123   2.994  1.5494 -0.6121  0.5304
12169TIP3    H257923   6.749   0.117   2.872  1.4219 -0.4903  0.4304
12170TIP3   OH257924   1.770   3.768   5.553  0.8324 -0.1322 -0.0101
12170TIP3    H157925   1.788   3.675   5.541  0.6169 -0.2464  0.5203
12170TIP3    H257926   1.822   3.811   5.486  0.0095 -0.7120 -1.0588
12171TIP3   OH257927   3.740   4.016   3.733  1.0451 -0.1248  0.1011
12171TIP3    H157928   3.666   3.960   3.709  0.5876  0.5289 -0.0359
12171TIP3    H257929   3.757   3.996   3.825  1.2832 -0.9291 -0.1098
12172TIP3   OH257930   4.413   5.559   2.236 -0.5188  0.2059 -0.1620
12172TIP3    H157931   4.351   5.628   2.212 -0.6274  0.7307  1.5012
12172TIP3    H257932   4.447   5.527   2.152 -2.5863  0.3171 -1.1059
12173TIP3   OH257933   4.597   4.776   5.728 -0.2867 -0.1396 -0.1484
12173TIP3    H157934   4.566   4.688   5.707 -0.9353 -0.1345  0.7053
12173TIP3    H257935   4.683   4.762   5.768 -0.0078 -0.3122 -0.8066
12174TIP3   OH257936   0.853   2.353  10.918  0.4969 -0.1525  0.0229
12174TIP3    H157937   0.870   2.442  10.887 -2.0998  0.2406 -0.4288
12174TIP3    H257938   0.915   2.341  10.990 -0.3054  2.6936  1.3034
12175TIP3   OH257939   3.465   2.117   3.941  0.1263  0.6855 -0.3740
12175TIP3    H157940   3.517   2.164   3.876  2.0973  0.5037  1.0002
12175TIP3    H257941   3.502   2.143   4.026 -0.2408 -1.5488  0.5459
12176TIP3   OH257942   4.210   0.858  16.655 -0.1342 -0.3465 -0.1383
12176TIP3    H157943   4.186   0.947  16.679  0.4846 -0.4412  0.8997
12176TIP3    H257944   4.299   0.866  16.621  1.1064 -0.8729  2.6342
12177TIP3   OH257945   6.049   2.503   3.352  0.3829  0.2816 -0.8462
12177TIP3    H157946   5.962   2.506   3.391  0.0592  2.4080 -1.5725
12177TIP3    H257947   6.091   2.584   3.382  1.7791 -0.2664 -1.2408
12178TIP3   OH257948   4.060   0.035  15.039  0.2080  0.5883 -0.2319
12178TIP3    H157949   4.151   0.008  15.032  0.0861  0.4276 -1.3877
12178TIP3    H257950   4.010  -0.042  15.009 -0.2619  0.9810 -0.4723
12179TIP3   OH257951   5.146   5.950  15.594 -0.3158  0.1460 -0.5427
12179TIP3    H157952   5.191   6.008  15.532  0.0190  0.3409 -0.1226
12179TIP3    H257953   5.068   5.921  15.547  1.0476 -1.5195 -1.9199
12180TIP3   OH257954   3.843   5.551   3.016 -0.5362  0.8079 -0.1089
12180TIP3    H157955   3.838   5.465   3.057  0.1533  0.7266 -0.1827
12180TIP3    H257956   3.913   5.597   3.064 -1.3865  1.5936  0.4132
12181TIP3   OH257957   3.847   3.221  14.594 -0.2186  0.1844 -0.4897
12181TIP3    H157958   3.942   3.225  14.586 -0.4308  0.7863 -5.8124
12181TIP3    H257959   3.819   3.312  14.595 -0.9076  0.0802  2.6998
12182TIP3   OH257960   2.463   3.114  17.082  0.1946 -0.0707 -0.2330
12182TIP3    H157961   2.503   3.031  17.055  0.8242  0.9762 -2.7963
12182TIP3    H257962   2.435   3.155  17.000 -0.0473  2.2891  0.9542
12183TIP3   OH257963   3.152   2.364   5.688 -0.4033 -0.1385  0.7616
12183TIP3    H157964   3.119   2.280   5.720 -1.1074 -0.5941 -1.0457
12183TIP3    H257965   3.080   2.400   5.636 -0.4062  1.9705  2.0879
12184TIP3   OH257966   6.136   3.629   3.763  0.2081  0.1192 -0.6306
12184TIP3    H157967   6.193   3.705   3.754 -0.6908  1.0740  1.2124
12184TIP3    H257968   6.102   3.635   3.852 -0.1802 -2.2531 -0.5577
12185TIP3   OH257969   0.723   5.068  15.205 -0.0990 -0.1820  0.5836
12185TIP3    H157970   0.649   5.007  15.203  0.8060 -1.2943 -0.1498
12185TIP3    H257971   0.758   5.061  15.294 -1.7493  1.4904  1.4290
12186TIP3   OH257972   2.891   4.058   4.616 -0.5027 -0.2953 -0.3558
12186TIP3    H157973   2.835   3.996   4.570  0.7471 -0.9364 -1.0779
12186TIP3    H257974   2.943   4.100   4.548  1.0328 -0.9028  0.3870
12187TIP3   OH257975   0.134   2.125   5.249  0.2912 -0.2768 -0.7542
12187TIP3    H157976   0.177   2.211   5.247  1.8865 -1.0101  0.3575
12187TIP3    H257977   0.070   2.129   5.178 -1.0757  2.5357  0.4652
12188TIP3   OH257978   2.443   5.191   0.034  0.4463 -0.4375  0.5231
12188TIP3    H157979   2.359   5.161   0.068  0.5866  1.9134  3.2856
12188TIP3    H257980   2.419   5.256  -0.033 -0.0063  0.6503  1.7010
12189TIP3   OH257981   2.311   4.756  14.875  0.8074 -0.1231  0.8977
12189TIP3    H157982   2.398   4.735  14.841  0.8709  1.8764 -0.3290
12189TIP3    H257983   2.318   4.742  14.970  2.0552 -1.2059  0.6758
12190TIP3   OH257984   4.612   6.530  12.406 -0.4155  0.0284  0.3847
12190TIP3    H157985   4.618   6.435  12.395 -0.1632 -0.0408  1.0927
12190TIP3    H257986   4.518   6.549  12.409 -0.5212  0.0039 -1.3404
12191TIP3   OH257987   3.424   0.405   3.824 -0.0560  0.1236 -0.3741
12191TIP3    H157988   3.345   0.366   3.787 -0.2903 -0.5715  0.7956
12191TIP3    H257989   3.492   0.391   3.758 -0.2578 -1.8041 -0.2104
12192TIP3   OH257990   5.213   3.802   3.854  0.8183 -0.7951  0.3328
12192TIP3    H157991   5.301   3.766   3.869  1.0442 -0.8986 -1.1591
12192TIP3    H257992   5.186   3.766   3.770  0.5747  1.6188 -0.6781
12193TIP3   OH257993   1.139   1.760  16.775 -0.6614  0.8231  0.5363
12193TIP3    H157994   1.162   1.667  16.763 -1.5143  0.7298 -0.5225
12193TIP3    H257995   1.201   1.791  16.841  0.9158 -0.0104 -0.4755
12194TIP3   OH257996   2.683   4.576   5.600 -0.1931  0.4601 -0.4079
12194TIP3    H157997   2.676   4.665   5.634 -0.4387  0.0389  0.7046
12194TIP3    H257998   2.734   4.584   5.520 -1.4651  1.7920 -1.1306
12195TIP3   OH257999   4.795   0.194   0.137  0.1956  1.0299 -0.2325
12195TIP3    H158000   4.746   0.274   0.158 -0.6183  0.5490 -0.2664
12195TIP3    H258001   4.730   0.137   0.096  0.5926  0.0733  0.4497
12196TIP3   OH258002   0.957   4.436  17.304  0.0414  0.1114 -0.0156
12196TIP3    H158003   0.888   4.439  17.237 -1.3922  2.9686  1.4273
12196TIP3    H258004   0.915   4.395  17.380  0.6708 -0.1696  0.1890
12197TIP3   OH258005   6.162   3.356  16.591  0.2727  1.0526  0.0914
12197TIP3    H158006   6.164   3.445  16.556  0.3507  0.9111 -0.2728
12197TIP3    H258007   6.249   3.321  16.572  0.8405  1.4724  1.7866
12198TIP3   OH258008   3.817   3.159  10.782 -0.4849 -0.3849  0.3796
12198TIP3    H158009   3.812   3.254  10.793  0.6888 -0.2094 -0.3841
12198TIP3    H258010   3.910   3.139  10.794 -0.7206 -1.4297  0.4906
12199TIP3   OH258011   6.215   5.025  11.779  0.2827  0.0137  0.1264
12199TIP3    H158012   6.202   5.022  11.684  2.9347 -0.4865 -0.3311
12199TIP3    H258013   6.170   5.103  11.808 -0.6230  0.1553 -1.5416
12200TIP3   OH258014   0.411   0.794   5.547 -0.2619  0.2595  0.1172
12200TIP3    H158015   0.364   0.874   5.570  1.6769  1.4743  0.1015
12200TIP3    H258016   0.367   0.725   5.597 -1.1925  1.5366  1.1343
12201TIP3   OH258017   3.513   4.385   1.420 -0.5941 -0.1312 -0.0518
12201TIP3    H158018   3.478   4.305   1.461 -1.0633 -0.3528 -0.8675
12201TIP3    H258019   3.523   4.446   1.493 -1.6109 -0.4492  0.3837
12202TIP3   OH258020   6.670   2.428  15.884 -0.5623 -0.2681  0.1605
12202TIP3    H158021   6.625   2.344  15.873 -1.3210  0.3820 -2.4943
12202TIP3    H258022   6.709   2.446  15.798  2.6916  0.4450  1.6099
12203TIP3   OH258023   0.570   3.830  12.031  0.4884 -0.3687 -0.1856
12203TIP3    H158024   0.602   3.742  12.010  1.9171 -0.6671  2.7468
12203TIP3    H258025   0.532   3.821  12.118 -1.9218  1.4212 -0.9406
12204TIP3   OH258026   3.174   1.401   2.204  0.0768 -0.2613  0.3354
12204TIP3    H158027   3.129   1.351   2.273 -0.9077 -1.0148 -0.8160
12204TIP3    H258028   3.237   1.339   2.167  1.4273  0.4890  1.2696
12205TIP3   OH258029   2.183   1.055  15.726 -0.3726  0.2469  0.1964
12205TIP3    H158030   2.220   1.045  15.638  2.3006 -0.7046  1.3340
12205TIP3    H258031   2.164   1.149  15.733  2.8874  1.0382 -0.1821
12206TIP3   OH258032   5.651   3.922   5.606 -0.2475 -0.1053  0.0768
12206TIP3    H158033   5.721   3.954   5.663 -0.7830 -1.0146  1.2936
12206TIP3    H258034   5.657   3.976   5.528  0.9194  0.7630  0.7366
12207TIP3   OH258035   1.193   3.566   0.465 -0.1042 -0.6065 -0.1415
12207TIP3    H158036   1.166   3.475   0.455 -0.8260 -0.2303 -2.1163
12207TIP3    H258037   1.157   3.610   0.388  0.1295  1.3788  0.8235
12208TIP3   OH258038   0.436   0.449  13.682 -0.0631  0.3352 -0.1481
12208TIP3    H158039   0.480   0.449  13.767  0.8868 -1.8214 -0.5736
12208TIP3    H258040   0.494   0.499  13.625 -1.6411  3.5271  0.7964
12209TIP3   OH258041   5.799   4.246   5.743  0.2296  0.3165  0.5046
12209TIP3    H158042   5.728   4.287   5.694 -0.1014 -1.4423 -0.5509
12209TIP3    H258043   5.864   4.316   5.755 -0.3122  1.1538 -1.2092
12210TIP3   OH258044   0.571   4.752   3.860 -0.3097  0.0508  0.4129
12210TIP3    H158045   0.567   4.750   3.765 -3.5444  2.4317  0.3282
12210TIP3    H258046   0.617   4.833   3.881  0.0177 -0.2514  0.8849
12211TIP3   OH258047   5.373   0.468  15.542 -0.3409  0.1141 -0.3510
12211TIP3    H158048   5.423   0.548  15.561 -1.6624  1.2324 -1.3303
12211TIP3    H258049   5.427   0.420  15.479  0.8236 -0.1747  0.8299
12212TIP3   OH258050   0.171   1.915  12.637 -0.1811  0.1345 -0.1435
12212TIP3    H158051   0.177   2.008  12.613 -1.1100  0.5415  1.1098
12212TIP3    H258052   0.233   1.871  12.578 -1.8356  1.1355 -2.7859
12213TIP3   OH258053   1.456   6.648  14.468 -0.3168 -0.5676 -0.4024
12213TIP3    H158054   1.392   6.586  14.430  0.7703 -1.6209 -0.5784
12213TIP3    H258055   1.456   6.629  14.561  0.1267 -0.9520 -0.4765
12214TIP3   OH258056   6.310   2.853   5.400  0.0790  0.6773  0.2452
12214TIP3    H158057   6.394   2.885   5.367  0.3345 -0.3260 -0.1320
12214TIP3    H258058   6.266   2.819   5.322 -0.0480 -0.1336  0.6633
12215TIP3   OH258059   2.466   5.506  15.975 -0.2919 -0.4645  0.7307
12215TIP3    H158060   2.374   5.486  15.993  0.0348 -2.5945  0.2475
12215TIP3    H258061   2.489   5.449  15.902  0.7813  1.8047 -0.8154
12216TIP3   OH258062   2.131   6.065   0.868  0.6089  0.2315 -0.0135
12216TIP3    H158063   2.196   6.046   0.935  0.3916 -1.3101 -0.2233
12216TIP3    H258064   2.092   6.148   0.896  0.9900 -0.0443  1.4043
12217TIP3   OH258065   3.307   4.831   5.032  0.5976 -0.2771  0.2594
12217TIP3    H158066   3.257   4.793   4.959  1.0551  0.1771 -0.2978
12217TIP3    H258067   3.266   4.916   5.048 -0.9002 -1.2567  1.9950
12218TIP3   OH258068   3.708   5.509   4.045  0.2424 -0.4900  0.3101
12218TIP3    H158069   3.630   5.565   4.049 -0.4401 -1.3622 -0.5031
12218TIP3    H258070   3.769   5.550   4.106  0.1663  1.7436 -1.0082
12219TIP3   OH258071   3.989   3.356  11.750 -0.3343  0.5467 -0.1679
12219TIP3    H158072   4.029   3.386  11.832 -1.0825 -0.4466  0.5862
12219TIP3    H258073   3.953   3.436  11.711  0.5114  1.1187  0.1878
12220TIP3   OH258074   1.386   5.419  10.921  0.3346 -0.0150 -0.3485
12220TIP3    H158075   1.346   5.504  10.902  0.5936  0.0432 -0.6507
12220TIP3    H258076   1.364   5.364  10.845  1.3392  0.2063 -0.8249
12221TIP3   OH258077   4.791   2.962   0.182 -0.5511 -0.1715 -0.2604
12221TIP3    H158078   4.697   2.950   0.189 -0.5693 -0.4999 -1.0249
12221TIP3    H258079   4.803   3.057   0.181 -0.8565 -0.1279 -0.0364
12222TIP3   OH258080   5.506   5.168   3.601 -0.2008  0.4538  0.0622
12222TIP3    H158081   5.537   5.116   3.675 -1.8181  1.6966  1.6807
12222TIP3    H258082   5.411   5.161   3.604 -0.3198  0.2380 -2.1781
12223TIP3   OH258083   4.385   1.093   4.947 -0.1749  0.5643 -0.1229
12223TIP3    H158084   4.395   1.130   4.860 -1.0253  0.7033 -0.1717
12223TIP3    H258085   4.472   1.101   4.987  0.0022  1.3299 -0.6327
12224TIP3   OH258086   1.897   4.835   3.672 -0.2150  0.1033 -0.9396
12224TIP3    H158087   1.829   4.838   3.740 -0.3800 -1.8106 -0.9812
12224TIP3    H258088   1.899   4.744   3.643  3.8515 -0.5108  0.5869
12225TIP3   OH258089   5.094   6.178  15.730  0.3653  0.4168 -0.6568
12225TIP3    H158090   5.074   6.098  15.682 -0.4528  0.7510 -0.9019
12225TIP3    H258091   5.188   6.173  15.748  0.2779 -0.7087 -0.4413
12226TIP3   OH258092   3.842   0.057  14.146 -0.0849 -0.3852 -0.1010
12226TIP3    H158093   3.802   0.127  14.197  0.3404 -0.0524 -0.2166
12226TIP3    H258094   3.930   0.049  14.182  0.6265  0.6348 -1.4955
12227TIP3   OH258095   5.756   6.046   2.758  0.2950 -0.3465  0.2369
12227TIP3    H158096   5.832   5.995   2.786  0.9268  0.4671  0.0299
12227TIP3    H258097   5.687   5.981   2.746  0.6412 -0.9815  1.4867
12228TIP3   OH258098   0.997   5.472  14.647 -1.0351  0.3924  0.4163
12228TIP3    H158099   1.032   5.472  14.737  0.2310 -0.3880 -0.0477
12228TIP3    H258100   1.026   5.388  14.611 -0.6647  1.1448 -1.0661
12229TIP3   OH258101   2.778   4.216  14.395  0.1276  0.2572 -0.4302
12229TIP3    H158102   2.697   4.223  14.447  0.2272 -0.7751 -0.1025
12229TIP3    H258103   2.845   4.192  14.459  0.6207  0.7541 -0.7599
12230TIP3   OH258104   6.074   5.814  14.571  0.3174 -0.0227  1.0800
12230TIP3    H158105   6.018   5.737  14.565  1.2638 -0.6197 -1.3983
12230TIP3    H258106   6.016   5.883  14.605 -0.6085 -1.6928  3.1235
12231TIP3   OH258107   0.026   1.381   1.539  0.6072 -0.4903  0.4477
12231TIP3    H158108  -0.043   1.438   1.574  1.7997  0.8261  0.7291
12231TIP3    H258109   0.002   1.368   1.447  2.0558  3.4144 -0.6819
12232TIP3   OH258110   4.814   5.977  13.695 -0.2848  0.1316  0.2456
12232TIP3    H158111   4.870   6.039  13.742 -1.0083 -0.8624  2.5236
12232TIP3    H258112   4.801   5.905  13.756 -0.6074 -1.6588 -1.8193
12233TIP3   OH258113   5.703   2.457   0.829 -0.4047  0.2589  0.3339
12233TIP3    H158114   5.614   2.421   0.837 -0.0143 -0.5578  1.1275
12233TIP3    H258115   5.743   2.442   0.914  1.0880 -1.0168 -0.5405
12234TIP3   OH258116   1.191   6.445   3.140 -0.1747  0.0384  0.0973
12234TIP3    H158117   1.202   6.358   3.177  2.2573  0.2872  0.1045
12234TIP3    H258118   1.262   6.497   3.178 -0.8339  1.7167 -0.8382
12235TIP3   OH258119   4.714   2.538   0.405  0.0628  0.1812  0.3092
12235TIP3    H158120   4.767   2.460   0.422 -0.9653 -0.5159  0.4157
12235TIP3    H258121   4.636   2.527   0.459 -1.1820  0.1336 -1.4081
12236TIP3   OH258122   1.992   4.820  10.734  0.7651  0.0360 -0.1040
12236TIP3    H158123   2.065   4.776  10.691 -0.2370  0.0162 -1.8502
12236TIP3    H258124   1.915   4.768  10.711  0.2181 -0.3285  2.2472
12237TIP3   OH258125   1.664   3.912   4.337 -0.6956  0.2321  0.4275
12237TIP3    H158126   1.646   3.946   4.249  0.8986 -2.4105 -1.0443
12237TIP3    H258127   1.751   3.947   4.357 -0.6629  0.0883  0.5347
12238TIP3   OH258128   5.142   0.570  11.617  0.9652 -0.0467  0.0290
12238TIP3    H158129   5.200   0.501  11.648  0.0342 -2.2202 -2.6426
12238TIP3    H258130   5.128   0.550  11.524 -3.3493  0.7533  0.2826
12239TIP3   OH258131   5.220   2.445   5.312  0.1833 -1.0112 -0.4458
12239TIP3    H158132   5.165   2.441   5.234 -1.8331  0.5441  0.7981
12239TIP3    H258133   5.174   2.392   5.377 -0.2720  0.8430  0.8299
12240TIP3   OH258134   0.816   4.513  10.912 -0.4786  0.2131  0.6589
12240TIP3    H158135   0.771   4.463  10.980 -1.7247  0.2979 -0.0601
12240TIP3    H258136   0.897   4.465  10.896 -0.4541 -0.1377  1.7691
12241TIP3   OH258137   1.448   1.504   5.122  0.1509  0.4124 -0.1498
12241TIP3    H158138   1.394   1.449   5.179  0.5657 -1.9336 -1.8732
12241TIP3    H258139   1.472   1.579   5.176 -2.5740  0.2091  1.5295
12242TIP3   OH258140   6.318   2.075  14.740 -0.0558 -0.4063  0.1496
12242TIP3    H158141   6.411   2.097  14.739  0.3946 -2.0758 -1.8973
12242TIP3    H258142   6.313   1.993  14.789 -0.0237 -1.6010 -1.7223
12243TIP3   OH258143   1.532   5.682  11.339 -0.3945 -0.6853  0.4431
12243TIP3    H158144   1.597   5.651  11.403 -1.1627 -0.6218  1.2755
12243TIP3    H258145   1.577   5.675  11.255 -0.0487 -2.7288  0.7497
12244TIP3   OH258146   6.678   3.459   3.959 -0.3260  0.5700 -0.1059
12244TIP3    H158147   6.766   3.436   3.931 -0.3588 -1.4526  1.2551
12244TIP3    H258148   6.690   3.503   4.043 -0.6162 -0.6421  0.6012
12245TIP3   OH258149   2.977   4.448  15.647 -0.5510 -0.0193 -0.0677
12245TIP3    H158150   3.065   4.447  15.683 -1.0160  0.1586  1.1158
12245TIP3    H258151   2.920   4.464  15.723 -1.4648  1.7563 -1.0491
12246TIP3   OH258152   2.340   3.935  11.613  0.3924 -0.3481  0.1358
12246TIP3    H158153   2.410   3.870  11.618  1.6806  1.0432  1.6860
12246TIP3    H258154   2.367   3.993  11.542  1.0072  0.3419  0.9071
12247TIP3   OH258155   2.207   0.759  15.641 -0.3895 -0.3756 -0.9599
12247TIP3    H158156   2.156   0.783  15.719  0.7871  0.2664 -0.3547
12247TIP3    H258157   2.142   0.735  15.576 -1.4258 -0.3769  0.0477
12248TIP3   OH258158   2.947   2.353  15.290  0.2070  0.2795 -0.0081
12248TIP3    H158159   2.927   2.307  15.371 -1.0540 -1.2384 -1.0924
12248TIP3    H258160   3.023   2.307  15.254  0.4005  0.5720  0.0195
12249TIP3   OH258161   5.852   0.973   1.155 -0.6050  0.3132  0.0990
12249TIP3    H158162   5.766   0.977   1.112 -0.6289  0.0432  0.1184
12249TIP3    H258163   5.906   0.923   1.094  0.6177  3.5737 -1.7249
12250TIP3   OH258164   6.124   2.805   3.405 -0.4623  0.4773 -0.0759
12250TIP3    H158165   6.099   2.897   3.416 -0.8159  0.4584 -0.6853
12250TIP3    H258166   6.113   2.766   3.492  1.0102  1.3191  0.5443
12251TIP3   OH258167   0.253   6.579   3.156  0.9092 -0.2031  0.1131
12251TIP3    H158168   0.186   6.567   3.223  2.6167 -1.1334  1.7625
12251TIP3    H258169   0.333   6.599   3.206  2.2052 -0.7443 -1.6558
12252TIP3   OH258170   3.092   2.696   1.722 -0.5538 -0.2643  0.0678
12252TIP3    H158171   3.117   2.787   1.709 -0.2767 -0.5475 -1.6084
12252TIP3    H258172   3.165   2.645   1.687 -1.3347 -1.1175 -0.3596
12253TIP3   OH258173   0.313   1.318   3.233 -0.6537  0.0377  0.2229
12253TIP3    H158174   0.314   1.358   3.320 -3.5611 -0.9433  0.7937
12253TIP3    H258175   0.286   1.389   3.175 -2.7625 -0.2500  0.7823
12254TIP3   OH258176   1.607   6.562  11.037 -0.3642  0.0050 -0.4491
12254TIP3    H158177   1.641   6.650  11.018  2.9669 -1.1581 -0.5628
12254TIP3    H258178   1.528   6.556  10.984 -1.5014  3.3549  0.5870
12255TIP3   OH258179   5.240   2.386  11.329  0.4860 -0.3765 -0.8318
12255TIP3    H158180   5.201   2.468  11.297 -0.2336 -0.1929  0.4154
12255TIP3    H258181   5.195   2.317  11.280  0.5610 -0.0548 -1.3602
12256TIP3   OH258182   3.255   3.214   0.727  0.0927  0.0343  0.0119
12256TIP3    H158183   3.254   3.118   0.729  1.7259 -0.0304 -0.7231
12256TIP3    H258184   3.316   3.236   0.657  0.2320  1.6167  0.5895
12257TIP3   OH258185   1.573   1.693   1.176 -0.1382 -0.4489  0.5441
12257TIP3    H158186   1.558   1.744   1.256  1.3086 -0.2926  0.7488
12257TIP3    H258187   1.658   1.650   1.191  0.4554  0.0725 -1.1536
12258TIP3   OH258188   3.443   3.344   1.605 -0.0269  0.7769  0.5436
12258TIP3    H158189   3.350   3.328   1.588 -0.3726  2.0925  1.0103
12258TIP3    H258190   3.469   3.408   1.538  0.5494  0.3910  0.3952
12259TIP3   OH258191   3.350   2.124   4.793 -0.1759 -0.3464  0.4627
12259TIP3    H158192   3.391   2.093   4.712 -1.6499 -1.1458 -0.0094
12259TIP3    H258193   3.287   2.056   4.816 -1.3007  0.8643  1.1075
12260TIP3   OH258194   4.841   0.512  14.443 -0.7385 -0.3825 -0.3020
12260TIP3    H158195   4.835   0.477  14.531 -0.3704  2.9400  1.1908
12260TIP3    H258196   4.934   0.513  14.423 -0.5911  1.0754  0.3296
12261TIP3   OH258197   4.549   2.078   2.232 -0.1740 -0.1377 -0.3481
12261TIP3    H158198   4.492   2.017   2.184 -0.2822 -0.6006  0.3578
12261TIP3    H258199   4.594   2.127   2.163 -0.8682 -0.2836 -0.9244
12262TIP3   OH258200   3.535   2.521   1.888 -0.2206  0.1669 -0.1393
12262TIP3    H158201   3.533   2.541   1.982 -0.3131 -1.1932  0.1713
12262TIP3    H258202   3.626   2.530   1.863  0.0171 -0.6470  0.3771
12263TIP3   OH258203   5.908   2.056  13.466  0.2619  0.3933  0.1691
12263TIP3    H158204   5.956   2.037  13.384 -1.4769 -0.6892 -0.6676
12263TIP3    H258205   5.948   1.997  13.530  0.4573 -0.0617 -0.3550
12264TIP3   OH258206   4.247   3.599  11.134  0.2667  0.2383 -0.2046
12264TIP3    H158207   4.229   3.619  11.043  0.6625  1.2680 -0.0706
12264TIP3    H258208   4.162   3.606  11.178  0.1057 -0.0940 -0.4652
12265TIP3   OH258209   3.142   4.768   4.822 -0.2048  0.5306 -0.3038
12265TIP3    H158210   3.187   4.750   4.739 -0.9555  1.5523 -0.9711
12265TIP3    H258211   3.084   4.694   4.835  0.1173  0.2314 -0.5583
12266TIP3   OH258212   6.529   3.854  13.551 -0.3350  0.2067 -0.0748
12266TIP3    H158213   6.517   3.810  13.635  0.1723  0.5982  0.2093
12266TIP3    H258214   6.516   3.785  13.486  0.5609 -0.4005  0.3674
12267TIP3   OH258215   6.181   3.960  17.374 -0.3757  0.1688 -0.7331
12267TIP3    H158216   6.122   3.887  17.359 -1.0750  0.6661 -0.4807
12267TIP3    H258217   6.233   3.966  17.294 -1.4596  0.4318 -1.4440
12268TIP3   OH258218   0.001   3.937  12.284 -0.0333  0.1517 -0.0844
12268TIP3    H158219   0.073   3.917  12.224 -0.5403 -0.9150 -0.3645
12268TIP3    H258220  -0.072   3.885  12.251 -0.6511  0.4633  0.7714
12269TIP3   OH258221   6.572   3.525  12.217 -0.0761 -0.1372  0.8734
12269TIP3    H158222   6.523   3.491  12.143 -1.0480 -0.6514  1.7411
12269TIP3    H258223   6.661   3.492  12.203 -0.5737 -1.4646  0.7060
12270TIP3   OH258224   0.999   0.126  16.662 -0.0111 -0.1402  0.1330
12270TIP3    H158225   1.058   0.052  16.672 -1.4123 -1.1749  1.1880
12270TIP3    H258226   1.055   0.203  16.672  1.5182 -1.0196 -1.2451
12271TIP3   OH258227   5.761   4.594  16.915  0.4189  0.8183 -0.3397
12271TIP3    H158228   5.835   4.617  16.859  0.4387  1.5857 -0.0126
12271TIP3    H258229   5.802   4.550  16.990  0.3673 -0.4556 -1.0390
12272TIP3   OH258230   3.418   3.839   3.432 -0.4788 -0.6661  0.4570
12272TIP3    H158231   3.365   3.833   3.353 -1.7242  2.1590  0.9413
12272TIP3    H258232   3.497   3.789   3.413 -2.3899 -3.3557 -1.0516
12273TIP3   OH258233   2.934   0.690   1.797  0.6659  0.2595  0.0149
12273TIP3    H158234   2.930   0.778   1.758 -0.2276 -0.3863 -1.4352
12273TIP3    H258235   2.979   0.637   1.731  2.9591 -0.0097  1.6897
12274TIP3   OH258236   5.000   6.271   0.757 -0.5984  0.5188  0.1730
12274TIP3    H158237   5.083   6.307   0.727 -0.8100  0.4642 -0.4787
12274TIP3    H258238   5.001   6.180   0.728  0.3222 -0.3133  2.5608
12275TIP3   OH258239   2.992   3.096  16.682  0.2763 -0.2874  0.3489
12275TIP3    H158240   2.935   3.112  16.758 -0.2133 -0.7262  0.0822
12275TIP3    H258241   3.062   3.160  16.691  0.4072 -0.5470  1.3525
12276TIP3   OH258242   5.092   4.535   4.720 -0.0004  0.5179  0.4708
12276TIP3    H158243   5.040   4.497   4.790  0.0649  0.7167  0.6299
12276TIP3    H258244   5.073   4.629   4.725 -0.5668  0.4498 -0.2487
12277TIP3   OH258245   0.410   6.067  17.093 -0.3527 -0.2811 -0.9069
12277TIP3    H158246   0.335   6.124  17.074  0.6023  0.7693 -1.7087
12277TIP3    H258247   0.462   6.117  17.156  0.1670 -0.5574 -1.1077
12278TIP3   OH258248   5.438   3.255   2.602 -0.5123  0.3213  0.6831
12278TIP3    H158249   5.457   3.274   2.511 -0.8453  1.4921  0.8441
12278TIP3    H258250   5.401   3.167   2.601 -0.1367  0.1583 -0.2488
12279TIP3   OH258251   2.527   4.262   2.456  0.5013  0.6500  0.5210
12279TIP3    H158252   2.599   4.259   2.393  0.4459  0.4975  0.4628
12279TIP3    H258253   2.453   4.299   2.407  0.4563  0.5243  0.4940
12280TIP3   OH258254   0.428   1.205  13.511 -0.1763  0.2386  0.1751
12280TIP3    H158255   0.353   1.262  13.494  0.4605  1.4773  1.3119
12280TIP3    H258256   0.495   1.264  13.546  0.9511 -1.0194  0.1925
12281TIP3   OH258257   5.591   5.904   2.412  0.1248  0.5994 -0.1383
12281TIP3    H158258   5.529   5.834   2.392  1.5335 -0.3904 -1.2250
12281TIP3    H258259   5.545   5.984   2.386 -1.2254  0.0592  0.4406
12282TIP3   OH258260   4.244   0.138  12.794 -0.1149  0.1201 -0.1244
12282TIP3    H158261   4.214   0.137  12.885 -2.6462 -2.0231 -0.8639
12282TIP3    H258262   4.311   0.069  12.791  1.4328  1.5382  0.4707
12283TIP3   OH258263   1.988   3.196   3.057  0.3705 -0.2107  0.3563
12283TIP3    H158264   1.906   3.158   3.089  0.1950 -0.4724 -0.3789
12283TIP3    H258265   2.052   3.179   3.126 -0.4469  1.0142  1.4716
12284TIP3   OH258266   6.549   4.525   5.180  0.5689  0.1641 -0.0294
12284TIP3    H158267   6.619   4.539   5.244 -0.1133  1.1576  0.5105
12284TIP3    H258268   6.470   4.554   5.224 -0.7522 -3.6988  0.5404
12285TIP3   OH258269   1.152   2.411   3.119 -0.2842  0.7254 -0.1632
12285TIP3    H158270   1.067   2.440   3.151 -0.6043  1.3995 -1.5756
12285TIP3    H258271   1.212   2.427   3.193 -1.6619 -1.6242  1.5938
12286TIP3   OH258272   3.602   3.220   3.787  0.1085 -0.1606  0.0929
12286TIP3    H158273   3.507   3.230   3.785  0.2867  2.4165  1.2213
12286TIP3    H258274   3.617   3.148   3.848 -1.1011  0.9790  1.8331
12287TIP3   OH258275   4.307   6.422   3.152  0.1115 -0.0100  0.3739
12287TIP3    H158276   4.259   6.505   3.145  1.6088  1.0563  1.8669
12287TIP3    H258277   4.349   6.411   3.067 -1.4229 -0.1516 -0.4131
12288TIP3   OH258278   3.200   1.730  16.379 -0.0696  0.8337  0.2825
12288TIP3    H158279   3.124   1.685  16.415  1.5979 -0.3808  2.5598
12288TIP3    H258280   3.271   1.666  16.388  1.4981  2.4003 -0.4997
12289TIP3   OH258281   3.199   2.848  13.402  0.1266  0.3026 -0.2579
12289TIP3    H158282   3.227   2.801  13.481  0.1864  1.0742  0.1909
12289TIP3    H258283   3.108   2.872  13.420  0.0896  0.3368 -0.4914
12290TIP3   OH258284   0.079   0.758  11.361 -0.3614  0.4738 -0.9391
12290TIP3    H158285   0.062   0.676  11.408 -0.5876  1.8835  1.6034
12290TIP3    H258286   0.004   0.813  11.381  0.5434  1.8670 -1.2588
12291TIP3   OH258287   0.551   2.665  15.720 -0.2973  0.1512 -0.1288
12291TIP3    H158288   0.502   2.598  15.672 -0.4575 -0.6564  1.1165
12291TIP3    H258289   0.535   2.645  15.813  0.6408  1.1819  0.2831
12292TIP3   OH258290   5.580   2.801  17.345  0.2439 -1.0197 -0.2602
12292TIP3    H158291   5.630   2.878  17.319 -0.6953 -0.1175  0.5568
12292TIP3    H258292   5.519   2.832  17.411  0.3423 -2.6102  0.6426
12293TIP3   OH258293   5.517   1.113  14.950 -0.6654 -0.4830  0.3406
12293TIP3    H158294   5.591   1.090  15.006  0.4922  0.9764 -0.5046
12293TIP3    H258295   5.453   1.152  15.009  0.5071  0.9810  0.7156
12294TIP3   OH258296   3.821   2.161  14.894  0.0938  0.4888 -0.2328
12294TIP3    H158297   3.882   2.235  14.897  1.8556 -0.9146  0.2081
12294TIP3    H258298   3.750   2.186  14.953  2.1336  0.6375  2.3275
12295TIP3   OH258299   3.004   2.550  11.106 -0.5746  0.2376 -0.1301
12295TIP3    H158300   2.976   2.462  11.131 -0.5793  0.1947 -0.2848
12295TIP3    H258301   2.924   2.593  11.078 -0.8343  0.7791  1.3384
12296TIP3   OH258302   6.103   1.058  12.961  0.8280  0.0343  0.6195
12296TIP3    H158303   6.008   1.045  12.964  0.8895 -0.5053  0.1976
12296TIP3    H258304   6.138   0.992  13.020  0.8797  0.9687  1.6701
12297TIP3   OH258305   0.815   4.613   3.132 -0.7499 -0.0063 -0.1072
12297TIP3    H158306   0.828   4.523   3.163  0.8061  0.8402  1.9099
12297TIP3    H258307   0.890   4.631   3.075 -0.7223  0.2215 -0.0002
12298TIP3   OH258308   5.656   3.649   4.239 -0.4817  0.4235 -0.0433
12298TIP3    H158309   5.591   3.614   4.299  0.5237 -0.6583  0.4494
12298TIP3    H258310   5.605   3.683   4.165 -2.1754  5.2214  2.8243
12299TIP3   OH258311   0.007   5.977   4.001  0.1961 -0.4422  0.3200
12299TIP3    H158312   0.087   5.926   4.014  0.1310 -0.7877 -0.5534
12299TIP3    H258313   0.031   6.044   3.937  0.5625  1.3200  2.1994
12300TIP3   OH258314   0.055   2.090   5.802 -0.0330  0.2095  0.2661
12300TIP3    H158315   0.119   2.082   5.731  0.0778 -0.7033  0.4567
12300TIP3    H258316   0.083   2.025   5.867 -1.4230 -0.5248  0.1530
12301TIP3   OH258317   5.884   4.325  10.841 -0.4353  0.5606  0.1364
12301TIP3    H158318   5.850   4.351  10.755  0.5397  2.1878  0.2063
12301TIP3    H258319   5.979   4.334  10.834  0.0104 -2.6527  0.3499
12302TIP3   OH258320   5.715   4.945  12.737  0.4368  0.4457  0.1735
12302TIP3    H158321   5.667   4.957  12.655  1.6335  0.2559 -0.5770
12302TIP3    H258322   5.702   5.028  12.785 -0.1741  0.5981 -0.2445
12303TIP3   OH258323   5.912   4.534   2.306 -0.1575  0.2805 -0.5202
12303TIP3    H158324   5.956   4.488   2.236 -2.1892 -1.0575 -1.0228
12303TIP3    H258325   5.887   4.465   2.368 -0.9457  1.0375  0.0367
12304TIP3   OH258326   2.671   2.231   0.185  0.2759 -0.0158  0.0772
12304TIP3    H158327   2.610   2.232   0.112  0.0669 -2.7126  0.1381
12304TIP3    H258328   2.758   2.227   0.144  0.1963 -0.7299 -0.0220
12305TIP3   OH258329   5.627   4.708  16.272 -0.1175 -0.1879 -0.6845
12305TIP3    H158330   5.645   4.631  16.326 -0.7114 -0.2968 -0.6432
12305TIP3    H258331   5.540   4.737  16.298  0.0117  0.3658 -0.8615
12306TIP3   OH258332   2.571   3.811   0.712  0.5985  0.1743 -0.2698
12306TIP3    H158333   2.629   3.846   0.645  1.0964 -0.0627  0.0381
12306TIP3    H258334   2.543   3.726   0.677 -0.8545  0.9817 -1.1592
12307TIP3   OH258335   0.090   4.581  16.500 -0.1350 -0.0753 -0.4555
12307TIP3    H158336   0.137   4.520  16.442  0.1157  1.2475 -1.6964
12307TIP3    H258337   0.079   4.660  16.447 -3.1642 -0.0737  0.0395
12308TIP3   OH258338   6.727   5.781   5.812  0.0759  0.1712 -0.1450
12308TIP3    H158339   6.745   5.688   5.826 -0.9071 -0.3671 -2.1307
12308TIP3    H258340   6.646   5.798   5.859  0.0202 -0.0877 -0.1478
12309TIP3   OH258341   2.307   1.660   2.489 -0.0237 -0.0134  0.6253
12309TIP3    H158342   2.395   1.698   2.485 -0.0693  0.1409  1.0850
12309TIP3    H258343   2.300   1.610   2.408 -0.3996  1.9045 -0.5986
12310TIP3   OH258344   0.516   6.246   0.184 -0.5909  0.3598 -0.9405
12310TIP3    H158345   0.543   6.168   0.135  0.0701  0.3397 -0.5665
12310TIP3    H258346   0.421   6.245   0.180 -0.6154 -0.7046 -0.5949
12311TIP3   OH258347   5.198   4.558  10.573  0.5863  0.2728  0.4142
12311TIP3    H158348   5.139   4.633  10.579  0.2025 -0.1333  2.5488
12311TIP3    H258349   5.150   4.493  10.522 -1.7977 -0.7989  3.7183
12312TIP3   OH258350   0.548   1.756   1.543 -0.0486 -0.3395 -0.0361
12312TIP3    H158351   0.545   1.661   1.553 -1.0038 -0.1820  1.5587
12312TIP3    H258352   0.639   1.779   1.558 -0.2519 -0.7971  2.2419
12313TIP3   OH258353   3.078   3.075  14.024  0.0915 -0.0883  0.2154
12313TIP3    H158354   3.076   3.125  14.105  1.9446  1.8711 -0.8372
12313TIP3    H258355   3.105   3.138  13.957  1.5693 -2.2821 -1.4123
12314TIP3   OH258356   1.545   3.963  15.864 -0.4855  0.3498  0.2993
12314TIP3    H158357   1.474   3.994  15.920  0.3845  3.0279  0.0519
12314TIP3    H258358   1.614   3.937  15.924 -0.4113  1.0376  0.5194
12315TIP3   OH258359   3.137   0.954   3.566  0.4061  0.1819  0.2685
12315TIP3    H158360   3.165   1.007   3.640 -0.4245  1.6394 -0.3904
12315TIP3    H258361   3.141   1.014   3.491  0.5320 -1.0370 -0.7399
12316TIP3   OH258362   3.086   2.647  16.346  0.2349 -0.3168  0.0638
12316TIP3    H158363   3.148   2.655  16.419  0.6571 -0.4892 -0.2730
12316TIP3    H258364   3.020   2.713  16.365  0.3958 -0.2868  0.5521
12317TIP3   OH258365   1.719   3.753  15.650 -0.0511 -0.2012  0.1718
12317TIP3    H158366   1.810   3.769  15.627 -0.2474 -0.1653 -0.6204
12317TIP3    H258367   1.669   3.792  15.579 -0.6692 -0.6611  0.3432
12318TIP3   OH258368   6.499   6.295  12.674 -0.2818 -0.2695  0.7614
12318TIP3    H158369   6.521   6.203  12.684  0.6152 -0.1292  0.2123
12318TIP3    H258370   6.443   6.298  12.596  3.4986  0.1149 -2.2220
12319TIP3   OH258371   2.186   3.861   2.155 -0.0465 -0.4589 -0.2030
12319TIP3    H158372   2.138   3.835   2.234 -2.3441  0.5331 -1.1798
12319TIP3    H258373   2.210   3.779   2.113 -1.3066 -1.0125  0.1209
12320TIP3   OH258374   1.667   2.016  12.114 -0.2237  0.1098 -0.4007
12320TIP3    H158375   1.593   2.068  12.083  0.9514  0.8947 -2.1007
12320TIP3    H258376   1.628   1.947  12.167 -2.1299  0.6914 -0.9673
12321TIP3   OH258377   3.828   0.296   4.010  0.4066 -0.5098 -0.1968
12321TIP3    H158378   3.801   0.237   3.940 -3.4057 -0.9484  1.4185
12321TIP3    H258379   3.825   0.383   3.970 -1.3052 -0.7839 -0.7601
12322TIP3   OH258380   6.545   2.284   1.491 -0.0558  0.3278  0.8741
12322TIP3    H158381   6.631   2.250   1.515  0.1283 -0.4549 -0.7816
12322TIP3    H258382   6.559   2.327   1.407 -1.1487  0.8274  0.9375
12323TIP3   OH258383   3.168   2.805  13.912 -0.0746  0.4621 -0.2817
12323TIP3    H158384   3.208   2.775  13.831  2.9850  1.3198  0.7772
12323TIP3    H258385   3.162   2.900  13.902 -0.4494  0.4873  0.1609
12324TIP3   OH258386   0.091   6.461  15.392 -0.0025  0.9876 -0.0051
12324TIP3    H158387   0.184   6.479  15.405  0.2988  0.2022 -0.9621
12324TIP3    H258388   0.089   6.389  15.328 -1.2731  1.1688 -0.1937
12325TIP3   OH258389   2.772   3.092   4.116 -0.3169 -0.0329  0.4209
12325TIP3    H158390   2.730   3.167   4.074  0.2903 -0.0458 -0.2209
12325TIP3    H258391   2.743   3.016   4.065  2.1999  0.1671 -1.4396
12326TIP3   OH258392   5.928   2.958  12.838  0.1058  0.1045  0.9135
12326TIP3    H158393   5.857   3.021  12.824 -0.7921 -0.7826  1.3403
12326TIP3    H258394   5.915   2.927  12.927  0.8692 -0.2857  0.8965
12327TIP3   OH258395   1.472   2.798  13.220 -0.4657  0.6517  0.8152
12327TIP3    H158396   1.486   2.861  13.150  1.9976 -0.0504  0.5810
12327TIP3    H258397   1.540   2.819  13.285 -1.6902  0.2926  2.2836
12328TIP3   OH258398   0.965   2.508  11.912 -0.0256  0.5338 -0.1369
12328TIP3    H158399   0.884   2.457  11.903 -0.3165  1.0592 -0.6015
12328TIP3    H258400   1.025   2.470  11.847 -0.1401  0.5863 -0.2739
12329TIP3   OH258401   6.315   6.338  15.098 -0.3898 -0.2006 -0.0579
12329TIP3    H158402   6.256   6.398  15.052 -1.2799 -1.0868 -0.1095
12329TIP3    H258403   6.385   6.320  15.036 -1.6478 -1.4867 -1.1642
12330TIP3   OH258404   5.436   6.043  17.113 -0.0516 -0.2952 -0.3382
12330TIP3    H158405   5.498   5.992  17.061 -0.3409 -0.5282 -0.4585
12330TIP3    H258406   5.407   6.112  17.055 -1.5792 -1.4796 -1.0399
12331TIP3   OH258407   5.378   6.320   6.770 -0.1562 -0.6781  0.1062
12331TIP3    H158408   5.471   6.297   6.768 -0.0639 -0.2387 -1.1760
12331TIP3    H258409   5.332   6.236   6.773  0.2673 -0.8986  1.7135
12332TIP3   OH258410   3.305   0.851  17.129  0.3792  0.1381  0.4236
12332TIP3    H158411   3.355   0.855  17.211  0.2396 -1.1093  0.6018
12332TIP3    H258412   3.273   0.939  17.115  0.4970  0.3879  1.6625
12333TIP3   OH258413   5.797   3.029  15.856 -0.1776  0.4833  0.0835
12333TIP3    H158414   5.877   3.057  15.811  1.1666 -0.5344  1.6995
12333TIP3    H258415   5.755   3.111  15.883  0.7403  1.0249 -0.0795
12334TIP3   OH258416   5.301   0.235   3.966 -0.0215 -0.1057 -0.6338
12334TIP3    H158417   5.233   0.295   3.996  0.8745  0.8273 -0.4013
12334TIP3    H258418   5.278   0.151   4.005  0.2558  0.7247  1.4691
12335TIP3   OH258419   2.195   3.096   3.236  0.2560  0.2925  0.4978
12335TIP3    H158420   2.208   3.089   3.331 -1.0524 -0.8780  0.6159
12335TIP3    H258421   2.271   3.052   3.199  0.8602  0.8948  0.9820
12336TIP3   OH258422   2.340   0.437   3.553 -0.6825 -0.2369  0.2398
12336TIP3    H158423   2.268   0.482   3.597  0.1743 -0.3122  1.7939
12336TIP3    H258424   2.387   0.506   3.507 -1.4979 -0.1338 -0.4728
12337TIP3   OH258425   4.286   1.373  16.819  0.0272 -0.0588 -0.6062
12337TIP3    H158426   4.347   1.366  16.893 -0.0115 -0.8359 -0.6429
12337TIP3    H258427   4.209   1.417  16.855  0.5654  0.8772 -0.5423
12338TIP3   OH258428   3.999   6.171  12.977  0.2440  0.9196  0.6816
12338TIP3    H158429   4.055   6.233  13.024  0.6037 -0.3563  2.0042
12338TIP3    H258430   4.050   6.147  12.900  0.3035  1.8751  0.4075
12339TIP3   OH258431   5.337   2.049   2.972 -0.3855 -0.2578 -0.1762
12339TIP3    H158432   5.350   2.084   3.060 -1.5878 -1.3467  0.4583
12339TIP3    H258433   5.308   2.125   2.920 -2.4280 -0.1410  1.0470
12340TIP3   OH258434   1.517   2.328   0.979 -0.2695  0.0082 -0.5879
12340TIP3    H158435   1.539   2.296   0.891 -2.2475 -0.1696 -1.0791
12340TIP3    H258436   1.478   2.253   1.023  1.6202 -0.1958  0.8596
12341TIP3   OH258437   6.605   1.035  16.214 -0.3795 -0.5341  0.1781
12341TIP3    H158438   6.587   1.048  16.121 -2.4788 -1.3220  0.4278
12341TIP3    H258439   6.669   0.964  16.216  1.0325  0.6370 -0.6715
12342TIP3   OH258440   1.905   5.890   4.708 -0.0100 -0.4611 -0.1190
12342TIP3    H158441   1.847   5.834   4.657 -0.9327  0.3169  0.0567
12342TIP3    H258442   1.912   5.846   4.793  1.0239 -1.4242 -0.6632
12343TIP3   OH258443   6.455   3.097  13.519  0.9558  0.9910 -0.6590
12343TIP3    H158444   6.386   3.131  13.576  0.3656 -0.5610 -0.4041
12343TIP3    H258445   6.512   3.047  13.578  2.1189  1.9386 -0.9276
12344TIP3   OH258446   0.958   4.369  13.486  0.0158 -0.1339  0.4143
12344TIP3    H158447   1.052   4.384  13.493 -0.0477  0.7418 -0.3980
12344TIP3    H258448   0.949   4.308  13.412 -0.0591 -0.2941  0.5529
12345TIP3   OH258449   1.349   2.073   3.355 -0.2716  0.4670 -0.1487
12345TIP3    H158450   1.435   2.112   3.367  0.4243 -0.9252 -0.4005
12345TIP3    H258451   1.331   2.082   3.262  0.5093 -0.9909 -0.4659
12346TIP3   OH258452   4.837   2.826  16.607  0.1160  0.7079 -0.1049
12346TIP3    H158453   4.865   2.759  16.545 -2.0989  0.6313 -1.1355
12346TIP3    H258454   4.833   2.780  16.691  2.3803  0.6086 -0.0106
12347TIP3   OH258455   4.107   2.006   4.884 -0.1731 -0.1469  0.0576
12347TIP3    H158456   4.160   2.014   4.805 -0.9151 -0.7409 -0.5119
12347TIP3    H258457   4.074   2.095   4.900 -0.3207 -0.0954 -0.5140
12348TIP3   OH258458   0.656   2.729   2.478  0.4456  0.0787  0.7154
12348TIP3    H158459   0.586   2.668   2.453 -0.3140  1.3595 -0.3782
12348TIP3    H258460   0.687   2.696   2.563  0.2489 -1.9673  0.0396
12349TIP3   OH258461   2.829   3.250   2.191 -0.0847 -0.2179 -0.3184
12349TIP3    H158462   2.888   3.325   2.198  1.2006 -1.2742  0.7742
12349TIP3    H258463   2.741   3.289   2.191  0.2009  1.2478  5.0515
12350TIP3   OH258464   5.422   0.394   4.915 -0.1245 -0.8864 -0.0106
12350TIP3    H158465   5.412   0.447   4.836  0.3012 -1.0608 -0.1873
12350TIP3    H258466   5.380   0.445   4.984  0.4240 -0.2310 -0.1468
12351TIP3   OH258467   2.503   5.268   3.363 -0.2043  0.0105 -0.1808
12351TIP3    H158468   2.462   5.297   3.282 -1.9889  0.6394  0.8909
12351TIP3    H258469   2.597   5.273   3.346 -0.2413  5.3661 -0.5651
12352TIP3   OH258470   5.834   1.814   3.633 -0.4535  0.2282  0.3502
12352TIP3    H158471   5.870   1.727   3.616 -0.8902  0.2921 -0.9745
12352TIP3    H258472   5.905   1.860   3.678  0.4599 -0.2322 -0.5810
12353TIP3   OH258473   5.784   0.875  16.373 -0.1676  0.1098 -0.8035
12353TIP3    H158474   5.703   0.837  16.407  0.9087 -1.3450  0.2977
12353TIP3    H258475   5.769   0.970  16.376 -0.8198  0.0198  2.1704
12354TIP3   OH258476   0.970   3.616  17.145 -0.5446 -0.2300  0.2137
12354TIP3    H158477   0.976   3.526  17.113 -2.0494  0.0028 -0.8311
12354TIP3    H258478   0.941   3.666  17.069  2.3487  1.5703  0.1148
12355TIP3   OH258479   2.044   0.289  12.685  0.7586 -0.1081  0.7190
12355TIP3    H158480   2.134   0.309  12.658  0.7110 -1.5929 -0.7309
12355TIP3    H258481   2.029   0.200  12.653 -1.7585  0.6729 -0.5250
12356TIP3   OH258482   6.333   1.854  16.535 -0.1620 -0.3612  0.0033
12356TIP3    H158483   6.412   1.904  16.514  0.3730 -1.4334 -0.6357
12356TIP3    H258484   6.355   1.806  16.615  0.4406 -1.8573 -1.0056
12357TIP3   OH258485   2.295   4.466  16.486 -1.0883 -0.1099 -0.4876
12357TIP3    H158486   2.370   4.423  16.526  0.1039  1.4033 -0.9984
12357TIP3    H258487   2.315   4.470  16.393 -1.7760  0.3759 -0.6293
12358TIP3   OH258488   5.566   3.434   3.419 -0.0148 -0.0611 -0.3313
12358TIP3    H158489   5.490   3.440   3.477  0.3084  2.7401 -0.0755
12358TIP3    H258490   5.613   3.356   3.449 -0.6515  0.4319  2.1970
12359TIP3   OH258491   5.627   2.536  16.601 -0.3376  0.3309 -0.0791
12359TIP3    H158492   5.595   2.605  16.542  0.6970  0.2840 -0.7094
12359TIP3    H258493   5.691   2.488  16.549  0.0052 -0.2133  0.8311
12360TIP3   OH258494   2.941   0.124  17.291 -0.8697  0.9023  0.0805
12360TIP3    H158495   2.987   0.190  17.344 -0.3657 -1.2834  2.5598
12360TIP3    H258496   2.871   0.093  17.348 -1.3014 -0.4679 -1.1634
12361TIP3   OH258497   4.516   2.102   2.910 -0.4235 -0.2331 -0.1013
12361TIP3    H158498   4.436   2.122   2.860  0.3343  0.0974 -1.2384
12361TIP3    H258499   4.538   2.185   2.952  1.2628  0.7898 -2.7065
12362TIP3   OH258500   2.836   2.171   3.727  0.4500  0.0441 -0.7444
12362TIP3    H158501   2.831   2.260   3.692 -1.4308  0.3880  0.2420
12362TIP3    H258502   2.922   2.165   3.767  0.9411  1.1106 -1.5937
12363TIP3   OH258503   3.173   4.471   4.568 -0.6281 -0.2522 -0.1916
12363TIP3    H158504   3.085   4.472   4.607 -0.6019 -1.7897 -0.0337
12363TIP3    H258505   3.211   4.556   4.592 -1.2809 -0.4206  1.5848
12364TIP3   OH258506   2.070   2.392   2.059  0.1730 -0.1916  0.7581
12364TIP3    H158507   2.112   2.358   1.980 -0.6132 -1.1318  0.7245
12364TIP3    H258508   2.137   2.446   2.100  1.0197 -0.7057  0.0989
12365TIP3   OH258509   4.019   3.363   3.829  0.4568  0.1063 -0.2545
12365TIP3    H158510   3.978   3.399   3.908  0.6481  0.1774 -0.1860
12365TIP3    H258511   3.960   3.389   3.758 -0.6912 -1.5218  0.0456
12366TIP3   OH258512   2.340   1.232  13.803 -0.8553  0.5403  0.1924
12366TIP3    H158513   2.375   1.242  13.891 -0.2358 -0.6279  0.0950
12366TIP3    H258514   2.274   1.163  13.811  0.4589 -0.8557 -0.5629
12367TIP3   OH258515   4.030   1.819  14.385  1.0610  0.0247  0.2919
12367TIP3    H158516   4.035   1.908  14.350 -1.5441  0.6614  1.2738
12367TIP3    H258517   4.117   1.802  14.422  2.8144  0.6479 -3.1723
12368TIP3   OH258518   3.756   2.881  10.663 -0.8525  0.0724  0.6803
12368TIP3    H158519   3.733   2.960  10.614  1.9775  0.9197  0.5337
12368TIP3    H258520   3.784   2.818  10.596 -3.4390 -1.2950  0.7619
12369TIP3   OH258521   6.152   5.636  12.759 -0.0357 -0.1992  0.0450
12369TIP3    H158522   6.120   5.724  12.743 -0.0937 -0.4413 -1.3592
12369TIP3    H258523   6.192   5.610  12.676 -1.4668 -2.0942 -0.1059
12370TIP3   OH258524   1.694   0.481  15.991  0.4905 -0.4064 -0.5936
12370TIP3    H158525   1.673   0.418  16.060 -2.9341  0.0588 -1.0731
12370TIP3    H258526   1.743   0.429  15.926  1.5307 -1.4485  0.9492
12371TIP3   OH258527   1.965   3.874   3.041  0.2421  0.5366  0.1012
12371TIP3    H158528   1.948   3.782   3.061 -1.4892  0.4437 -1.5567
12371TIP3    H258529   1.933   3.921   3.118  2.5185 -0.2318  1.6446
12372TIP3   OH258530   6.299   1.471  17.156  0.2831 -0.0606  0.0666
12372TIP3    H158531   6.360   1.472  17.083 -0.3482 -1.0668 -0.5016
12372TIP3    H258532   6.248   1.551  17.145  1.1259  0.5128  0.2413
12373TIP3   OH258533   3.536   2.415  15.506  0.0489  0.0854  0.1162
12373TIP3    H158534   3.518   2.345  15.443  0.3313 -0.7354  0.9315
12373TIP3    H258535   3.449   2.445  15.532 -0.0893 -0.6153  0.4766
12374TIP3   OH258536   2.121   1.324  15.702  0.0553  0.2439 -0.2071
12374TIP3    H158537   2.130   1.357  15.612  0.2484  1.5886  0.2848
12374TIP3    H258538   2.048   1.373  15.739 -1.3124 -1.6859 -0.2021
12375TIP3   OH258539   4.107   2.927  17.171  0.2761 -0.2327 -0.3228
12375TIP3    H158540   4.083   2.897  17.259 -1.0001 -0.2588 -0.6550
12375TIP3    H258541   4.025   2.960  17.135  0.9989  0.6754 -1.1524
12376TIP3   OH258542   1.109   0.054   3.618 -0.1888  0.0767 -0.0215
12376TIP3    H158543   1.023   0.086   3.645 -1.1510 -0.5698 -2.0429
12376TIP3    H258544   1.093  -0.038   3.595  0.2961  0.6478 -3.1404
12377TIP3   OH258545   5.822   5.249   5.781 -0.2587 -0.1488  0.2410
12377TIP3    H158546   5.868   5.228   5.863  1.5428 -0.4643 -0.8069
12377TIP3    H258547   5.859   5.189   5.717 -0.5284  1.1263 -1.1541
12378TIP3   OH258548   6.639   2.022  11.026  0.2215  0.3724 -0.1065
12378TIP3    H158549   6.715   2.075  11.002 -0.4338  0.6925 -1.5621
12378TIP3    H258550   6.575   2.040  10.957 -0.7463 -0.7885  0.4676
12379TIP3   OH258551   1.801   4.470   5.993 -0.1739  0.3440  0.0471
12379TIP3    H158552   1.868   4.408   6.022 -0.2511  1.0333  1.8279
12379TIP3    H258553   1.759   4.426   5.919  1.3098 -0.6977 -0.2334
12380TIP3   OH258554   6.204   4.655   3.933  0.2072 -0.6900  0.4803
12380TIP3    H158555   6.270   4.696   3.878 -0.7468  1.5179  0.8532
12380TIP3    H258556   6.221   4.691   4.021 -0.7998 -0.9202  0.7829
12381TIP3   OH258557   4.334   6.420  17.295  0.8814  0.1847 -0.3113
12381TIP3    H158558   4.363   6.470  17.371  0.3250  0.4683 -0.2733
12381TIP3    H258559   4.282   6.483  17.245 -0.7242 -0.6298  0.2690
12382TIP3   OH258560   0.836   4.832   4.845  0.2297 -0.0697  0.3286
12382TIP3    H158561   0.813   4.906   4.900  0.0620  0.6964 -0.7330
12382TIP3    H258562   0.928   4.815   4.865 -0.1870 -0.7209  1.8404
12383TIP3   OH258563   0.703   4.338   4.920  0.5558  0.4853 -0.1861
12383TIP3    H158564   0.611   4.360   4.906  0.2364 -1.0922 -0.8005
12383TIP3    H258565   0.725   4.378   5.004 -1.3995 -1.1612  1.1973
12384TIP3   OH258566   5.112   1.601   1.305 -0.2340 -0.0657  0.0686
12384TIP3    H158567   5.149   1.624   1.219 -0.9117 -0.0559 -0.2212
12384TIP3    H258568   5.173   1.536   1.340  0.2159  0.1603 -0.2851
12385TIP3   OH258569   0.727   1.515  12.851 -0.5408 -0.2506  0.1177
12385TIP3    H158570   0.681   1.581  12.798 -1.4151 -0.3394  0.7555
12385TIP3    H258571   0.807   1.559  12.879 -2.2169  1.4953  2.6074
12386TIP3   OH258572   5.490   4.941  12.014  0.5805  0.2998  0.3561
12386TIP3    H158573   5.522   4.999  11.945 -0.2654 -0.4126 -0.6683
12386TIP3    H258574   5.470   4.999  12.087  1.9900  1.0152  0.2130
12387TIP3   OH258575   2.817   2.630  15.826 -0.2236 -0.4068 -0.0109
12387TIP3    H158576   2.736   2.601  15.867 -1.4516 -0.0978 -2.0584
12387TIP3    H258577   2.800   2.720  15.800  0.8085 -0.3078 -0.4139
12388TIP3   OH258578   0.305   0.243  14.375  0.0457  0.3569 -0.2894
12388TIP3    H158579   0.368   0.184  14.416  0.4125  0.5838 -0.5317
12388TIP3    H258580   0.343   0.264  14.290 -0.3582  0.4903 -0.4394
12389TIP3   OH258581   4.208   1.655   2.350  0.1587  0.2100 -0.1472
12389TIP3    H158582   4.238   1.744   2.331 -1.1285  0.3219 -1.7660
12389TIP3    H258583   4.273   1.598   2.309  0.3776  0.4032 -0.0704
12390TIP3   OH258584   5.108   1.097  12.025  0.0482  1.0827  0.4025
12390TIP3    H158585   5.020   1.130  12.009 -0.0775  0.1946 -0.9371
12390TIP3    H258586   5.144   1.081  11.937  0.6215 -0.8956  0.9404
12391TIP3   OH258587   2.191   2.734  13.694  0.3918 -0.3586 -0.0931
12391TIP3    H158588   2.239   2.676  13.754  0.1141 -0.9414 -0.4240
12391TIP3    H258589   2.228   2.820  13.710 -0.7262 -0.1847  2.0714
12392TIP3   OH258590   3.390   2.353   2.989 -0.4932 -0.1669 -0.1327
12392TIP3    H158591   3.296   2.369   2.974 -0.8837  0.5387  2.5233
12392TIP3    H258592   3.392   2.280   3.050  0.7526 -0.5027 -0.5474
12393TIP3   OH258593   1.206   0.377  13.664 -0.1886 -0.0900  0.5664
12393TIP3    H158594   1.257   0.320  13.722  0.4821 -0.6967 -0.5736
12393TIP3    H258595   1.221   0.465  13.698 -0.6039 -0.4994  1.8867
12394TIP3   OH258596   2.429   4.330   1.167 -0.4172  0.2632 -0.1591
12394TIP3    H158597   2.423   4.413   1.119  1.1067  1.7320  2.0115
12394TIP3    H258598   2.510   4.291   1.136  0.5636  1.2089  1.1057
12395TIP3   OH258599   4.108   4.944  17.227 -0.7400 -0.2278 -0.2758
12395TIP3    H158600   4.126   4.918  17.137  0.2285  1.4459 -0.6086
12395TIP3    H258601   4.041   5.012  17.219  0.2199  0.7899  0.1511
12396TIP3   OH258602   5.427   1.446   4.385  0.4054 -0.0886 -0.2449
12396TIP3    H158603   5.351   1.489   4.423  1.4080  1.5204  0.0050
12396TIP3    H258604   5.502   1.493   4.419  1.5290 -1.4042 -0.7775
12397TIP3   OH258605   1.598   4.621  10.329 -0.4693 -0.2201 -0.2835
12397TIP3    H158606   1.578   4.634  10.421 -1.4655 -1.7938 -0.2317
12397TIP3    H258607   1.675   4.676  10.312 -0.5685  0.4556  1.3496
12398TIP3   OH258608   5.785   3.325   4.143 -0.7702  0.3126  0.3444
12398TIP3    H158609   5.781   3.235   4.110  0.0970  1.0504 -1.9260
12398TIP3    H258610   5.711   3.369   4.101 -0.8910  0.7922  1.0517
12399TIP3   OH258611   5.298   6.292   2.411 -0.2263  0.1170  0.3367
12399TIP3    H158612   5.246   6.230   2.463 -2.1419  0.2444 -1.3012
12399TIP3    H258613   5.235   6.357   2.382  0.9177  0.5000 -1.4520
12400TIP3   OH258614   4.772   3.293  11.181  0.4491 -0.6343  0.5997
12400TIP3    H158615   4.835   3.260  11.117  0.2129  0.4217 -0.1924
12400TIP3    H258616   4.750   3.381  11.151  1.2706  0.3948  2.8180
12401TIP3   OH258617   0.593   0.575   0.243  0.4819 -0.2120 -0.2403
12401TIP3    H158618   0.609   0.613   0.156 -1.1867  0.5607 -0.2601
12401TIP3    H258619   0.662   0.611   0.298  3.4096 -3.0154 -1.7666
12402TIP3   OH258620   1.097   3.973  11.082 -0.3176 -0.2223 -0.3979
12402TIP3    H158621   1.099   4.068  11.077  0.7569 -0.2668 -0.9675
12402TIP3    H258622   1.123   3.943  10.995 -0.7403 -1.0359 -0.2529
12403TIP3   OH258623   2.081   0.262   0.597  0.9113 -0.5591 -0.5496
12403TIP3    H158624   2.166   0.220   0.610  1.6204  0.9218 -0.2104
12403TIP3    H258625   2.079   0.287   0.505  0.7986 -0.6752 -0.5795
12404TIP3   OH258626   5.126   1.059  14.367  0.4809 -0.1077  0.2322
12404TIP3    H158627   5.152   1.124  14.302 -1.3325 -0.5919 -1.0612
12404TIP3    H258628   5.137   1.103  14.451  0.2226  1.5256 -0.5577
12405TIP3   OH258629   1.190   1.243   3.931  0.3234  0.0332 -0.0782
12405TIP3    H158630   1.277   1.237   3.970  0.7622  1.3242 -0.7908
12405TIP3    H258631   1.163   1.334   3.945 -0.6799 -0.2116 -0.3348
12406TIP3   OH258632   0.339   3.300   1.611 -0.1081  0.1572  0.1108
12406TIP3    H158633   0.296   3.220   1.640 -0.7640  0.7733  0.8819
12406TIP3    H258634   0.315   3.366   1.677 -0.8592  1.3761 -1.3131
12407TIP3   OH258635   6.130   0.657   3.620 -0.2818  0.3787 -0.4865
12407TIP3    H158636   6.132   0.588   3.554 -1.9232  0.0314 -0.2055
12407TIP3    H258637   6.111   0.737   3.571 -0.6361  0.2600 -0.5465
12408TIP3   OH258638   4.972   0.242  11.497  0.0720  0.8356  0.0928
12408TIP3    H158639   4.945   0.247  11.405  2.9970 -4.6799 -1.5540
12408TIP3    H258640   5.066   0.258  11.494  0.1776  0.7835  2.1725
12409TIP3   OH258641   5.969   4.539  11.755 -0.2709 -0.5401  0.2047
12409TIP3    H158642   5.913   4.548  11.678 -1.0892  0.3363  0.8656
12409TIP3    H258643   5.990   4.629  11.779 -0.2028 -0.7868  1.1184
12410TIP3   OH258644   4.660   4.234  15.024 -0.1561 -1.2104  0.7644
12410TIP3    H158645   4.678   4.328  15.018 -0.6774 -1.0562  1.3961
12410TIP3    H258646   4.746   4.192  15.023  0.0599 -0.7726 -0.1328
12411TIP3   OH258647   4.972   1.519  16.356 -0.4516 -0.9421  0.9321
12411TIP3    H158648   5.016   1.446  16.312  0.1234  0.4693 -0.9898
12411TIP3    H258649   4.909   1.551  16.291  1.2387  1.9664  0.5571
12412TIP3   OH258650   4.026   4.069   1.846 -0.4740 -0.5731  0.2224
12412TIP3    H158651   4.052   4.003   1.781  0.4870  0.1698 -0.1591
12412TIP3    H258652   4.094   4.135   1.843 -2.8338  2.0074 -1.5416
12413TIP3   OH258653   0.964   6.699   5.422  0.2711  0.5253  0.3820
12413TIP3    H158654   1.043   6.646   5.416  0.4360  0.5525  1.9856
12413TIP3    H258655   0.984   6.764   5.490 -1.5850 -0.3183  1.8235
12414TIP3   OH258656   4.691   0.193  11.924  0.1647  0.2470  0.5803
12414TIP3    H158657   4.773   0.189  11.875 -0.9809 -1.0151 -1.3580
12414TIP3    H258658   4.690   0.113  11.976 -0.2710 -0.2165 -0.1385
12415TIP3   OH258659   4.692   5.508  10.861  0.1894  0.2515 -0.0208
12415TIP3    H158660   4.763   5.491  10.923  0.3614 -2.3483 -0.8257
12415TIP3    H258661   4.671   5.422  10.824 -3.0875  1.0222 -0.1723
12416TIP3   OH258662   2.994   1.366   2.499 -0.2734 -0.4527  0.2022
12416TIP3    H158663   2.964   1.439   2.553  0.7443 -0.0461  0.2334
12416TIP3    H258664   2.915   1.338   2.451 -1.0580 -0.4711  1.4681
12417TIP3   OH258665   6.046   2.128  16.077  0.2967 -0.8772 -0.3635
12417TIP3    H158666   6.129   2.083  16.092  0.0559 -1.1549  0.1416
12417TIP3    H258667   5.999   2.120  16.160 -0.0258 -0.2796 -0.4855
12418TIP3   OH258668   2.318   5.554   6.794  0.2906 -0.2987 -0.8812
12418TIP3    H158669   2.247   5.590   6.742  0.3950  1.1599 -0.0675
12418TIP3    H258670   2.394   5.608   6.773  0.7836 -0.8584 -0.5866
12419TIP3   OH258671   5.100   1.780  12.604 -0.2311  0.0081 -0.1495
12419TIP3    H158672   5.155   1.856  12.584  1.5903 -1.5369 -1.3673
12419TIP3    H258673   5.027   1.786  12.543  1.2369 -0.5055 -2.0359
12420TIP3   OH258674   6.110   5.191   3.435  0.1810 -0.6233  0.1475
12420TIP3    H158675   6.167   5.124   3.399 -0.3893 -1.0059 -0.0681
12420TIP3    H258676   6.097   5.165   3.527 -1.5076 -1.8666 -0.3946
12421TIP3   OH258677   4.660   6.045   3.046 -0.3100  0.1598 -0.3922
12421TIP3    H158678   4.696   5.956   3.047 -1.4829 -0.3297  0.3590
12421TIP3    H258679   4.583   6.040   3.102 -0.7331  1.5194 -0.8214
12422TIP3   OH258680   0.268   5.334   3.739  0.7117  0.2446  0.1634
12422TIP3    H158681   0.282   5.376   3.654  0.4413 -1.4552 -0.7618
12422TIP3    H258682   0.183   5.369   3.768 -1.6999 -2.6760 -2.6077
12423TIP3   OH258683   6.643   4.184   0.302 -0.0449 -0.3897 -0.0377
12423TIP3    H158684   6.667   4.185   0.209  1.4887  0.9280  0.3237
12423TIP3    H258685   6.717   4.142   0.345 -0.6883 -0.8718  0.6153
12424TIP3   OH258686   0.016   1.061  15.240  0.3409  0.1500 -0.1063
12424TIP3    H158687   0.053   1.118  15.307  0.5203  0.9349 -0.8531
12424TIP3    H258688  -0.024   1.121  15.177  0.7602 -0.5313 -1.0530
12425TIP3   OH258689   1.567   1.734  12.556  0.5103  0.0115  0.2932
12425TIP3    H158690   1.589   1.656  12.607 -1.3902  0.0747  1.3190
12425TIP3    H258691   1.641   1.793  12.568  0.4440 -0.2523  2.4720
12426TIP3   OH258692   3.632   3.348  16.560 -0.0008  0.4730 -0.3671
12426TIP3    H158693   3.655   3.306  16.477 -0.2669 -2.8800  1.1094
12426TIP3    H258694   3.715   3.356  16.607 -0.2253 -0.6039  0.2500
12427TIP3   OH258695   1.448   6.477   4.787  0.1624 -0.1305  0.3900
12427TIP3    H158696   1.471   6.424   4.711 -0.0842 -0.2828  0.4211
12427TIP3    H258697   1.389   6.421   4.839  2.3601 -1.0709  2.0334
12428TIP3   OH258698   1.828   3.662  14.392 -0.5600 -0.0424 -0.2230
12428TIP3    H158699   1.852   3.643  14.302 -1.2478 -2.1233 -0.0297
12428TIP3    H258700   1.733   3.672  14.391 -0.9027 -2.5410  0.5750
12429TIP3   OH258701   0.049   2.583   3.080  0.0440 -0.3898  0.0053
12429TIP3    H158702  -0.045   2.595   3.064  0.3058  0.6762 -0.8449
12429TIP3    H258703   0.053   2.530   3.159 -1.2802 -0.5149  0.0086
12430TIP3   OH258704   1.830   2.721  15.546  0.1814 -0.1611 -0.0117
12430TIP3    H158705   1.834   2.628  15.526  0.9843 -0.3732  1.0446
12430TIP3    H258706   1.736   2.740  15.552 -0.0302 -1.4893  2.2025
12431TIP3   OH258707   5.009   0.315   6.020  0.6475 -0.3120 -0.1945
12431TIP3    H158708   5.098   0.295   5.992  0.4616 -0.8113 -0.4483
12431TIP3    H258709   5.020   0.376   6.093  1.3151 -2.2384  1.4116
12432TIP3   OH258710   2.199   5.880   3.105 -0.5434  0.4973 -0.6483
12432TIP3    H158711   2.194   5.966   3.147 -0.7627 -0.6657  1.9173
12432TIP3    H258712   2.292   5.858   3.107 -0.5914  0.3109 -0.5202
12433TIP3   OH258713   0.637   2.105   6.440  0.0552 -0.0230  0.0111
12433TIP3    H158714   0.658   2.012   6.449  0.4292  0.0856  0.3228
12433TIP3    H258715   0.686   2.147   6.511  1.7852  0.6753 -1.5037
12434TIP3   OH258716   6.652   2.051  17.148  0.1888  0.4647 -0.3477
12434TIP3    H158717   6.727   2.043  17.206  0.6747  0.1735 -1.0003
12434TIP3    H258718   6.689   2.078  17.064 -0.5266  1.1199 -0.4637
12435TIP3   OH258719   1.264   4.278   1.162  0.0754  0.1883 -0.5760
12435TIP3    H158720   1.179   4.246   1.194  0.1423  0.9980  0.4643
12435TIP3    H258721   1.278   4.360   1.210  0.8345  0.7373 -1.7080
12436TIP3   OH258722   2.422   0.475   0.347 -0.1170 -0.2807  0.5915
12436TIP3    H158723   2.328   0.486   0.362 -0.2958 -1.7115  0.6768
12436TIP3    H258724   2.449   0.554   0.300 -1.3414  0.1775  0.6307
12437TIP3   OH258725   2.748   0.318  13.336 -0.5932 -0.2130  0.3409
12437TIP3    H158726   2.705   0.233  13.320  1.1443 -1.0487 -0.2153
12437TIP3    H258727   2.677   0.378  13.356 -2.3138 -0.9649 -2.8095
12438TIP3   OH258728   1.175   0.576  16.361 -0.0198  0.3967  0.3363
12438TIP3    H158729   1.185   0.522  16.283  1.1401 -0.0401  0.7647
12438TIP3    H258730   1.262   0.613  16.376 -0.7344  2.2609  0.1701
12439TIP3   OH258731   4.451   1.602  11.720  0.5877  0.1192 -0.8361
12439TIP3    H158732   4.513   1.530  11.732 -0.5462 -0.7631 -0.1440
12439TIP3    H258733   4.414   1.587  11.633  1.1381  0.5014 -1.1433
12440TIP3   OH258734   2.831   2.870  12.584  0.3884  0.8104 -0.2299
12440TIP3    H158735   2.916   2.865  12.540  0.2954  1.5047 -0.4998
12440TIP3    H258736   2.845   2.824  12.667  0.9270  0.6138 -0.4200
12441TIP3   OH258737   4.103   4.738  13.478 -0.1521 -0.3314  0.4414
12441TIP3    H158738   4.142   4.705  13.398  2.1562  0.7072  1.0542
12441TIP3    H258739   4.143   4.687  13.548 -0.9118 -0.1377  1.0399
12442TIP3   OH258740   1.788   3.912  12.099  0.2089  0.0755  0.3694
12442TIP3    H158741   1.739   3.876  12.025  0.0671 -1.6079  1.2335
12442TIP3    H258742   1.762   4.004  12.103 -1.7863 -0.4223 -0.0812
12443TIP3   OH258743   4.383   5.767  16.362  0.1287  0.5595 -0.4029
12443TIP3    H158744   4.339   5.683  16.344  0.7636 -0.4162  2.1825
12443TIP3    H258745   4.315   5.833  16.347 -1.1152 -0.6147 -0.1002
12444TIP3   OH258746   5.522   3.937   1.041 -0.2275  0.5637 -0.2881
12444TIP3    H158747   5.553   3.891   0.963 -0.4667 -0.0504 -0.0266
12444TIP3    H258748   5.442   3.981   1.013 -0.2576  0.4295 -0.4186
12445TIP3   OH258749   0.307   4.643  15.952  0.3303 -0.1431 -0.1553
12445TIP3    H158750   0.230   4.622  15.899  0.5614  0.4684 -0.7624
12445TIP3    H258751   0.313   4.739  15.947  0.1798 -0.0449  1.2518
12446TIP3   OH258752   1.137   0.327   1.788 -0.0101  0.5103 -0.0760
12446TIP3    H158753   1.131   0.415   1.750  1.5610  0.9293  0.5772
12446TIP3    H258754   1.186   0.339   1.869  0.8731 -1.0751 -0.3312
12447TIP3   OH258755   1.713   6.025   1.529  0.6261  0.4522  0.1239
12447TIP3    H158756   1.706   5.933   1.505  0.3169  0.6337 -0.5097
12447TIP3    H258757   1.770   6.026   1.606 -1.1830 -0.5028  1.5617
12448TIP3   OH258758   0.711   1.491  12.193 -0.3380  0.0396 -0.3396
12448TIP3    H158759   0.655   1.565  12.171  0.5442  0.1695 -2.4231
12448TIP3    H258760   0.776   1.527  12.253  0.5743  1.2220 -1.9626
12449TIP3   OH258761   5.803   4.036  14.850 -0.3825 -0.0088  0.1397
12449TIP3    H158762   5.749   4.110  14.878 -1.3708 -0.0478 -1.5466
12449TIP3    H258763   5.753   3.994  14.780  0.6009 -1.7087  0.3933
12450TIP3   OH258764   3.707   2.516   1.570  0.1021  0.0072  0.3824
12450TIP3    H158765   3.770   2.520   1.499 -0.8387 -1.3608 -0.5743
12450TIP3    H258766   3.636   2.574   1.543  0.1773  0.2427  0.6763
12451TIP3   OH258767   5.933   0.698   4.580 -0.5507  0.5633 -0.2191
12451TIP3    H158768   6.005   0.634   4.579 -0.0338  1.0880 -2.2690
12451TIP3    H258769   5.904   0.700   4.671  1.2549 -0.5368  0.4432
12452TIP3   OH258770   0.333   2.819  16.778  0.1144  0.0152  0.9578
12452TIP3    H158771   0.354   2.774  16.860  0.0623  2.2578  2.3069
12452TIP3    H258772   0.272   2.760  16.734  0.5185 -1.4960  2.2921
12453TIP3   OH258773   0.037   3.713  14.126 -0.2982 -0.6367 -0.0750
12453TIP3    H158774   0.045   3.730  14.219 -0.7896  0.3262 -0.1960
12453TIP3    H258775  -0.036   3.651  14.119  1.2300 -2.6025  0.3317
12454TIP3   OH258776   3.085   5.459   1.810  0.1370 -0.4022 -0.0792
12454TIP3    H158777   3.012   5.499   1.764  0.0060 -0.9919 -0.4073
12454TIP3    H258778   3.161   5.511   1.784  0.0913 -0.8095 -1.1100
12455TIP3   OH258779   4.504   4.865   3.398 -0.3204  0.5457  0.7430
12455TIP3    H158780   4.535   4.844   3.485  0.6238 -1.7068 -0.0782
12455TIP3    H258781   4.411   4.842   3.398 -0.4472  1.0472  1.2823
12456TIP3   OH258782   4.134   0.770   4.157 -0.0093 -0.0759  0.2202
12456TIP3    H158783   4.175   0.692   4.195  0.2757 -0.2389 -0.3983
12456TIP3    H258784   4.099   0.818   4.232 -1.7121 -1.6587  0.4958
12457TIP3   OH258785   0.548   4.812   4.877  0.1372  0.2108  0.5606
12457TIP3    H158786   0.635   4.788   4.847 -1.0622 -0.6154 -2.6533
12457TIP3    H258787   0.492   4.739   4.850 -1.9151  1.7852  0.3388
12458TIP3   OH258788   1.322   1.418   5.368 -0.3597 -0.0811  0.2480
12458TIP3    H158789   1.292   1.465   5.446 -2.3089 -1.1382  0.2041
12458TIP3    H258790   1.355   1.334   5.402  0.0794  0.0076  0.0466
12459TIP3   OH258791   5.354   0.606   1.909  0.4747 -0.1902 -0.2833
12459TIP3    H158792   5.394   0.674   1.964  0.9166 -2.7463  2.8825
12459TIP3    H258793   5.426   0.573   1.855  0.0980  2.1654 -2.4397
12460TIP3   OH258794   5.270   3.406  15.368  0.1236  0.0495 -0.1262
12460TIP3    H158795   5.261   3.350  15.291  1.5223  0.8734 -0.9252
12460TIP3    H258796   5.289   3.493  15.332  0.0740  0.6057  1.1467
12461TIP3   OH258797   5.174   0.797   5.800 -0.0064 -0.5052 -0.6010
12461TIP3    H158798   5.146   0.726   5.858 -2.0402  0.5241 -0.2378
12461TIP3    H258799   5.101   0.806   5.737  0.8422  0.3467 -1.4914
12462TIP3   OH258800   1.087   6.313  13.219  0.2220 -0.3995  0.4643
12462TIP3    H158801   1.137   6.297  13.140  0.1541 -2.3885  0.7793
12462TIP3    H258802   1.132   6.386  13.262 -0.3186  1.3893 -1.8215
12463TIP3   OH258803   6.231   1.581   2.368  0.5412 -0.1572 -0.0805
12463TIP3    H158804   6.238   1.577   2.272  1.2913 -0.4749 -0.0223
12463TIP3    H258805   6.148   1.624   2.384  0.2726 -0.3508 -0.8799
12464TIP3   OH258806   0.639   6.292  16.186  0.1720 -0.1041  0.1408
12464TIP3    H158807   0.672   6.246  16.263 -0.5185 -0.0710  0.4716
12464TIP3    H258808   0.717   6.318  16.137  0.6427  0.2068  1.0249
12465TIP3   OH258809   2.283   0.273   3.947 -0.3899  0.1389 -0.0211
12465TIP3    H158810   2.276   0.354   3.999 -2.6390  0.2360 -0.3738
12465TIP3    H258811   2.207   0.275   3.889  0.5045 -1.3736 -1.3319
12466TIP3   OH258812   1.934   3.113  13.006  0.3700 -0.1487  0.5003
12466TIP3    H158813   1.927   3.171  12.929  0.1912  0.2804  0.8336
12466TIP3    H258814   1.850   3.067  13.008 -0.5835  1.4997  1.7277
12467TIP3   OH258815   1.181   4.516   4.473 -0.0370  0.7844  0.1412
12467TIP3    H158816   1.172   4.574   4.549  0.2198 -0.0527  0.8251
12467TIP3    H258817   1.274   4.492   4.472 -0.4852 -1.1207  1.0163
12468TIP3   OH258818   3.600   1.989   4.966 -0.2744  0.3469  0.0639
12468TIP3    H158819   3.560   2.047   4.902  0.6473  0.0982 -0.7756
12468TIP3    H258820   3.582   1.901   4.933 -0.4257  0.1987  0.5429
12469TIP3   OH258821   3.164   6.397  15.004 -0.2235  0.1395 -0.2712
12469TIP3    H158822   3.172   6.492  14.994 -0.9825  0.3771  1.0739
12469TIP3    H258823   3.163   6.383  15.099  1.5310 -1.3865 -0.4138
12470TIP3   OH258824   1.302   1.694   3.002 -0.1055 -0.6183  0.5473
12470TIP3    H158825   1.298   1.723   3.093  1.8152 -0.4966  0.6178
12470TIP3    H258826   1.352   1.613   3.005  0.6222 -0.2143 -0.4913
12471TIP3   OH258827   4.140   2.425  13.403 -0.2588 -0.0923  0.0613
12471TIP3    H158828   4.052   2.411  13.367  0.8888 -2.0904 -2.2990
12471TIP3    H258829   4.153   2.352  13.463 -0.1291  0.0891  0.2552
12472TIP3   OH258830   5.228   5.506  14.560 -0.1827 -0.4194  0.0704
12472TIP3    H158831   5.225   5.433  14.498  2.0809 -0.7011  0.2243
12472TIP3    H258832   5.314   5.500  14.600 -0.7216  1.1443  1.5900
12473TIP3   OH258833   1.561   6.741   1.685  0.1935 -0.4475  0.5912
12473TIP3    H158834   1.521   6.716   1.768  2.1429 -0.8623  1.4383
12473TIP3    H258835   1.534   6.832   1.672  1.2968  0.2197  2.6021
12474TIP3   OH258836   1.302   1.688  12.598  0.3186 -0.4711  0.0580
12474TIP3    H158837   1.391   1.722  12.594 -0.2046  0.9442 -0.2509
12474TIP3    H258838   1.259   1.723  12.520 -0.8241 -0.1393  0.7927
12475TIP3   OH258839   3.548   5.379  16.591 -0.5319  0.5466  0.7060
12475TIP3    H158840   3.481   5.385  16.523 -0.8335 -0.3548  0.9200
12475TIP3    H258841   3.527   5.300  16.640  0.5811  0.3386  0.8844
12476TIP3   OH258842   1.549   4.399  10.184 -0.1206  0.3793  0.3610
12476TIP3    H158843   1.561   4.479  10.236 -0.4144  0.0400  0.9570
12476TIP3    H258844   1.455   4.396  10.166 -0.2529 -0.3227  1.1409
12477TIP3   OH258845   6.091   6.271  16.102  0.2094  0.1414  0.3069
12477TIP3    H158846   6.077   6.310  16.015 -1.8290 -0.3186  0.3690
12477TIP3    H258847   6.108   6.346  16.159 -1.0148  0.7212 -0.0545
12478TIP3   OH258848   5.821   2.401   1.956  0.2293  0.4228  0.3069
12478TIP3    H158849   5.878   2.478   1.965  0.5207  0.1962  0.4310
12478TIP3    H258850   5.767   2.402   2.035 -0.2542  0.8918 -0.0264
12479TIP3   OH258851   0.137   1.177   1.256  0.0159 -0.3908  0.0519
12479TIP3    H158852   0.231   1.163   1.270  0.3498  1.0567 -0.5452
12479TIP3    H258853   0.098   1.091   1.271  1.4879 -1.1383 -0.1574
12480TIP3   OH258854   1.054   5.760  11.208 -0.3541 -0.1526  0.2415
12480TIP3    H158855   1.006   5.717  11.138  1.1276 -1.6016  0.0619
12480TIP3    H258856   1.138   5.785  11.169 -0.6837  1.8733  0.6835
12481TIP3   OH258857   3.406   2.231  12.041 -0.0324  0.4236 -0.0592
12481TIP3    H158858   3.428   2.149  12.083  1.3060 -0.2735 -1.9503
12481TIP3    H258859   3.399   2.294  12.112  1.6985 -0.7509  1.2309
12482TIP3   OH258860   3.840   6.342   4.843 -0.5265 -0.4895 -0.0722
12482TIP3    H158861   3.859   6.355   4.750  2.0395 -1.8694  0.1650
12482TIP3    H258862   3.882   6.417   4.886 -2.0153  0.3413  0.0178
12483TIP3   OH258863   6.644   3.664   4.729 -0.1747 -0.2394 -0.2752
12483TIP3    H158864   6.718   3.673   4.789  0.1486  1.6254 -0.8923
12483TIP3    H258865   6.649   3.573   4.699  1.0853 -0.5130  0.6777
12484TIP3   OH258866   2.440   3.225  13.647  0.4543 -0.7071 -0.5664
12484TIP3    H158867   2.396   3.305  13.615  3.7248  1.3900 -0.2480
12484TIP3    H258868   2.431   3.229  13.742  2.3106  0.4543 -0.3964
12485TIP3   OH258869   6.377   1.362  12.390  0.2397  0.2096 -0.5256
12485TIP3    H158870   6.392   1.370  12.295  1.3047 -1.9463 -0.5864
12485TIP3    H258871   6.455   1.319  12.423 -1.2367 -1.5135  0.9108
12486TIP3   OH258872   2.613   5.987   5.202 -0.3514  0.1382 -0.5148
12486TIP3    H158873   2.625   5.911   5.146  2.0454 -0.3903  0.6031
12486TIP3    H258874   2.555   5.957   5.272 -1.1091 -0.0037 -1.1883
12487TIP3   OH258875   1.711   1.218   4.981  0.5624 -0.2279  0.5627
12487TIP3    H158876   1.806   1.234   4.976  0.5139 -0.0288  0.2774
12487TIP3    H258877   1.693   1.211   5.075  1.0020 -1.1074  0.5977
12488TIP3   OH258878   2.098   5.110   2.272 -0.0747 -0.6276  0.1547
12488TIP3    H158879   2.077   5.045   2.339 -0.5821 -0.4069  0.2099
12488TIP3    H258880   2.163   5.166   2.313 -2.0636  0.9311  1.3400
12489TIP3   OH258881   2.494   1.827  12.593 -0.3853 -0.3459 -0.1111
12489TIP3    H158882   2.456   1.858  12.511 -0.9216 -1.4838 -0.3092
12489TIP3    H258883   2.554   1.757  12.566  2.1025  1.5576  0.1575
12490TIP3   OH258884   3.851   3.458  14.929  0.0721 -0.0161 -0.1133
12490TIP3    H158885   3.808   3.401  14.864 -0.4143  1.2644 -0.9520
12490TIP3    H258886   3.862   3.542  14.884  2.8195 -0.0381  0.3001
12491TIP3   OH258887   3.441   5.000   1.198 -0.1658  0.3374 -0.6393
12491TIP3    H158888   3.357   4.987   1.153  0.0690  0.8611 -1.2381
12491TIP3    H258889   3.493   5.053   1.137  1.4087 -1.7756 -1.2436
12492TIP3   OH258890   2.139   5.256  12.757  0.6523  0.3568 -0.1111
12492TIP3    H158891   2.080   5.332  12.760 -1.3378 -1.1314  0.7593
12492TIP3    H258892   2.098   5.197  12.693  0.7834 -1.0281  1.0512
12493TIP3   OH258893   1.547   3.686   1.309  0.3786 -0.2014 -0.1950
12493TIP3    H158894   1.455   3.711   1.301  0.6093  0.8034  0.1525
12493TIP3    H258895   1.566   3.691   1.402  0.0314 -3.3369  0.1537
12494TIP3   OH258896   6.518   5.561  11.870  0.1942  0.2808 -0.0410
12494TIP3    H158897   6.469   5.636  11.905 -0.1794 -0.0519  0.1623
12494TIP3    H258898   6.582   5.541  11.937 -0.3892 -0.2295  0.3730
12495TIP3   OH258899   1.220   1.366  14.223  0.3959 -0.0355 -0.1105
12495TIP3    H158900   1.138   1.324  14.247  0.1651  1.5273  2.1867
12495TIP3    H258901   1.194   1.439  14.167  0.2039  0.3970  0.5313
12496TIP3   OH258902   1.970   1.881  14.624  0.0781 -0.1402  0.0572
12496TIP3    H158903   1.940   1.893  14.714  0.5773 -0.6689  0.2991
12496TIP3    H258904   1.891   1.892  14.571 -0.1624  0.5018  0.5296
12497TIP3   OH258905   1.933   3.256   0.420 -0.6660  0.1451 -0.1837
12497TIP3    H158906   1.949   3.349   0.405 -2.8479  0.6874  0.3919
12497TIP3    H258907   1.945   3.215   0.335  1.9870  0.6137 -0.1272
12498TIP3   OH258908   6.227   2.936   1.126 -0.2108 -0.3843 -0.0584
12498TIP3    H158909   6.136   2.912   1.107 -0.6135  0.7871  0.3161
12498TIP3    H258910   6.235   3.026   1.094  0.5596 -0.1596  0.7363
12499TIP3   OH258911   6.160   2.216   1.682  0.3056 -0.0262 -0.0357
12499TIP3    H158912   6.128   2.299   1.646 -0.2153 -0.5938 -0.9240
12499TIP3    H258913   6.097   2.194   1.751 -0.0113 -0.0732 -0.3360
12500TIP3   OH258914   2.971   4.509   4.775  0.0624 -0.5447  0.4796
12500TIP3    H158915   2.996   4.433   4.827 -0.0021  0.4123  1.9519
12500TIP3    H258916   2.889   4.483   4.733  0.5509 -1.6344  0.1590
12501TIP3   OH258917   6.072   4.804   4.839  0.1311  0.3050 -0.6472
12501TIP3    H158918   6.132   4.730   4.826  0.8749  0.8830 -0.5252
12501TIP3    H258919   6.081   4.856   4.759  0.7960  1.0999 -0.0652
12502TIP3   OH258920   5.027   1.236   4.814 -0.6340  0.2797 -0.5843
12502TIP3    H158921   5.028   1.155   4.866  0.7702 -0.2367 -1.3457
12502TIP3    H258922   4.945   1.232   4.765 -0.8909 -0.3606 -0.1151
12503TIP3   OH258923   2.243   4.970  14.702  0.0813 -0.2122 -0.3071
12503TIP3    H158924   2.239   4.947  14.609  1.0833  0.5890 -0.5717
12503TIP3    H258925   2.292   4.899  14.742 -0.6389 -0.7292 -0.3151
12504TIP3   OH258926   5.353   4.502   4.609  0.3662 -0.5402  0.2506
12504TIP3    H158927   5.259   4.502   4.629  0.1090 -1.5860 -0.8306
12504TIP3    H258928   5.395   4.469   4.688 -0.3169 -1.5076  0.2237
12505TIP3   OH258929   3.844   2.609   4.668 -0.0535 -0.2158  0.3172
12505TIP3    H158930   3.787   2.580   4.740 -3.4533  0.1926 -1.9801
12505TIP3    H258931   3.846   2.535   4.608  3.4397 -0.8723  1.0352
12506TIP3   OH258932   1.315   2.884  14.153  0.2702  0.1358 -0.4251
12506TIP3    H158933   1.303   2.874  14.247 -0.8772  0.3585 -0.5306
12506TIP3    H258934   1.409   2.900  14.142  0.7839 -1.9859  0.4798
12507TIP3   OH258935   0.967   1.107  11.671 -0.1433  0.5434  0.0430
12507TIP3    H158936   1.030   1.165  11.628  1.1864 -1.3694 -0.7363
12507TIP3    H258937   0.991   1.109  11.763 -0.2531  1.3896  0.0559
12508TIP3   OH258938   2.856   1.285   1.617 -0.1572 -0.4195 -0.3009
12508TIP3    H158939   2.788   1.223   1.592 -0.1590 -0.3260 -0.5348
12508TIP3    H258940   2.929   1.230   1.647 -0.3581 -0.5165  0.0058
12509TIP3   OH258941   0.148   4.712   4.312  0.1155 -0.4438  0.2593
12509TIP3    H158942   0.131   4.679   4.401 -0.6174 -0.1069  0.2509
12509TIP3    H258943   0.097   4.792   4.306 -0.5616 -0.9263 -0.7653
12510TIP3   OH258944   4.039   5.150   2.307  0.1689 -0.1953 -0.1259
12510TIP3    H158945   3.993   5.130   2.225 -1.6755  3.1007 -0.0912
12510TIP3    H258946   4.059   5.244   2.301  1.6681 -0.2534  2.4256
12511TIP3   OH258947   1.155   1.854   5.323  0.2624 -0.4345 -0.1934
12511TIP3    H158948   1.114   1.769   5.309  1.1076 -0.9054  0.1241
12511TIP3    H258949   1.120   1.884   5.407 -0.8046 -0.0015 -0.7808
12512TIP3   OH258950   5.500   1.758  13.445  0.2599  0.3581 -0.2796
12512TIP3    H158951   5.433   1.721  13.503  1.4239 -0.3556  0.6670
12512TIP3    H258952   5.507   1.850  13.471  0.7004  0.0693  0.6793
12513TIP3   OH258953   5.940   2.906   1.114 -0.6929 -0.4211  0.8110
12513TIP3    H158954   5.913   2.814   1.109 -2.3784 -0.0150  1.6874
12513TIP3    H258955   5.867   2.955   1.076  0.1699  0.5731  0.3788
12514TIP3   OH258956   5.864   4.618   1.815  0.2242 -1.0036  0.4597
12514TIP3    H158957   5.906   4.675   1.879  0.4977  1.5018 -1.7958
12514TIP3    H258958   5.771   4.640   1.820  0.2888 -0.5532 -0.1996
12515TIP3   OH258959   3.778   4.635   5.348  0.0878  0.2859 -0.6980
12515TIP3    H158960   3.856   4.661   5.300  0.1631 -0.3891 -0.9445
12515TIP3    H258961   3.797   4.547   5.381 -0.7707 -0.1176 -1.2345
12516TIP3   OH258962   3.587   4.037  15.255  0.0333 -0.9352  0.3242
12516TIP3    H158963   3.599   3.943  15.267  0.9278 -0.9331 -0.4034
12516TIP3    H258964   3.604   4.051  15.162  0.9363  0.0916  0.6273
12517TIP3   OH258965   2.463   1.817   5.563 -0.0426 -0.0969  0.0171
12517TIP3    H158966   2.547   1.859   5.582 -0.9763  1.4713  0.8668
12517TIP3    H258967   2.479   1.765   5.484  1.8458 -0.2531  0.4547
12518TIP3   OH258968   5.302   3.333   4.968  0.2981  0.2019  0.4404
12518TIP3    H158969   5.259   3.259   5.011  1.7252 -1.1216 -0.3121
12518TIP3    H258970   5.240   3.405   4.977 -1.1907 -1.1028  1.1021
12519TIP3   OH258971   4.486   1.159   6.061  0.1561  0.6055  0.0787
12519TIP3    H158972   4.536   1.237   6.036  0.7496  0.4996  0.8991
12519TIP3    H258973   4.442   1.183   6.142 -1.0692  0.6597 -0.5794
12520TIP3   OH258974   6.048   4.171   1.763 -0.7971  0.0532  0.0718
12520TIP3    H158975   6.124   4.221   1.794  0.0807 -0.2087 -1.5390
12520TIP3    H258976   6.014   4.128   1.841  1.0446 -0.2462  0.7677
12521TIP3   OH258977   3.035   4.312  11.860  0.0560  0.3546  0.3812
12521TIP3    H158978   2.980   4.386  11.835 -0.5301 -0.2449 -0.1747
12521TIP3    H258979   2.992   4.236  11.819  0.3959 -0.3466  1.2968
12522TIP3   OH258980   0.361   5.354   5.409  0.3094  0.3277 -0.4060
12522TIP3    H158981   0.377   5.281   5.469 -0.4242  0.6868  0.2311
12522TIP3    H258982   0.266   5.366   5.409  0.4982  2.0848  0.4563
12523TIP3   OH258983   5.061   3.456   2.932  0.1637  0.1028 -0.6741
12523TIP3    H158984   5.153   3.467   2.910 -0.2543  1.9066 -1.7743
12523TIP3    H258985   5.040   3.367   2.905  2.1851 -1.3967  2.1382
12524TIP3   OH258986   6.551   4.933  13.564 -0.4051 -0.8305 -0.2023
12524TIP3    H158987   6.580   4.981  13.642 -1.0364 -1.2653  0.3128
12524TIP3    H258988   6.597   4.975  13.491 -0.1082 -0.1619  0.3600
12525TIP3   OH258989   2.656   4.849  11.489 -0.1781 -0.0214  0.0225
12525TIP3    H158990   2.739   4.803  11.479 -0.2380 -0.0388 -0.3869
12525TIP3    H258991   2.655   4.877  11.581  0.6634  0.7232 -0.1799
12526TIP3   OH258992   2.586   5.188   4.309  0.4192  0.1081  0.5198
12526TIP3    H158993   2.572   5.181   4.214 -0.7121 -2.3923  0.7885
12526TIP3    H258994   2.663   5.245   4.318 -0.9262  2.4964 -1.7447
12527TIP3   OH258995   2.409   1.468   5.921  0.2740  0.2579  0.0910
12527TIP3    H158996   2.423   1.550   5.874  1.8193  0.1688  0.3663
12527TIP3    H258997   2.436   1.487   6.011  1.4558 -0.7703 -0.0237
12528TIP3   OH258998   4.468   6.524  15.892  0.3941 -0.0934  0.1451
12528TIP3    H158999   4.469   6.518  15.796 -0.1987  0.0555  0.1229
12528TIP3    H259000   4.543   6.473  15.920  0.8976  0.3117 -0.4260
12529TIP3   OH259001   3.463   5.836  15.597  0.2080  0.2228  0.0972
12529TIP3    H159002   3.524   5.893  15.549 -0.2900  0.4755 -0.2447
12529TIP3    H259003   3.493   5.747  15.577  0.8451  0.3486  0.4408
12530TIP3   OH259004   5.200   5.556  14.828 -0.2270  0.5643  0.0379
12530TIP3    H159005   5.172   5.547  14.737 -0.1188  1.8274 -0.1398
12530TIP3    H259006   5.141   5.498  14.877  1.0294 -1.7706 -1.0264
12531TIP3   OH259007   3.257   4.057  16.945  0.0406 -0.6747 -0.2936
12531TIP3    H159008   3.176   4.103  16.923  0.0778  0.1809  1.1907
12531TIP3    H259009   3.301   4.044  16.861  0.0902  2.1747 -0.7988
12532TIP3   OH259010   5.216   3.107   4.451  0.3776  0.3033  0.2685
12532TIP3    H159011   5.198   3.090   4.358 -1.8635  1.4499  0.4295
12532TIP3    H259012   5.300   3.064   4.467  0.7077 -0.1424 -2.2204
12533TIP3   OH259013   3.841   0.590   5.068 -1.0565 -0.6025 -0.4958
12533TIP3    H159014   3.775   0.657   5.086  1.0952  1.5010  0.0945
12533TIP3    H259015   3.858   0.551   5.153  1.2878  1.7615  0.2707
12534TIP3   OH259016   3.218   1.128   3.762  0.3253  0.4672  0.1239
12534TIP3    H159017   3.148   1.134   3.827  0.9870 -0.8891  1.0103
12534TIP3    H259018   3.297   1.152   3.810  0.6441  0.8212 -0.5599
12535TIP3   OH259019   0.698   1.270  14.706  0.2883  1.1632  0.8194
12535TIP3    H159020   0.695   1.360  14.674  3.3107  0.9393 -0.4239
12535TIP3    H259021   0.696   1.217  14.626  3.0648  0.3969  1.1460
12536TIP3   OH259022   5.503   5.339   3.392 -0.1048  0.6100  0.2133
12536TIP3    H159023   5.505   5.295   3.478 -1.1360  0.2490  0.0645
12536TIP3    H259024   5.589   5.321   3.355 -0.6034 -1.6497 -0.0051
12537TIP3   OH259025   5.804   1.070  16.043 -0.4086 -0.2636 -0.1570
12537TIP3    H159026   5.898   1.084  16.044 -0.1065 -2.0602  1.1599
12537TIP3    H259027   5.766   1.159  16.038  1.3304  0.5888  0.8410
12538TIP3   OH259028   2.558   4.502   2.978 -0.7778 -0.0226 -0.0205
12538TIP3    H159029   2.475   4.454   2.982 -2.1780  2.3027  1.9517
12538TIP3    H259030   2.565   4.543   3.065  2.0483  0.5301 -0.4380
12539TIP3   OH259031   2.885   6.459  12.402  0.1640 -0.3238 -0.3078
12539TIP3    H159032   2.916   6.454  12.492 -0.5935 -0.9067 -0.0652
12539TIP3    H259033   2.914   6.545  12.371  1.8518 -0.7725 -0.0623
12540TIP3   OH259034   3.188   3.930   0.343  0.7937  0.0344 -0.3519
12540TIP3    H159035   3.097   3.919   0.315 -0.1225  1.5361  1.7610
12540TIP3    H259036   3.208   4.021   0.322  1.0289  0.3535  1.1499
12541TIP3   OH259037   3.660   0.600   5.593  0.0383 -0.4775 -0.1887
12541TIP3    H159038   3.570   0.613   5.623  0.0677 -1.7611  0.5170
12541TIP3    H259039   3.711   0.592   5.674  0.5880 -0.9417 -0.5744
12542TIP3   OH259040   5.754   1.927  15.108 -0.2465  0.6153 -0.6492
12542TIP3    H159041   5.674   1.878  15.129  0.1512  0.1803 -0.1187
12542TIP3    H259042   5.805   1.926  15.189  0.7571  0.0033 -1.2671
12543TIP3   OH259043   6.729   3.897  15.533  0.1252 -0.3355  0.4216
12543TIP3    H159044   6.774   3.981  15.522 -0.3674 -0.3261 -2.2215
12543TIP3    H259045   6.637   3.920  15.547  0.2907 -0.4387  1.8421
12544TIP3   OH259046   3.227   2.404  16.272 -0.1508  0.4998 -0.2368
12544TIP3    H159047   3.175   2.470  16.318  0.4625  1.2478 -0.5987
12544TIP3    H259048   3.176   2.323  16.282 -1.9904  1.4117 -1.5343
12545TIP3   OH259049   0.296   0.913  16.391  0.3134  0.1082 -0.1519
12545TIP3    H159050   0.350   0.836  16.372  0.0171 -0.2672  0.5042
12545TIP3    H259051   0.282   0.910  16.485  1.3726  1.6878  0.0832
12546TIP3   OH259052   1.064   5.581  12.825  0.0181 -0.1254  0.0265
12546TIP3    H159053   0.979   5.622  12.810  0.5847  0.8230 -0.7665
12546TIP3    H259054   1.066   5.564  12.919 -0.7824  0.4607  0.1660
12547TIP3   OH259055   1.703   3.279   0.075  0.0550 -0.5833  0.1541
12547TIP3    H159056   1.795   3.256   0.065  0.9422  2.5734  0.1186
12547TIP3    H259057   1.683   3.330  -0.004 -2.1946 -2.3277 -0.5219
12548TIP3   OH259058   1.105   4.981  14.048 -0.0326  0.8006 -0.3050
12548TIP3    H159059   1.016   4.997  14.080  0.0627  0.2325  0.2969
12548TIP3    H259060   1.160   5.037  14.103  0.0683  0.3561  0.0559
12549TIP3   OH259061   5.226   4.877   4.563 -0.1108  0.1710 -0.2473
12549TIP3    H159062   5.245   4.916   4.648 -2.8962  1.3422 -0.0628
12549TIP3    H259063   5.135   4.849   4.570  0.1361 -1.3611 -2.2871
12550TIP3   OH259064   6.098   4.712  16.968  0.1822 -0.1410 -0.3071
12550TIP3    H159065   6.194   4.716  16.967  0.2378 -0.7221  0.8139
12550TIP3    H259066   6.074   4.742  17.056 -0.7109  0.6272 -0.7937
12551TIP3   OH259067   5.544   2.226   1.100  0.6344 -0.5732  0.1218
12551TIP3    H159068   5.580   2.174   1.029  0.1676 -1.5405  0.5686
12551TIP3    H259069   5.453   2.244   1.074 -0.0300 -2.2328  1.1042
12552TIP3   OH259070   3.324   4.082  12.760  0.5403 -0.2487  0.5723
12552TIP3    H159071   3.276   4.097  12.679  1.0975 -0.6474  0.1627
12552TIP3    H259072   3.410   4.052  12.732  0.4530 -1.2482  1.3172
12553TIP3   OH259073   0.113   2.584   2.143 -0.2636  0.1919  0.0922
12553TIP3    H159074   0.199   2.621   2.126 -0.2955  0.4013  0.3832
12553TIP3    H259075   0.130   2.511   2.202 -0.3179  0.4258  0.3982
12554TIP3   OH259076   1.557   5.057   1.300  0.5613 -0.8148  0.1224
12554TIP3    H159077   1.618   5.017   1.239  0.0582  0.0014 -0.9612
12554TIP3    H259078   1.568   5.008   1.381  1.2148 -1.9640 -0.6324
12555TIP3   OH259079   3.187   2.421  13.729  0.0002  0.2538 -0.1326
12555TIP3    H159080   3.235   2.430  13.811 -0.8825  0.5165  0.3681
12555TIP3    H259081   3.100   2.391  13.756 -0.1399 -0.1717 -1.0165
12556TIP3   OH259082   6.258   1.591   5.637 -0.2022 -0.3048  0.1957
12556TIP3    H159083   6.245   1.543   5.555  0.6509 -1.2869  0.6098
12556TIP3    H259084   6.191   1.659   5.636  1.7615  1.8187 -2.8142
12557TIP3   OH259085   2.063   6.235   4.404 -0.1891  0.0551 -0.4604
12557TIP3    H159086   2.031   6.151   4.436 -0.5125  1.2097  2.5992
12557TIP3    H259087   2.152   6.217   4.374 -0.6208 -1.5471 -0.8799
12558TIP3   OH259088   0.633   0.174   1.628 -0.2872  0.4172 -0.3934
12558TIP3    H159089   0.702   0.240   1.620 -0.2969  0.4189 -0.4676
12558TIP3    H259090   0.567   0.201   1.564  0.9687 -1.2293 -2.4952
12559TIP3   OH259091   1.111   3.401   2.186 -0.5535  0.2727  0.3010
12559TIP3    H159092   1.052   3.390   2.260  0.7864  1.7026  1.6401
12559TIP3    H259093   1.190   3.439   2.223  1.4315 -1.9465 -1.3551
12560TIP3   OH259094   3.224   0.476  12.498  0.5345  0.0391  0.7504
12560TIP3    H159095   3.195   0.452  12.410  1.2366 -0.4526  0.6461
12560TIP3    H259096   3.187   0.564  12.512 -0.8908 -0.5148  0.5968
12561TIP3   OH259097   2.224   6.005  13.502  0.5044 -0.2492  0.2148
12561TIP3    H159098   2.173   5.948  13.444  1.0545  0.6736 -1.2399
12561TIP3    H259099   2.177   6.088  13.502  0.4778 -0.2570  1.1704
12562TIP3   OH259100   3.987   4.105   5.005  0.0264  0.4333 -0.2396
12562TIP3    H159101   4.003   4.034   5.068  1.6151  1.1522  0.2104
12562TIP3    H259102   3.892   4.100   4.989  0.2884 -2.9553 -1.6821
12563TIP3   OH259103   0.410   6.456   4.023 -1.0504 -0.7690 -0.1801
12563TIP3    H159104   0.396   6.382   4.081 -3.2685  0.2206  0.6355
12563TIP3    H259105   0.350   6.523   4.054  1.2492  1.6313 -0.5092
12564TIP3   OH259106   0.064   5.112   1.401 -0.3028  0.3155  0.6499
12564TIP3    H159107   0.095   5.083   1.487 -0.0307 -1.0727  0.1061
12564TIP3    H259108   0.126   5.181   1.376  2.0669 -1.8813 -0.0874
12565TIP3   OH259109   5.333   3.077  11.816 -0.3532 -0.2606  0.2709
12565TIP3    H159110   5.353   3.168  11.838 -0.0124 -0.2783  0.0386
12565TIP3    H259111   5.264   3.053  11.877  0.4900 -0.2723  1.2492
12566TIP3   OH259112   6.261   3.800  14.290 -0.2556 -0.5095  0.3726
12566TIP3    H159113   6.300   3.873  14.242 -0.6999 -0.3199  0.2885
12566TIP3    H259114   6.181   3.836  14.327 -0.1862 -0.8034  0.8133
12567TIP3   OH259115   6.221   3.792  14.887  0.1479 -0.5020  0.4848
12567TIP3    H159116   6.229   3.844  14.967 -0.6747 -0.6777  0.6907
12567TIP3    H259117   6.310   3.766  14.866  0.1972 -2.2520  2.5339
12568TIP3   OH259118   4.072   2.735   1.029 -0.3300 -0.2245 -0.2557
12568TIP3    H159119   4.100   2.735   1.121 -1.6710  2.1059  0.2222
12568TIP3    H259120   4.153   2.731   0.979  0.6084  1.2221  1.0578
12569TIP3   OH259121   3.651   3.378   1.781 -0.3129 -0.0919 -0.3954
12569TIP3    H159122   3.570   3.390   1.731 -0.1376  1.5646 -0.3358
12569TIP3    H259123   3.716   3.353   1.716 -0.3783  0.8023 -0.8223
12570TIP3   OH259124   1.223   1.032  14.113 -0.0634 -0.1408  0.1486
12570TIP3    H159125   1.188   1.068  14.031 -0.1520 -0.7088 -0.0698
12570TIP3    H259126   1.215   0.937  14.102 -0.3178 -0.2135  0.9256
12571TIP3   OH259127   2.225   0.914  11.772 -0.1050  0.0663 -0.4124
12571TIP3    H159128   2.200   0.879  11.687 -0.4554  0.7333 -0.5954
12571TIP3    H259129   2.142   0.928  11.818 -0.0907  1.8954 -0.8639
12572TIP3   OH259130   0.775   6.330   3.250 -0.2174 -0.9253 -0.4370
12572TIP3    H159131   0.704   6.344   3.187 -0.9529 -1.1885  0.3059
12572TIP3    H259132   0.830   6.407   3.242 -1.6083  0.1880  0.2673
12573TIP3   OH259133   3.482   1.301   0.218 -0.7213 -0.1746 -0.0285
12573TIP3    H159134   3.406   1.243   0.224 -0.8068 -0.2499 -1.4871
12573TIP3    H259135   3.512   1.310   0.309 -0.9098 -2.2238  0.2910
12574TIP3   OH259136   4.134   1.767  12.072  0.3210  0.3587 -0.0216
12574TIP3    H159137   4.106   1.703  12.006 -0.0525  0.3153  0.1789
12574TIP3    H259138   4.213   1.807  12.034  0.3019  0.0966 -0.3452
12575TIP3   OH259139   4.544   5.615   4.012 -0.0011  0.2212  0.2818
12575TIP3    H159140   4.500   5.662   3.941 -1.5351  0.0814  1.1162
12575TIP3    H259141   4.633   5.651   4.012 -0.8515  2.5091  0.3028
12576TIP3   OH259142   1.830   4.960   1.646  1.0456 -0.8592  0.1218
12576TIP3    H159143   1.886   5.037   1.636 -0.0375 -0.0658 -0.0137
12576TIP3    H259144   1.842   4.912   1.564  0.6056 -0.0596 -0.4239
12577TIP3   OH259145   2.974   6.131   1.608  0.1638 -0.4786  0.3586
12577TIP3    H159146   3.036   6.161   1.542  1.4331 -2.8640  0.3665
12577TIP3    H259147   2.963   6.206   1.667 -1.2747  1.8794 -2.6004
12578TIP3   OH259148   1.394   6.541   5.196 -0.3010  0.0923 -0.6106
12578TIP3    H159149   1.485   6.568   5.191 -0.2473  0.1450  0.4241
12578TIP3    H259150   1.392   6.457   5.150  0.1378  0.3835 -1.1766
12579TIP3   OH259151   2.264   4.253  15.327 -0.0493  0.0446 -0.3740
12579TIP3    H159152   2.332   4.296  15.379  1.6832 -1.9791 -0.8117
12579TIP3    H259153   2.218   4.325  15.283  1.6287  1.5202  0.1651
12580TIP3   OH259154   6.694   6.248  15.841  0.2832 -0.1548 -0.2731
12580TIP3    H159155   6.686   6.337  15.873 -0.8106  0.1664 -1.3871
12580TIP3    H259156   6.657   6.194  15.911  0.1480  0.3309  0.0308
12581TIP3   OH259157   6.175   3.558   5.203  0.0189 -0.1186  0.2701
12581TIP3    H159158   6.127   3.480   5.228  2.7886 -2.0125  0.1867
12581TIP3    H259159   6.219   3.586   5.283  1.4842 -0.5687 -0.3361
12582TIP3   OH259160   4.085   5.827   1.205  0.3334  1.0895  0.3613
12582TIP3    H159161   4.103   5.904   1.152  1.0279  2.2541  2.1652
12582TIP3    H259162   3.995   5.803   1.184 -0.6178  3.6328  1.1592
12583TIP3   OH259163   6.267   3.351  12.550  0.2865  0.1955  0.2248
12583TIP3    H159164   6.172   3.346  12.558  0.1885  1.8436  0.3391
12583TIP3    H259165   6.293   3.262  12.525 -1.2512 -0.3347  0.3933
12584TIP3   OH259166   0.515   1.520   0.851 -0.2064  0.0537  0.4234
12584TIP3    H159167   0.568   1.590   0.889 -0.7576  0.4833  0.4117
12584TIP3    H259168   0.463   1.563   0.783  0.0133 -0.5116 -0.1133
12585TIP3   OH259169   6.057   0.477   4.241  0.0092  0.2794  0.0884
12585TIP3    H159170   6.044   0.508   4.152 -1.1300  0.7344  0.4001
12585TIP3    H259171   6.015   0.543   4.296  0.6808 -0.0026  0.9642
12586TIP3   OH259172   2.559   6.231   3.204 -0.0261 -0.0383 -0.1746
12586TIP3    H159173   2.548   6.162   3.138  0.3055 -0.1320 -0.1353
12586TIP3    H259174   2.629   6.198   3.261  0.1253  0.3240 -0.1488
12587TIP3   OH259175   5.081   4.708   3.237  0.1263  0.1974 -0.2717
12587TIP3    H159176   5.015   4.731   3.171 -0.6922  1.8582  1.0379
12587TIP3    H259177   5.158   4.760   3.213  0.6036 -0.8531 -1.1224
12588TIP3   OH259178   5.783   4.890   4.203  0.6751  0.3355  0.4277
12588TIP3    H159179   5.848   4.820   4.196  0.0110 -0.2991  0.4593
12588TIP3    H259180   5.719   4.856   4.265 -0.4883  0.3158 -0.7579
12589TIP3   OH259181   6.456   1.471   3.450 -0.9030 -0.4321 -0.4966
12589TIP3    H159182   6.365   1.445   3.433 -1.2330 -1.5964  2.4748
12589TIP3    H259183   6.468   1.458   3.544  1.9971  0.9147 -0.5588
12590TIP3   OH259184   1.579   0.357  11.480  0.6732  0.5939  0.0205
12590TIP3    H159185   1.631   0.377  11.402  0.0136  2.5298  0.0335
12590TIP3    H259186   1.498   0.319  11.446  0.6017  0.9546 -0.2186
12591TIP3   OH259187   4.207   3.390   0.620 -0.4961 -0.1108 -0.2619
12591TIP3    H159188   4.175   3.414   0.707  1.0031  1.6930 -0.1456
12591TIP3    H259189   4.215   3.295   0.622  1.8576  0.0377  2.4803
12592TIP3   OH259190   1.428   3.328  16.127 -0.2148  0.7174  0.1624
12592TIP3    H159191   1.393   3.399  16.072 -0.4520 -1.0873 -2.1878
12592TIP3    H259192   1.516   3.312  16.092 -0.5450 -0.7933 -0.0488
12593TIP3   OH259193   1.701   1.988  15.512 -0.1035  0.4910  0.1799
12593TIP3    H159194   1.763   2.062  15.515 -0.0653  0.4697 -0.0849
12593TIP3    H259195   1.681   1.971  15.604 -0.8602  1.4613  0.2116
12594TIP3   OH259196   5.001   4.296  16.547 -0.4971  0.3168  0.6539
12594TIP3    H159197   4.955   4.320  16.627 -0.6541 -0.6167  0.8506
12594TIP3    H259198   5.026   4.380  16.508 -3.0679  0.9199  0.1118
12595TIP3   OH259199   4.919   2.910   4.085 -0.0259  0.1667  0.1677
12595TIP3    H159200   4.879   2.824   4.070  1.1175 -0.5857  1.2095
12595TIP3    H259201   4.856   2.956   4.140  0.4679 -0.9921  1.7693
12596TIP3   OH259202   0.484   5.972   1.340 -0.5659  0.4889  0.7486
12596TIP3    H159203   0.532   6.026   1.404  0.3279 -0.2955  0.7712
12596TIP3    H259204   0.435   5.910   1.394  0.0803 -0.0837  0.6927
12597TIP3   OH259205   4.818   0.858   5.006 -0.2158 -0.3764  0.7374
12597TIP3    H159206   4.855   0.773   4.986 -0.2998 -0.3424  0.4189
12597TIP3    H259207   4.893   0.918   5.009 -0.1933 -0.3944  0.5741
12598TIP3   OH259208   3.186   1.479  13.063  0.0876 -0.1969 -0.3455
12598TIP3    H159209   3.271   1.521  13.078 -0.7531  1.3302  0.2819
12598TIP3    H259210   3.125   1.527  13.118 -1.3871 -0.5878 -1.5851
12599TIP3   OH259211   0.493   0.206  14.696  0.3741  0.6541 -0.2901
12599TIP3    H159212   0.477   0.178  14.786  0.6217 -2.3104 -1.0593
12599TIP3    H259213   0.589   0.210  14.689  0.3451  2.3173 -0.0752
12600TIP3   OH259214   3.229   4.402  10.548  0.2937 -0.5668  0.0978
12600TIP3    H159215   3.165   4.470  10.568  0.1946 -0.4525 -0.5662
12600TIP3    H259216   3.302   4.420  10.607  0.4264  0.3565 -0.3114
12601TIP3   OH259217   1.898   4.550  17.248 -0.3398  0.0121 -0.5783
12601TIP3    H159218   1.956   4.502  17.189  0.9529  0.3686  0.3611
12601TIP3    H259219   1.948   4.558  17.330 -1.2544  1.3450 -0.1139
12602TIP3   OH259220   2.162   0.313   3.174  0.0396  0.6460  0.3367
12602TIP3    H159221   2.107   0.246   3.214 -0.4591  0.3127 -0.8789
12602TIP3    H259222   2.200   0.360   3.249  0.1694 -0.7882  1.2111
12603TIP3   OH259223   6.390   5.593   4.500 -0.2305  0.0313  0.3749
12603TIP3    H159224   6.419   5.549   4.580  3.4879 -1.3302 -1.5104
12603TIP3    H259225   6.317   5.540   4.468  1.5863 -2.5300  0.2503
12604TIP3   OH259226   4.762   5.268   6.346  0.7070  0.2331  0.2017
12604TIP3    H159227   4.802   5.353   6.329  0.7768  0.0094 -0.8058
12604TIP3    H259228   4.668   5.285   6.341  0.7222  0.2374 -0.1195
12605TIP3   OH259229   5.314   2.781  12.192 -0.2312 -0.0455 -0.2468
12605TIP3    H159230   5.357   2.818  12.269  1.0478 -0.1954 -0.8543
12605TIP3    H259231   5.354   2.695  12.181  1.2557  0.8037 -2.2969
12606TIP3   OH259232   0.153   2.650   0.154 -0.3382 -0.3663 -0.4041
12606TIP3    H159233   0.102   2.616   0.228 -0.4345 -0.7324 -0.6338
12606TIP3    H259234   0.145   2.745   0.161 -1.8254 -0.4120 -0.9496
12607TIP3   OH259235   4.278   5.280   4.429 -0.5461  0.3814  0.3719
12607TIP3    H159236   4.269   5.341   4.503  0.3889 -0.7684  1.4841
12607TIP3    H259237   4.306   5.335   4.356 -1.5250  1.5581  0.8505
12608TIP3   OH259238   2.068   2.701   0.651 -0.0732 -0.7305  0.5449
12608TIP3    H159239   1.995   2.763   0.645 -0.5469 -1.2999  0.3205
12608TIP3    H259240   2.047   2.647   0.727 -0.8653 -2.1208 -0.6209
12609TIP3   OH259241   1.065   0.642  11.976 -0.0887  0.1711 -0.1885
12609TIP3    H159242   1.112   0.593  12.043 -0.3007 -0.1317 -0.2624
12609TIP3    H259243   1.067   0.586  11.899  1.9659  1.3754 -1.0940
12610TIP3   OH259244   3.688   6.087   2.955  0.3270  0.0155 -0.7464
12610TIP3    H159245   3.737   6.153   2.906  0.3862  1.1905  0.7972
12610TIP3    H259246   3.748   6.060   3.025  0.4042 -1.9271 -1.4832
12611TIP3   OH259247   0.693   0.276  16.383 -0.1720 -0.2023 -0.1758
12611TIP3    H159248   0.598   0.266  16.380 -0.0060 -2.2133 -0.6201
12611TIP3    H259249   0.715   0.328  16.306 -0.8234 -1.0038 -0.9280
12612TIP3   OH259250   3.836   6.508  14.116 -0.2113 -0.0537  0.3285
12612TIP3    H159251   3.856   6.599  14.139  0.1348 -0.2284  0.7526
12612TIP3    H259252   3.744   6.510  14.090 -0.3411  0.3440  0.7744
12613TIP3   OH259253   4.708   2.835  15.313  0.1131 -0.1551  0.2165
12613TIP3    H159254   4.791   2.840  15.361 -0.4807  1.7244  1.1846
12613TIP3    H259255   4.733   2.815  15.223  1.9474  2.9229 -0.1143
12614TIP3   OH259256   1.953   6.130  14.004 -0.4260  0.4161  0.4017
12614TIP3    H159257   1.911   6.205  14.045 -0.4019  1.8132 -1.9100
12614TIP3    H259258   2.042   6.160  13.985 -0.9497  0.5442 -2.2074
12615TIP3   OH259259   4.977   0.785  14.815 -0.0414 -0.0351 -0.1463
12615TIP3    H159260   4.995   0.848  14.885 -0.8877 -0.3909  0.4053
12615TIP3    H259261   5.035   0.711  14.835 -0.5823 -0.3110  0.4281
12616TIP3   OH259262   3.193   2.087  11.673  0.0868 -0.1297  0.9719
12616TIP3    H159263   3.277   2.115  11.707  0.0989  1.5948 -0.3247
12616TIP3    H259264   3.214   2.040  11.592 -0.1468 -0.7780  1.2796
12617TIP3   OH259265   1.723   3.308   2.747 -0.3729 -0.3934 -0.4394
12617TIP3    H159266   1.665   3.234   2.767 -0.8544 -0.6550 -2.5944
12617TIP3    H259267   1.684   3.350   2.671  0.9731  0.9105 -0.4664
12618TIP3   OH259268   2.534   3.722   3.367  0.1564  0.8046 -0.2053
12618TIP3    H159269   2.518   3.724   3.273  1.7116  0.9017 -0.4964
12618TIP3    H259270   2.514   3.811   3.397  2.1734  1.5589 -0.9336
12619TIP3   OH259271   2.977   3.910  12.815  0.1545 -0.5432 -0.3952
12619TIP3    H159272   2.909   3.868  12.762  0.1140 -1.8574  0.6265
12619TIP3    H259273   2.939   3.993  12.842 -1.5553 -1.6917  1.0331
12620TIP3   OH259274   2.145   1.336   3.873 -0.9048  0.3542 -0.1318
12620TIP3    H159275   2.118   1.421   3.907  1.3216  1.0171  0.1712
12620TIP3    H259276   2.204   1.301   3.940 -0.9700 -0.9732 -0.7293
12621TIP3   OH259277   2.166   5.635  17.029  0.9165  0.0930  0.2604
12621TIP3    H159278   2.244   5.652  16.976  1.1536  0.8294  0.8236
12621TIP3    H259279   2.148   5.718  17.072  0.6418 -0.4497  1.2150
12622TIP3   OH259280   4.527   4.299  17.370 -0.0710  0.0368 -0.2803
12622TIP3    H159281   4.502   4.372  17.427 -0.7226  0.1967 -0.7694
12622TIP3    H259282   4.593   4.335  17.312 -1.1738  0.5480 -1.2463
12623TIP3   OH259283   4.135   1.262   4.677  0.3004  0.3181 -0.0174
12623TIP3    H159284   4.052   1.309   4.666 -0.4004 -0.4755  1.5240
12623TIP3    H259285   4.112   1.185   4.730  1.9434 -0.1604  0.0545
12624TIP3   OH259286   0.281   3.476  12.582 -0.0557 -0.2108 -0.6230
12624TIP3    H159287   0.245   3.513  12.663  0.3664  1.4607 -1.1508
12624TIP3    H259288   0.206   3.436  12.538 -0.3458 -0.8636  0.4322
12625TIP3   OH259289   1.404   3.555   1.960 -0.4252 -0.3570 -0.1444
12625TIP3    H159290   1.374   3.542   1.870 -2.9347  1.0486  0.3930
12625TIP3    H259291   1.479   3.613   1.952 -0.4938 -0.4135 -1.3546
12626TIP3   OH259292   1.888   5.661  15.411 -0.0486  0.1431  0.4775
12626TIP3    H159293   1.904   5.649  15.317  1.3906  0.4257  0.6668
12626TIP3    H259294   1.800   5.698  15.415 -0.5741 -0.8830 -0.6924
12627TIP3   OH259295   0.710   2.727  15.187  0.5974  0.0297 -0.0983
12627TIP3    H159296   0.716   2.662  15.116  1.0218 -0.8480  0.7162
12627TIP3    H259297   0.691   2.674  15.265 -0.6335  1.0514  0.3316
12628TIP3   OH259298   4.275   6.041  15.452  0.4122 -0.3911 -0.1676
12628TIP3    H159299   4.340   5.974  15.434  0.8585 -0.1657  0.5622
12628TIP3    H259300   4.268   6.044  15.547  1.4543  1.5482 -0.0917
12629TIP3   OH259301   4.104   2.319   2.404 -0.0201 -0.3467  0.0222
12629TIP3    H159302   4.151   2.357   2.479 -0.0603  0.8750 -0.5512
12629TIP3    H259303   4.038   2.384   2.382 -0.9129 -1.3157 -0.2263
12630TIP3   OH259304   6.711   0.192   0.503  0.3471 -0.4249 -0.4043
12630TIP3    H159305   6.649   0.131   0.464  1.1674 -1.2718 -0.4206
12630TIP3    H259306   6.795   0.146   0.500  0.5246 -0.4069  1.9906
12631TIP3   OH259307   2.404   4.827   2.666 -0.2721  0.5641  0.3637
12631TIP3    H159308   2.443   4.875   2.592 -0.1164 -0.4441 -0.2235
12631TIP3    H259309   2.479   4.802   2.721 -0.1013 -0.8380 -0.4473
12632TIP3   OH259310   0.955   2.853   2.948  0.0454  0.1591 -0.1903
12632TIP3    H159311   0.927   2.791   3.015  1.8777  0.5666  1.0360
12632TIP3    H259312   0.981   2.797   2.874 -0.2833 -0.4188  0.1250
12633TIP3   OH259313   2.615   4.059   6.075  0.3123  0.0440  0.2113
12633TIP3    H159314   2.598   4.051   6.169 -0.5276 -1.4822 -0.0262
12633TIP3    H259315   2.710   4.060   6.066  0.3936  0.5031  1.0843
12634TIP3   OH259316   4.909   5.173  13.050  0.2961  0.2786 -0.6614
12634TIP3    H159317   4.846   5.110  13.087  1.8004 -0.0531  1.5301
12634TIP3    H259318   4.987   5.121  13.031  1.1993  1.2677  0.2049
12635TIP3   OH259319   5.544   3.282  13.125  0.6157  0.4362 -0.3187
12635TIP3    H159320   5.464   3.308  13.171  0.9923 -0.7565  1.0777
12635TIP3    H259321   5.613   3.289  13.191  1.8557  2.2474 -1.7179
12636TIP3   OH259322   2.922   6.351  14.075 -0.2074 -0.0446  0.5261
12636TIP3    H159323   2.892   6.415  14.011 -0.1412 -1.5176 -1.0591
12636TIP3    H259324   3.000   6.391  14.114  0.1649  0.6108 -0.8228
12637TIP3   OH259325   0.589   5.125  17.021  0.1830  0.3717  0.0109
12637TIP3    H159326   0.656   5.060  17.043  0.7797  0.6965 -0.7902
12637TIP3    H259327   0.631   5.181  16.956 -1.0886  0.1973 -0.9968
12638TIP3   OH259328   0.903   0.546   2.307  0.0353  0.3829  1.0259
12638TIP3    H159329   0.832   0.504   2.259 -0.7714  1.6406  1.0710
12638TIP3    H259330   0.919   0.488   2.382  0.6157 -1.0634 -0.1755
12639TIP3   OH259331   0.557   1.717   0.636 -0.0815 -0.1624 -0.3104
12639TIP3    H159332   0.594   1.779   0.572  0.0779  1.4278  1.2535
12639TIP3    H259333   0.606   1.636   0.621  1.2881  0.7336 -0.9254
12640TIP3   OH259334   0.255   4.152  12.405 -0.5219 -0.9798 -0.6158
12640TIP3    H159335   0.186   4.182  12.347 -1.5570 -0.0946  0.9811
12640TIP3    H259336   0.222   4.070  12.441 -0.3885 -0.9641 -0.4554
12641TIP3   OH259337   2.566   5.697   1.745 -0.2586  0.3655  0.2428
12641TIP3    H159338   2.537   5.702   1.654 -2.3540  0.7196  0.8741
12641TIP3    H259339   2.613   5.615   1.751  0.1837  0.4869 -1.2331
12642TIP3   OH259340   2.446   1.558   5.034 -0.5462 -0.3803 -0.0388
12642TIP3    H159341   2.486   1.471   5.038 -1.5999 -1.0198 -2.0895
12642TIP3    H259342   2.352   1.543   5.045 -0.7400  0.5026 -0.3410
12643TIP3   OH259343   3.391   6.188   5.913 -0.6723  0.1229 -0.2195
12643TIP3    H159344   3.409   6.236   5.994 -1.7866  1.4555 -0.7232
12643TIP3    H259345   3.323   6.125   5.937 -0.4531 -0.0189  0.0415
12644TIP3   OH259346   3.072   4.488   4.202  0.1994 -0.7054 -0.5494
12644TIP3    H159347   3.028   4.526   4.126 -2.7333 -1.4891  0.6030
12644TIP3    H259348   3.092   4.399   4.176 -0.8790 -1.0006 -0.4333
12645TIP3   OH259349   6.506   1.213  12.120  0.0645 -0.4519 -0.1019
12645TIP3    H159350   6.494   1.305  12.094  1.2914 -0.1742  0.2215
12645TIP3    H259351   6.421   1.186  12.154 -0.2591  0.6294 -0.0078
12646TIP3   OH259352   6.664   4.622  13.681  0.2400  0.5301 -0.2490
12646TIP3    H159353   6.635   4.656  13.765  1.2432  1.7090 -0.3496
12646TIP3    H259354   6.636   4.689  13.618  1.7850  0.9444 -0.5215
12647TIP3   OH259355   0.238   1.586  13.704 -0.2426 -0.7496 -0.0401
12647TIP3    H159356   0.215   1.543  13.622  1.1621 -0.4405 -0.6235
12647TIP3    H259357   0.229   1.679  13.685  2.0115 -0.5666 -0.5216
12648TIP3   OH259358   5.428   1.366  12.633  0.0500 -0.0128 -0.4267
12648TIP3    H159359   5.368   1.292  12.625  0.1610 -0.7723  3.7898
12648TIP3    H259360   5.375   1.443  12.615 -0.9872 -0.8993 -1.2842
12649TIP3   OH259361   6.229   3.249   3.530 -0.0585 -0.3272 -0.6023
12649TIP3    H159362   6.290   3.321   3.546 -0.3584  0.2365 -1.8914
12649TIP3    H259363   6.143   3.285   3.554  0.0030 -0.8684  0.4795
12650TIP3   OH259364   5.561   2.055   2.372 -0.0440 -0.0084 -0.0423
12650TIP3    H159365   5.568   2.103   2.289 -1.1561 -0.5772 -0.4903
12650TIP3    H259366   5.641   2.004   2.377  0.6934  1.0981 -0.0516
12651TIP3   OH259367   4.045   6.592   5.843 -0.0054  0.2978  0.4399
12651TIP3    H159368   3.967   6.645   5.823  0.9670  2.3955  1.8969
12651TIP3    H259369   4.113   6.627   5.785  0.1571 -0.7758 -0.0394
12652TIP3   OH259370   1.956   4.407   1.577  0.3638 -0.2051 -0.0233
12652TIP3    H159371   1.944   4.337   1.641  1.2168  0.0131  0.3788
12652TIP3    H259372   1.883   4.466   1.593 -0.0455 -0.7077  0.0110
12653TIP3   OH259373   5.085   6.119  12.163 -0.5206 -0.7547 -0.3439
12653TIP3    H159374   5.178   6.094  12.164 -0.1515  0.5304 -0.2651
12653TIP3    H259375   5.076   6.181  12.235 -1.1543  0.0733 -1.1085
12654TIP3   OH259376   3.736   4.951  11.826 -0.5906 -0.4235 -1.1899
12654TIP3    H159377   3.743   4.864  11.864 -0.1306 -0.7180 -1.9219
12654TIP3    H259378   3.702   5.006  11.897  3.5422 -0.1219  0.9193
12655TIP3   OH259379   1.819   0.784   2.219 -0.0860 -0.2227 -0.4393
12655TIP3    H159380   1.886   0.719   2.242 -0.2668  0.2190  1.4406
12655TIP3    H259381   1.868   0.852   2.171  0.2997 -1.1636 -1.4366
12656TIP3   OH259382   1.913   5.510   3.899  0.3285  0.0051 -0.6449
12656TIP3    H159383   1.900   5.603   3.878  2.0301  0.8360  1.5497
12656TIP3    H259384   1.977   5.480   3.835  0.5272  0.6350 -0.7548
12657TIP3   OH259385   3.027   4.797   2.892 -0.4737  0.1955 -0.3490
12657TIP3    H159386   3.044   4.884   2.928  0.6702 -0.5446  1.0117
12657TIP3    H259387   3.002   4.744   2.968 -1.0689 -0.6933 -1.1374
12658TIP3   OH259388   1.559   6.756   0.832 -0.2302  0.3294  0.4910
12658TIP3    H159389   1.630   6.695   0.848 -0.6014 -0.2440 -0.0071
12658TIP3    H259390   1.595   6.842   0.853  0.5745  0.0329  0.3372
12659TIP3   OH259391   6.336   4.971  16.917 -0.1928 -0.6651 -0.5452
12659TIP3    H159392   6.378   5.053  16.944 -0.8080 -0.7483  0.7379
12659TIP3    H259393   6.407   4.907  16.919 -0.4225 -0.9578  2.3124
12660TIP3   OH259394   5.223   3.653  15.661  0.3186  0.3451 -0.1683
12660TIP3    H159395   5.249   3.717  15.594 -0.2313  1.4380  0.6246
12660TIP3    H259396   5.300   3.597  15.673  0.5490  0.3617 -1.4336
12661TIP3   OH259397   2.089   6.235   6.877  0.2957  0.1661 -0.3560
12661TIP3    H159398   2.060   6.174   6.809  0.5499 -0.4557  0.0831
12661TIP3    H259399   2.056   6.320   6.849 -0.4758 -0.2505 -0.7370
12662TIP3   OH259400   5.560   3.604   4.669 -0.0250  0.1686 -0.3741
12662TIP3    H159401   5.648   3.609   4.708 -0.1109 -0.0895 -0.1490
12662TIP3    H259402   5.516   3.535   4.718 -0.8552  1.2872  0.5282
12663TIP3   OH259403   2.851   5.451   5.594  0.1565  0.4808 -0.1721
12663TIP3    H159404   2.801   5.376   5.625 -1.7843  1.6885 -0.2624
12663TIP3    H259405   2.927   5.413   5.550 -0.0615 -1.3731  0.9653
12664TIP3   OH259406   0.647   1.237  11.635 -0.3112  0.3834  0.3997
12664TIP3    H159407   0.618   1.313  11.685  0.5147  0.2498  1.1007
12664TIP3    H259408   0.739   1.227  11.658  0.0886  0.3090 -1.1504
12665TIP3   OH259409   0.706   5.537   0.627 -0.1129 -0.3698 -0.3963
12665TIP3    H159410   0.635   5.538   0.691 -1.0338 -0.0426 -1.4021
12665TIP3    H259411   0.699   5.452   0.584  1.4749 -1.2570  0.9405
12666TIP3   OH259412   2.599   2.415   6.021  0.7656  0.2528  0.0988
12666TIP3    H159413   2.647   2.332   6.022 -1.2351 -0.9865  0.3240
12666TIP3    H259414   2.620   2.456   6.105 -0.3259 -1.3912  1.2359
12667TIP3   OH259415   6.513   0.859  16.554  0.3633  0.1035 -0.0612
12667TIP3    H159416   6.456   0.925  16.515  0.0746  0.0341  0.2346
12667TIP3    H259417   6.458   0.815  16.619  0.5071 -0.5161 -0.3428
12668TIP3   OH259418   0.245   6.579   1.011 -0.0487 -0.2356 -0.1958
12668TIP3    H159419   0.332   6.555   0.979  0.8825  1.4427  0.8963
12668TIP3    H259420   0.218   6.651   0.954 -0.0033  0.2836  0.4217
12669TIP3   OH259421   5.617   3.024  10.360  0.6377  0.4053 -0.3476
12669TIP3    H159422   5.573   3.004  10.443  1.4358  3.1353  0.8532
12669TIP3    H259423   5.691   2.962  10.357  0.4907  0.1373  0.8874
12670TIP3   OH259424   0.101   0.141  17.293  0.2746  0.2770  0.1020
12670TIP3    H159425   0.121   0.071  17.230 -1.6108  0.8495 -1.2235
12670TIP3    H259426   0.008   0.160  17.279  0.2543  1.6803  1.8389
12671TIP3   OH259427   3.484   5.404   2.020 -0.1269 -0.0692  0.5593
12671TIP3    H159428   3.549   5.356   1.968 -0.1445 -0.1031  0.5687
12671TIP3    H259429   3.535   5.445   2.090  0.0527  0.8549 -0.0967
12672TIP3   OH259430   5.051   3.836  11.241  0.1403 -0.4333 -0.3161
12672TIP3    H159431   5.076   3.755  11.197 -0.7514 -1.2068  0.5634
12672TIP3    H259432   5.121   3.852  11.304  0.2653 -0.5750 -0.4186
12673TIP3   OH259433   0.456   4.345  11.316 -0.3335  0.2869 -0.1014
12673TIP3    H159434   0.386   4.297  11.272 -0.0334  0.9325 -1.3397
12673TIP3    H259435   0.537   4.313  11.275  0.0428  0.1997  0.6803
12674TIP3   OH259436   6.379   4.642  14.842  0.4405 -0.2058 -0.3123
12674TIP3    H159437   6.385   4.546  14.841 -2.1646 -0.4491  1.0069
12674TIP3    H259438   6.343   4.663  14.928  0.1140  1.8962 -0.9193
12675TIP3   OH259439   4.496   5.174  15.616  0.2917 -0.1480 -0.5055
12675TIP3    H159440   4.494   5.249  15.676  0.2007  0.2443 -0.9956
12675TIP3    H259441   4.404   5.155  15.599  0.2706 -1.2826  0.7307
12676TIP3   OH259442   4.088   3.024  12.868  0.1914  0.8148  0.1993
12676TIP3    H159443   4.161   2.979  12.910 -0.6045 -0.6777  0.0208
12676TIP3    H259444   4.091   2.995  12.777 -0.9383  0.3243  0.3086
12677TIP3   OH259445   5.995   4.429   1.158 -0.3798 -0.2092 -0.3999
12677TIP3    H159446   5.968   4.337   1.166  1.8337 -0.8728  0.3530
12677TIP3    H259447   5.984   4.465   1.245 -1.2127  0.2478 -0.6883
12678TIP3   OH259448   2.260   2.759   0.258  0.0248  0.0865  0.1666
12678TIP3    H159449   2.269   2.809   0.177 -1.2388 -0.8312 -0.5659
12678TIP3    H259450   2.170   2.725   0.256 -0.2083  0.4349  2.1827
12679TIP3   OH259451   2.189   3.507   5.669  0.1257 -0.5974  0.7584
12679TIP3    H159452   2.104   3.537   5.636 -0.5577 -1.5153  1.6229
12679TIP3    H259453   2.184   3.412   5.664  1.6202 -0.6542 -0.3916
12680TIP3   OH259454   4.893   3.836   3.399  0.5546  0.0552 -0.2043
12680TIP3    H159455   4.870   3.772   3.332  0.6622  0.8596 -1.0247
12680TIP3    H259456   4.969   3.882   3.364  2.8595 -1.7673  1.9531
12681TIP3   OH259457   3.827   1.619  14.530  0.0680 -0.0535  1.1362
12681TIP3    H159458   3.796   1.697  14.577  1.0379  1.1170 -0.0837
12681TIP3    H259459   3.913   1.601  14.568  0.4190  0.2890  0.5145
12682TIP3   OH259460   3.339   4.790  16.330  0.0266  0.3282  0.3185
12682TIP3    H159461   3.333   4.872  16.282 -0.7917  0.8164  1.2191
12682TIP3    H259462   3.373   4.814  16.416  0.3566 -0.3646  0.3914
12683TIP3   OH259463   5.651   0.164  13.327 -0.3506 -0.2860 -0.2798
12683TIP3    H159464   5.594   0.099  13.370 -0.8229 -0.4409 -1.1011
12683TIP3    H259465   5.615   0.171  13.238  0.4370  0.2167 -0.5661
12684TIP3   OH259466   3.818   4.095   4.217 -0.2183 -0.2732  0.4562
12684TIP3    H159467   3.757   4.166   4.237  0.0640  1.0503 -2.8093
12684TIP3    H259468   3.905   4.133   4.235  0.0053  0.7528 -2.3165
12685TIP3   OH259469   4.162   4.829  12.951  0.1951 -0.6417 -0.1762
12685TIP3    H159470   4.083   4.875  12.921  0.0603 -1.0401 -0.4440
12685TIP3    H259471   4.176   4.861  13.040  0.9401  1.0212 -0.8543
12686TIP3   OH259472   2.284   5.911  11.661 -0.4775 -0.1413 -0.0306
12686TIP3    H159473   2.334   5.902  11.742  0.6326  0.8009 -0.5921
12686TIP3    H259474   2.240   5.996  11.669 -1.8458 -0.8433  0.3496
12687TIP3   OH259475   3.605   0.188   3.383 -0.4343  0.2147 -0.4035
12687TIP3    H159476   3.670   0.255   3.364  0.6119 -0.8206 -0.6380
12687TIP3    H259477   3.597   0.189   3.479  1.7436 -1.1827 -0.1083
12688TIP3   OH259478   3.787   2.667  13.536  0.1107  0.3373  0.2751
12688TIP3    H159479   3.725   2.727  13.579  0.2624 -0.0762  1.0900
12688TIP3    H259480   3.731   2.601  13.495 -0.0169  0.4358  0.2862
12689TIP3   OH259481   4.941   2.260  11.468 -0.6445 -0.3840 -0.1850
12689TIP3    H159482   5.012   2.197  11.455 -0.7387 -1.2669  2.9472
12689TIP3    H259483   4.912   2.281  11.379  3.8409  0.4885 -1.6936
12690TIP3   OH259484   0.032   4.236  11.593  0.4347  0.3064 -0.2238
12690TIP3    H159485   0.000   4.223  11.504  1.0196 -3.4567 -0.0612
12690TIP3    H259486  -0.015   4.171  11.645  2.3196  0.3004  1.6169
12691TIP3   OH259487   0.259   5.455   0.515 -0.0319  0.4981  0.1343
12691TIP3    H159488   0.180   5.414   0.551  0.7431  0.1882  1.5342
12691TIP3    H259489   0.296   5.504   0.588  2.6338 -1.6926  0.3730
12692TIP3   OH259490   1.296   5.978   5.348  0.2160 -0.3400  0.1330
12692TIP3    H159491   1.360   6.049   5.351 -1.0457  1.0602 -2.6001
12692TIP3    H259492   1.348   5.898   5.349  1.9295  0.7216 -0.6007
12693TIP3   OH259493   2.242   1.977  11.701 -0.0310  0.1897  0.3405
12693TIP3    H159494   2.336   1.964  11.691 -0.2338 -2.4366  0.9040
12693TIP3    H259495   2.228   1.975  11.796 -0.5299  2.0954  0.3414
12694TIP3   OH259496   2.504   3.993  15.569  0.0882  0.5094  0.1937
12694TIP3    H159497   2.533   3.929  15.634  3.0008 -0.3983 -1.7824
12694TIP3    H259498   2.534   4.077  15.602 -0.8864  0.4640  1.2592
12695TIP3   OH259499   3.412   5.770  12.900  0.0673  0.0489 -0.3130
12695TIP3    H159500   3.415   5.860  12.933 -0.2101 -0.1105  0.1496
12695TIP3    H259501   3.347   5.726  12.955  1.3467 -0.8529  0.5256
12696TIP3   OH259502   2.722   6.636   3.996  0.0877  0.2904 -0.2805
12696TIP3    H159503   2.670   6.712   3.968 -3.2144 -1.2991  0.9895
12696TIP3    H259504   2.736   6.651   4.090 -1.6028 -1.0698  0.2520
12697TIP3   OH259505   4.859   6.519   2.459 -0.2423 -0.0735  0.4085
12697TIP3    H159506   4.857   6.474   2.375  0.0271  0.2644  0.2214
12697TIP3    H259507   4.856   6.449   2.524 -1.3884 -0.3090  0.1286
12698TIP3   OH259508   3.514   4.742   0.268  0.3356  0.5141 -0.2893
12698TIP3    H159509   3.442   4.799   0.240 -0.3843  0.3242  1.0920
12698TIP3    H259510   3.522   4.677   0.198  0.4874  1.6806 -1.3983
12699TIP3   OH259511   0.311   0.051   0.801  0.6191  0.1148  0.3416
12699TIP3    H159512   0.256   0.004   0.739 -0.1631 -0.9488  1.7747
12699TIP3    H259513   0.396   0.007   0.797  1.3917  1.6589 -1.7608
12700TIP3   OH259514   5.079   6.480   3.712  0.4061 -0.7015  0.0594
12700TIP3    H159515   5.116   6.536   3.781  1.0095  0.7866 -1.3873
12700TIP3    H259516   4.986   6.473   3.734  0.4271  0.4337  0.5887
12701TIP3   OH259517   0.588   2.823  12.782  0.3886  0.1746  0.6361
12701TIP3    H159518   0.604   2.875  12.703 -1.8183  3.6055  2.2052
12701TIP3    H259519   0.563   2.737  12.749  0.9719  1.0144 -2.3082
12702TIP3   OH259520   2.649   3.445   1.981  0.5086 -0.4397 -0.1562
12702TIP3    H159521   2.589   3.425   2.053  0.7821 -2.3312 -0.4044
12702TIP3    H259522   2.727   3.479   2.023  0.4918 -1.0973  0.4233
12703TIP3   OH259523   5.770   3.646  10.895  0.2542  0.2048  0.1839
12703TIP3    H159524   5.839   3.712  10.885  0.6780 -0.0268  1.3455
12703TIP3    H259525   5.717   3.678  10.968 -3.0626  2.1855 -2.7881
12704TIP3   OH259526   5.825   3.817   4.642 -0.0996  0.1442  0.0087
12704TIP3    H159527   5.858   3.816   4.553  1.1462  0.1195  0.4504
12704TIP3    H259528   5.838   3.908   4.671 -0.4417  0.1382  0.1843
12705TIP3   OH259529   1.547   4.737  15.749  0.5189 -0.0062 -0.0783
12705TIP3    H159530   1.558   4.682  15.827 -0.6384 -0.7386 -0.3942
12705TIP3    H259531   1.621   4.714  15.693  0.5671 -0.5601  0.1997
12706TIP3   OH259532   3.193   0.332  11.616  0.9839  0.1231  0.5513
12706TIP3    H159533   3.200   0.355  11.524  0.7675 -0.0115  0.4995
12706TIP3    H259534   3.283   0.328  11.648  1.3789 -3.5715 -0.5824
12707TIP3   OH259535   0.158   1.024   6.049  0.2672  0.1697  0.3099
12707TIP3    H159536   0.064   1.005   6.054  0.3417 -0.9031 -1.5450
12707TIP3    H259537   0.199   0.939   6.040  1.3029  0.7160 -0.3202
12708TIP3   OH259538   0.550   6.631   2.051 -0.1236 -0.2685 -0.0793
12708TIP3    H159539   0.572   6.584   2.132 -1.9583 -1.5033 -0.2463
12708TIP3    H259540   0.465   6.596   2.025  0.4383  0.0606 -2.6019
12709TIP3   OH259541   3.043   1.661   4.806 -0.5033 -0.1166  0.1488
12709TIP3    H159542   2.981   1.640   4.736 -0.1964  0.7641 -0.3993
12709TIP3    H259543   2.988   1.695   4.877 -0.6855  0.2516 -0.1679
12710TIP3   OH259544   0.182   3.194  16.932 -0.3340  0.5078 -0.4315
12710TIP3    H159545   0.168   3.133  16.860 -1.1074 -0.4288  0.4778
12710TIP3    H259546   0.105   3.250  16.932 -0.8355 -0.1564  0.2761
12711TIP3   OH259547   5.522   5.227   2.526  0.2221  0.3413 -0.0080
12711TIP3    H159548   5.541   5.194   2.438  0.8201  2.5085 -0.7312
12711TIP3    H259549   5.427   5.238   2.527  0.3155  1.3587 -0.7994
12712TIP3   OH259550   6.453   5.714   1.086 -0.8080  0.1409  0.2248
12712TIP3    H159551   6.417   5.638   1.131 -0.8884  0.0771  0.0563
12712TIP3    H259552   6.500   5.676   1.011 -0.8857  0.2610  0.1162
12713TIP3   OH259553   4.503   6.538   0.102 -0.6514 -0.1490  0.0817
12713TIP3    H159554   4.543   6.468   0.051 -0.3170  0.0898  0.0151
12713TIP3    H259555   4.552   6.616   0.078 -0.4978 -0.0302  0.7559
12714TIP3   OH259556   6.316   0.323  15.738 -0.0180  0.2496 -0.2643
12714TIP3    H159557   6.326   0.407  15.695 -0.3556  0.5997  0.3203
12714TIP3    H259558   6.405   0.289  15.748  0.2085  1.0423  0.4775
12715TIP3   OH259559   4.568   0.725   4.228  0.1056  0.7191  0.6683
12715TIP3    H159560   4.571   0.749   4.321 -0.7533 -0.3115  0.9828
12715TIP3    H259561   4.493   0.774   4.193 -0.2979  0.1982  0.7985
12716TIP3   OH259562   0.265   0.399  11.729  0.2337 -0.5012 -0.5041
12716TIP3    H159563   0.231   0.487  11.712 -0.1450 -0.7944 -1.3254
12716TIP3    H259564   0.318   0.408  11.808 -0.9607  0.1766  0.2512
12717TIP3   OH259565   4.608   2.953  15.592 -0.5907  0.1534 -0.3221
12717TIP3    H159566   4.631   3.008  15.518 -0.2244  0.0346 -0.2990
12717TIP3    H259567   4.537   2.897  15.560 -1.0447  0.7109 -0.3106
12718TIP3   OH259568   1.405   4.799   5.822 -0.3540  0.2600 -0.3102
12718TIP3    H159569   1.438   4.887   5.805 -0.4487  0.3731  0.0719
12718TIP3    H259570   1.428   4.782   5.913  2.3038 -1.2801 -1.1773
12719TIP3   OH259571   4.498   0.976  15.997 -0.1837  0.4055  0.5184
12719TIP3    H159572   4.441   1.036  16.045 -1.8811 -0.6916 -0.0444
12719TIP3    H259573   4.441   0.934  15.932  0.9428 -1.6520  0.7443
12720TIP3   OH259574   5.018   0.640   2.501 -0.2180 -0.0201  0.6138
12720TIP3    H159575   5.026   0.733   2.520 -0.4233  0.3103 -0.7556
12720TIP3    H259576   5.017   0.636   2.405 -2.0438 -1.2434  0.6259
12721TIP3   OH259577   4.867   1.501  12.698 -0.0960 -0.1307 -0.3441
12721TIP3    H159578   4.790   1.521  12.751  1.0803  1.4421  0.8656
12721TIP3    H259579   4.832   1.479  12.612 -1.9022  0.3382  0.2340
12722TIP3   OH259580   4.129   3.271   1.568  0.2422 -0.8069  0.0850
12722TIP3    H159581   4.132   3.275   1.664  1.1827 -1.4316  0.0944
12722TIP3    H259582   4.216   3.299   1.540  0.3598 -1.7516 -0.5298
12723TIP3   OH259583   2.463   6.226   0.967  0.3348  0.3403  0.2367
12723TIP3    H159584   2.396   6.294   0.968 -0.1396 -0.1230  1.0335
12723TIP3    H259585   2.428   6.157   1.023  1.1524 -0.2301  0.0642
12724TIP3   OH259586   2.152   4.622  11.511  0.4246 -0.5590 -0.2887
12724TIP3    H159587   2.170   4.630  11.417 -0.0641  1.0325 -0.2729
12724TIP3    H259588   2.056   4.622  11.517  0.3414 -3.3924  0.0543
12725TIP3   OH259589   2.174   2.644   1.119 -0.2098 -0.2312 -0.3654
12725TIP3    H159590   2.199   2.735   1.102 -0.0144  0.0482  1.2593
12725TIP3    H259591   2.255   2.595   1.109 -0.1950 -0.1548 -0.6531
12726TIP3   OH259592   2.696   4.723   0.403  0.3074 -0.1308 -0.1085
12726TIP3    H159593   2.660   4.778   0.334 -0.8592 -0.3924  0.2672
12726TIP3    H259594   2.714   4.784   0.475 -0.1020 -0.1050 -0.0273
12727TIP3   OH259595   4.805   0.806   1.506 -0.0792 -0.8771  0.1498
12727TIP3    H159596   4.761   0.783   1.588 -0.6091  0.5937  0.3045
12727TIP3    H259597   4.747   0.871   1.465  0.5298 -1.0602 -1.0556
12728TIP3   OH259598   0.758   5.269   4.535  0.0124 -0.7766 -0.2812
12728TIP3    H159599   0.804   5.202   4.586  0.3314  1.2767  2.2869
12728TIP3    H259600   0.827   5.313   4.485  0.0381 -1.1734 -0.6065
12729TIP3   OH259601   4.063   1.167  12.923  0.4158 -0.3123 -0.7105
12729TIP3    H159602   4.101   1.105  12.985 -0.3580 -0.5538 -0.4706
12729TIP3    H259603   4.042   1.113  12.846 -0.0212 -0.3058 -0.5990
12730TIP3   OH259604   5.122   6.013  13.618 -0.3600  0.0915 -0.0632
12730TIP3    H159605   5.081   6.090  13.659  0.3551  0.5024 -0.1011
12730TIP3    H259606   5.057   5.982  13.555 -1.0735  0.0473  0.6730
12731TIP3   OH259607   2.404   6.366   5.570  0.3879 -0.1236 -0.3051
12731TIP3    H159608   2.454   6.346   5.649 -0.0996 -0.3314 -0.0441
12731TIP3    H259609   2.460   6.425   5.520  1.5445 -1.4913 -0.7199
12732TIP3   OH259610   6.171   2.248  10.640  0.0102 -0.3282  0.8884
12732TIP3    H159611   6.224   2.168  10.632  0.4915  0.0136  0.5952
12732TIP3    H259612   6.082   2.216  10.656  0.0481 -0.9410 -0.0476
12733TIP3   OH259613   3.619   1.728  13.501 -0.1045  0.2487  0.8051
12733TIP3    H159614   3.563   1.690  13.433 -0.2126  0.5692  0.7166
12733TIP3    H259615   3.645   1.813  13.466  2.7327 -0.9852 -0.4300
12734TIP3   OH259616   0.966   1.661  15.275 -0.0466 -0.0539 -0.2597
12734TIP3    H159617   1.019   1.595  15.320 -1.3220 -0.0682  1.3050
12734TIP3    H259618   0.883   1.618  15.256 -0.7643  0.9637  0.4654
12735TIP3   OH259619   3.231   1.558   6.808  0.0656 -0.2268 -0.6546
12735TIP3    H159620   3.264   1.469   6.800  0.8343  0.0873 -1.0360
12735TIP3    H259621   3.306   1.609   6.839 -1.0668 -0.1857  2.3574
12736TIP3   OH259622   1.789   4.109   0.586  0.4099  0.0766  0.5979
12736TIP3    H159623   1.709   4.070   0.621 -1.6787 -0.2295 -3.7875
12736TIP3    H259624   1.765   4.198   0.563  1.1691 -0.0711 -0.9606
12737TIP3   OH259625   6.526   0.452  15.467  0.0755 -0.3320 -0.1840
12737TIP3    H159626   6.518   0.428  15.374 -1.4117 -0.4306 -0.0485
12737TIP3    H259627   6.458   0.518  15.480  1.0997  0.5943  0.5542
12738TIP3   OH259628   6.512   0.772   3.025 -0.2361 -0.7021  0.2842
12738TIP3    H159629   6.563   0.724   3.090 -0.3734  0.2529  1.1354
12738TIP3    H259630   6.442   0.711   3.000  0.4545 -1.4805  0.2020
12739TIP3   OH259631   2.675   0.897   5.765  0.4317 -0.2545 -0.4327
12739TIP3    H159632   2.600   0.841   5.784 -1.1351  0.8475 -2.8835
12739TIP3    H259633   2.673   0.965   5.833 -1.4363  0.3242 -1.0201
12740TIP3   OH259634   3.737   4.618   2.652  0.4103  0.4746 -0.5689
12740TIP3    H159635   3.647   4.649   2.646  0.6674  1.3451 -0.0565
12740TIP3    H259636   3.785   4.690   2.692  0.8824 -0.8114  1.3225
12741TIP3   OH259637   3.794   5.011  16.350  0.3725 -0.1476  0.0382
12741TIP3    H159638   3.784   5.054  16.435 -0.1382  1.3750 -0.7539
12741TIP3    H259639   3.705   5.007  16.315  0.5879 -0.7122 -0.4531
12742TIP3   OH259640   3.890   2.183  16.077 -0.0976 -0.6628 -0.3046
12742TIP3    H159641   3.952   2.222  16.015 -1.2214  2.6188  0.4542
12742TIP3    H259642   3.920   2.213  16.163 -1.7997 -0.3283  0.2026
12743TIP3   OH259643   0.826   2.472  14.741 -0.0171 -0.3981  0.6044
12743TIP3    H159644   0.879   2.535  14.790  0.1344  3.4108 -3.7356
12743TIP3    H259645   0.889   2.421  14.691 -0.2811 -0.7443  0.6198
12744TIP3   OH259646   4.548   6.087  13.130 -0.5711 -0.1414  0.5994
12744TIP3    H159647   4.623   6.143  13.108 -1.6993  1.4726  0.6459
12744TIP3    H259648   4.542   6.091  13.225 -0.7718 -0.1537  0.5878
12745TIP3   OH259649   4.465   1.023   3.260 -0.0220  0.2100 -0.8478
12745TIP3    H159650   4.516   1.035   3.179 -1.5532  3.2907 -1.5047
12745TIP3    H259651   4.385   0.979   3.231  0.4023 -0.8243 -0.5257
12746TIP3   OH259652   1.203   3.441   0.931 -0.4578  0.1785 -0.1922
12746TIP3    H159653   1.194   3.473   1.021  1.5735 -0.4525  0.2911
12746TIP3    H259654   1.179   3.515   0.877 -1.3921  0.6809  0.8595
12747TIP3   OH259655   1.903   3.625   2.546  0.1056 -0.2172 -0.2321
12747TIP3    H159656   1.861   3.638   2.631  0.4024  1.4904 -0.3153
12747TIP3    H259657   1.988   3.585   2.567  0.6518  1.2211  0.3862
12748TIP3   OH259658   1.729   4.108  16.440 -0.5274 -0.0811 -0.0150
12748TIP3    H159659   1.759   4.196  16.463 -0.2367 -0.3230  0.5626
12748TIP3    H259660   1.729   4.107  16.344  2.5380 -0.4462 -0.1218
12749TIP3   OH259661   3.433   1.127   5.559  0.0992  0.0487  0.0605
12749TIP3    H159662   3.405   1.047   5.603  1.2997 -1.2232 -1.3731
12749TIP3    H259663   3.384   1.128   5.477  1.4040 -0.2141 -0.7513
12750TIP3   OH259664   0.189   4.833   1.913 -0.3100 -0.1646 -0.2444
12750TIP3    H159665   0.136   4.825   1.834 -1.5257  1.5612  0.3304
12750TIP3    H259666   0.173   4.923   1.944  1.2392 -0.3264  1.1761
12751TIP3   OH259667   5.478   3.727   3.662  0.1099  0.6050 -0.1991
12751TIP3    H159668   5.506   3.819   3.662  1.5589  0.2060  0.5422
12751TIP3    H259669   5.498   3.697   3.751  0.0251 -0.5283 -0.5513
12752TIP3   OH259670   2.963   1.973   2.264 -0.2398 -0.6911  0.1282
12752TIP3    H159671   2.966   2.051   2.318 -0.3637 -0.1432 -0.6329
12752TIP3    H259672   2.947   1.901   2.325  1.1146 -0.2901  0.9810
12753TIP3   OH259673   4.724   2.201  14.608 -0.3845  0.6695 -0.0481
12753TIP3    H159674   4.675   2.144  14.548 -0.9124  0.4057  0.6223
12753TIP3    H259675   4.770   2.262  14.550  0.1849 -0.4210 -0.7807
12754TIP3   OH259676   0.928   1.247  13.030  0.4402  0.4329 -0.3908
12754TIP3    H159677   0.878   1.220  12.953  1.0483 -1.8034 -0.0615
12754TIP3    H259678   0.862   1.283  13.089 -0.2741  0.6143 -1.2737
12755TIP3   OH259679   5.249   0.373  17.353 -0.0114  1.0437  0.3545
12755TIP3    H159680   5.163   0.359  17.391 -0.7262  1.8381 -0.8966
12755TIP3    H259681   5.235   0.362  17.259  1.0855  1.9893  0.0676
12756TIP3   OH259682   4.745   1.868  14.937  0.3200 -0.1063 -0.5436
12756TIP3    H159683   4.664   1.866  14.885  0.5147 -2.3926 -0.8478
12756TIP3    H259684   4.773   1.959  14.934  0.1351 -0.0338 -4.1960
12757TIP3   OH259685   2.213   0.586   0.807 -0.4669  0.5276  0.3283
12757TIP3    H159686   2.222   0.559   0.899  1.8418  0.6269  0.1976
12757TIP3    H259687   2.287   0.645   0.792 -1.9337  2.1036 -1.0923
12758TIP3   OH259688   4.779   4.484   5.653  0.2575 -0.0188 -0.3437
12758TIP3    H159689   4.833   4.501   5.731 -1.1980 -0.0361  0.6945
12758TIP3    H259690   4.783   4.389   5.642  0.6673  0.0074 -0.4518
12759TIP3   OH259691   1.177   4.617  13.491 -0.5417  0.4484 -0.2763
12759TIP3    H159692   1.201   4.653  13.406  1.6081  0.2482  0.2103
12759TIP3    H259693   1.240   4.654  13.552 -0.5540 -1.2712  0.8373
12760TIP3   OH259694   6.128   0.037  12.856 -0.0028 -0.1496 -0.1096
12760TIP3    H159695   6.077   0.090  12.917  0.8656  0.4613  0.0993
12760TIP3    H259696   6.082   0.046  12.773 -2.4521 -2.6785  0.7920
12761TIP3   OH259697   0.691   1.139  10.368 -0.3287 -0.3865 -0.8210
12761TIP3    H159698   0.708   1.203  10.437  0.2968  0.2042 -1.5029
12761TIP3    H259699   0.597   1.122  10.373 -0.6873  1.3084 -1.2166
12762TIP3   OH259700   1.136   4.688   0.402  0.4358 -0.5202 -0.2071
12762TIP3    H159701   1.153   4.782   0.403  1.2069 -0.6505  1.2001
12762TIP3    H259702   1.218   4.649   0.373  0.4997 -0.8053  0.3414
12763TIP3   OH259703   5.247   0.666   6.099  0.2380 -0.0311 -0.1014
12763TIP3    H159704   5.218   0.729   6.165  0.4860  0.5578 -0.5421
12763TIP3    H259705   5.300   0.603   6.147  0.8809  0.7071  0.1690
12764TIP3   OH259706   2.780   0.355  16.070 -0.2100  0.3637  0.1526
12764TIP3    H159707   2.834   0.414  16.017  0.4988  0.2747  0.7529
12764TIP3    H259708   2.690   0.380  16.050  0.0720  1.2869 -0.0243
12765TIP3   OH259709   4.451   4.226  16.956 -0.5273  0.4530 -0.6563
12765TIP3    H159710   4.437   4.317  16.984  2.2646  0.8014 -0.0591
12765TIP3    H259711   4.449   4.176  17.038 -1.9454 -0.0543 -0.9735
12766TIP3   OH259712   4.446   2.945  12.429  0.2614  0.1044  0.3749
12766TIP3    H159713   4.381   2.939  12.359  0.7599  1.7411 -0.2698
12766TIP3    H259714   4.402   2.995  12.498  0.0213 -0.8877  0.9607
12767TIP3   OH259715   0.211   4.305   0.458 -0.3395  0.1240 -0.1582
12767TIP3    H159716   0.208   4.211   0.438 -0.2225 -0.4228  2.1044
12767TIP3    H259717   0.184   4.348   0.377 -1.6010 -1.9124 -0.8902
12768TIP3   OH259718   6.545   0.679   1.415  0.0608 -0.0793  1.0782
12768TIP3    H159719   6.450   0.690   1.414  0.0479  0.2939 -2.1497
12768TIP3    H259720   6.559   0.601   1.469 -2.3747 -2.1747 -1.0604
12769TIP3   OH259721   4.835   2.840   4.422  0.1180  0.1196  0.2712
12769TIP3    H159722   4.916   2.798   4.451  0.4258 -0.6991 -1.6476
12769TIP3    H259723   4.810   2.792   4.343 -1.5895  1.1484  0.1443
12770TIP3   OH259724   6.458   5.110   3.180 -0.1255  0.1160  0.1791
12770TIP3    H159725   6.492   5.022   3.169 -0.8701 -0.2976  1.0111
12770TIP3    H259726   6.370   5.107   3.141 -0.4288  0.2822  0.8249
12771TIP3   OH259727   5.976   3.747  17.233  0.3256 -0.0560 -0.0233
12771TIP3    H159728   5.902   3.766  17.292 -0.1820 -1.8197 -0.0331
12771TIP3    H259729   5.942   3.682  17.172  0.7319  1.9791 -2.5734
12772TIP3   OH259730   6.215   6.749  11.471 -0.1291 -0.6477 -0.2462
12772TIP3    H159731   6.258   6.759  11.386 -0.3347 -2.3578 -0.5759
12772TIP3    H259732   6.131   6.795  11.461 -0.2131 -0.9621 -1.0164
12773TIP3   OH259733   2.085   5.588  13.877  0.0945 -0.2149  0.0153
12773TIP3    H159734   2.082   5.683  13.871 -0.4623 -0.2817 -1.0813
12773TIP3    H259735   1.996   5.560  13.854 -0.1481 -0.9536  1.7072
12774TIP3   OH259736   5.799   5.373   0.829  0.2658  0.3243 -0.4433
12774TIP3    H159737   5.751   5.444   0.786  1.7905  1.1671 -0.8190
12774TIP3    H259738   5.788   5.390   0.923 -0.4978  0.2626 -0.5167
12775TIP3   OH259739   5.298   1.747  17.268  0.2492  0.2104  0.2488
12775TIP3    H159740   5.385   1.721  17.297 -0.0071 -1.5169 -0.4288
12775TIP3    H259741   5.312   1.781  17.179  0.1720 -0.5382 -0.0534
12776TIP3   OH259742   1.251   6.366  16.492  0.2194  0.1098  0.3943
12776TIP3    H159743   1.231   6.283  16.536  0.0682  0.8339  1.7582
12776TIP3    H259744   1.176   6.422  16.511  0.5702  0.7456 -0.0388
12777TIP3   OH259745   5.880   5.219  15.931  0.2045  0.2230  0.1196
12777TIP3    H159746   5.804   5.161  15.943  0.7040 -0.4562  0.0246
12777TIP3    H259747   5.863   5.263  15.848  1.6188 -2.6216 -1.8234
12778TIP3   OH259748   0.733   4.446  11.179 -0.3427 -0.7992  0.4435
12778TIP3    H159749   0.804   4.436  11.243 -0.6128 -0.7924  0.7467
12778TIP3    H259750   0.738   4.368  11.125 -0.3323 -0.9750  0.6951
12779TIP3   OH259751   3.284   0.854  15.355  0.0425 -0.7519  0.4040
12779TIP3    H159752   3.329   0.910  15.291 -1.4763  1.6650  1.3123
12779TIP3    H259753   3.283   0.905  15.435 -0.7710 -2.4390  1.5377
12780TIP3   OH259754   5.941   1.184  14.541  0.2817  0.0194  0.0787
12780TIP3    H159755   5.930   1.188  14.446 -0.7979  0.1829  0.1889
12780TIP3    H259756   5.869   1.238  14.575  0.3167 -0.4910  0.9982
12781TIP3   OH259757   1.744   1.297  11.812  0.6485  0.0974  0.3980
12781TIP3    H159758   1.652   1.316  11.828  0.4816  0.5480 -0.9689
12781TIP3    H259759   1.743   1.236  11.738  1.4474  0.2811  0.2270
12782TIP3   OH259760   6.103   6.713   0.360 -0.4667 -0.1649 -0.1822
12782TIP3    H159761   6.022   6.697   0.409 -0.6055 -0.1776 -0.4163
12782TIP3    H259762   6.104   6.646   0.292 -0.8312  0.5274 -0.8915
12783TIP3   OH259763   5.020   0.589  15.169  0.5399 -0.4759 -0.2520
12783TIP3    H159764   5.007   0.684  15.176 -1.1078 -0.7282  0.5905
12783TIP3    H259765   5.077   0.567  15.242 -1.1938 -0.4470  1.1858
12784TIP3   OH259766   6.055   0.872   0.354 -0.2389  0.0825  0.4807
12784TIP3    H159767   6.057   0.831   0.441  0.0210  0.8201  0.8386
12784TIP3    H259768   6.058   0.966   0.373 -2.8617  0.3903 -0.2167
12785TIP3   OH259769   6.288   3.235  13.018  0.1046 -0.2894 -0.5259
12785TIP3    H159770   6.293   3.312  12.962 -0.7404 -0.6393 -1.1216
12785TIP3    H259771   6.374   3.229  13.060 -0.6016  2.5263  1.6584
12786TIP3   OH259772   3.787   3.559   2.421 -0.0942 -0.3891  0.6957
12786TIP3    H159773   3.863   3.560   2.480  0.8323 -2.2801 -0.3738
12786TIP3    H259774   3.782   3.469   2.389  1.4355  1.0124 -4.5383
12787TIP3   OH259775   4.547   6.437  14.513  0.3149 -0.1289  0.3447
12787TIP3    H159776   4.575   6.509  14.569 -0.4298  1.4219 -1.1722
12787TIP3    H259777   4.607   6.438  14.439  0.5850 -1.4046  0.5140
12788TIP3   OH259778   6.741   3.750  13.170  0.0580 -0.0789  0.5437
12788TIP3    H159779   6.712   3.683  13.107  0.1342  1.2824 -1.0091
12788TIP3    H259780   6.670   3.755  13.234 -0.1313 -1.3517  0.4573
12789TIP3   OH259781   0.998   3.306   4.552  0.0265 -0.4293 -0.1307
12789TIP3    H159782   0.995   3.351   4.637  1.1677  0.4076 -0.5032
12789TIP3    H259783   0.906   3.290   4.530 -0.2721 -1.0088  1.4325
12790TIP3   OH259784   5.970   4.783   5.967  0.1575 -0.2108  0.2157
12790TIP3    H159785   6.019   4.766   6.048 -0.5428 -0.4123  0.5978
12790TIP3    H259786   6.032   4.761   5.897  0.5045 -0.7732  0.6933
12791TIP3   OH259787   4.979   5.104  11.818 -0.0695  0.7152 -0.1495
12791TIP3    H159788   4.935   5.132  11.738  2.1212  1.5846 -1.1502
12791TIP3    H259789   4.909   5.095  11.882 -1.9011  0.0852 -2.1054
12792TIP3   OH259790   6.448   4.785  15.530 -0.6497 -0.1140  0.4530
12792TIP3    H159791   6.516   4.846  15.504  0.5878 -0.8362  1.8495
12792TIP3    H259792   6.477   4.701  15.496 -0.9113 -0.3918  0.8996
12793TIP3   OH259793   1.633   0.796   5.002  0.0048 -0.5499  0.1809
12793TIP3    H159794   1.702   0.858   4.975 -0.2013 -0.6562 -0.6178
12793TIP3    H259795   1.567   0.803   4.933 -1.9154  1.2815  2.0701
12794TIP3   OH259796   1.488   1.348  11.872  0.2162 -0.6171 -0.4866
12794TIP3    H159797   1.396   1.326  11.864  0.2230 -0.4925 -0.9004
12794TIP3    H259798   1.510   1.327  11.963 -0.8482  1.6734  0.3820
12795TIP3   OH259799   6.685   2.098  15.856  0.5853  0.1319  0.1003
12795TIP3    H159800   6.706   2.019  15.907  3.0965  1.3656  1.1961
12795TIP3    H259801   6.711   2.077  15.767  3.3942  0.2986  0.7616
12796TIP3   OH259802   4.997   0.622   6.000 -0.4134  0.4291 -0.1675
12796TIP3    H159803   5.068   0.625   6.064  0.2060 -0.4334 -0.7975
12796TIP3    H259804   4.921   0.593   6.050  0.2768 -1.1630  0.0213
12797TIP3   OH259805   0.410   3.246   0.725  0.2395 -0.5370 -0.6233
12797TIP3    H159806   0.407   3.264   0.818  0.8598 -1.0461 -0.4947
12797TIP3    H259807   0.385   3.328   0.683 -0.9766 -0.5786 -0.0005
12798TIP3   OH259808   6.415   0.582  11.688 -0.0445  0.4180  0.7676
12798TIP3    H159809   6.461   0.517  11.636 -0.2629 -0.5290  1.7258
12798TIP3    H259810   6.470   0.660  11.682  0.2917  0.1244 -0.2869
12799TIP3   OH259811   2.595   2.151   1.183  0.3017 -0.5009  0.0175
12799TIP3    H159812   2.557   2.063   1.184 -0.4548 -0.1765  0.2629
12799TIP3    H259813   2.619   2.165   1.091  0.9273 -1.1654  0.0653
12800TIP3   OH259814   0.907   4.655  13.501  0.3455 -0.1719 -0.1180
12800TIP3    H159815   1.002   4.651  13.498  0.3458  0.2415 -2.1967
12800TIP3    H259816   0.878   4.580  13.450 -0.3995  0.4557 -0.6439
12801TIP3   OH259817   5.900   2.877  13.472 -0.0062 -0.9065  0.2254
12801TIP3    H159818   5.826   2.823  13.443 -1.0316  0.6247 -0.1692
12801TIP3    H259819   5.861   2.962  13.490  1.7857  0.1785 -0.7202
12802TIP3   OH259820   0.768   2.953   1.752 -0.3124 -0.0679 -0.0942
12802TIP3    H159821   0.797   2.959   1.843 -0.3371  0.3351 -0.1113
12802TIP3    H259822   0.701   2.885   1.753 -0.0495 -0.3301  0.1191
12803TIP3   OH259823   2.190   2.829   3.410 -0.5512 -0.5320 -0.1463
12803TIP3    H159824   2.201   2.917   3.446 -1.0174 -0.8970  0.9237
12803TIP3    H259825   2.099   2.806   3.429 -0.0363 -1.8258  0.9497
12804TIP3   OH259826   0.380   4.615  11.665  0.2976 -0.0596  0.3236
12804TIP3    H159827   0.389   4.520  11.660  1.7084  0.1010 -0.7316
12804TIP3    H259828   0.470   4.648  11.659 -0.3273  1.4354 -2.0872
12805TIP3   OH259829   5.857   4.001  11.311 -0.5568  0.1105 -0.2623
12805TIP3    H159830   5.869   3.907  11.304 -2.9832 -0.1947 -1.2873
12805TIP3    H259831   5.842   4.016  11.405  3.2043  0.0865  0.5323
12806TIP3   OH259832   3.943   6.285  14.851 -0.1595  0.1040 -0.0191
12806TIP3    H159833   3.876   6.217  14.862 -0.3067 -0.0946 -1.8058
12806TIP3    H259834   4.026   6.240  14.868 -0.3243 -0.2337 -0.1002
12807TIP3   OH259835   5.515   3.971  15.992 -0.5759  0.1777  0.4927
12807TIP3    H159836   5.468   4.032  16.050 -1.1981 -0.1147  0.3059
12807TIP3    H259837   5.477   3.886  16.013 -1.7600  0.2197 -1.2572
12808TIP3   OH259838   1.920   2.068   6.022 -0.4531 -0.0533 -0.0095
12808TIP3    H159839   1.835   2.040   5.990 -1.0979 -0.3182  1.8123
12808TIP3    H259840   1.900   2.137   6.086  0.6644 -0.3850  0.7347
12809TIP3   OH259841   4.348   6.088  15.744 -0.4126 -0.4542  0.5672
12809TIP3    H159842   4.398   6.032  15.804  0.9531  0.0900 -0.0063
12809TIP3    H259843   4.274   6.120  15.797  1.2471  0.7739  2.3301
12810TIP3   OH259844   5.510   6.391  11.137  0.1453  0.1987 -0.0850
12810TIP3    H159845   5.446   6.360  11.073  0.9455  0.2670 -0.9381
12810TIP3    H259846   5.579   6.325  11.136 -0.3864 -0.4275  1.6097
12811TIP3   OH259847   4.339   6.022  11.323 -0.3944 -0.5913  0.1253
12811TIP3    H159848   4.342   6.043  11.230  0.2693 -1.5607 -0.0832
12811TIP3    H259849   4.413   6.070  11.361 -3.8742  4.8624  1.3440
12812TIP3   OH259850   5.437   0.193   6.278 -0.4817  0.0180 -0.0017
12812TIP3    H159851   5.495   0.132   6.322 -1.2605 -0.7787 -0.0536
12812TIP3    H259852   5.403   0.249   6.348 -0.6199 -0.3240  0.2045
12813TIP3   OH259853   1.691   1.104  12.613 -0.2039 -0.6635  0.9402
12813TIP3    H159854   1.650   1.165  12.674 -1.6234 -0.1660 -0.4348
12813TIP3    H259855   1.761   1.063  12.663  0.5752  1.8179  2.0526
12814TIP3   OH259856   3.889   0.268   1.994  0.1996  0.5780 -0.2600
12814TIP3    H159857   3.847   0.301   2.073 -0.5845 -0.5363 -0.1878
12814TIP3    H259858   3.831   0.199   1.962  1.1669  0.0975 -1.0685
12815TIP3   OH259859   2.464   1.531   6.191  0.6284 -0.0867  0.1089
12815TIP3    H159860   2.473   1.451   6.243  1.0833  0.7495  1.3648
12815TIP3    H259861   2.485   1.602   6.252 -1.3079  1.1152 -0.5287
12816TIP3   OH259862   0.366   3.180  10.750  0.0954  0.5941  0.1184
12816TIP3    H159863   0.313   3.124  10.807  0.9483 -0.1615  0.1894
12816TIP3    H259864   0.393   3.123  10.678  0.3569  1.1174 -0.2091
12817TIP3   OH259865   2.004   4.842   1.284  0.0678 -0.2310 -0.0584
12817TIP3    H159866   2.025   4.755   1.316 -1.2550 -0.9221 -0.9674
12817TIP3    H259867   2.089   4.884   1.268  0.7523 -1.8870 -0.9948
12818TIP3   OH259868   1.289   0.719   5.085 -0.4139 -0.3665  0.2548
12818TIP3    H159869   1.358   0.769   5.128  0.3316 -0.1818 -1.1006
12818TIP3    H259870   1.280   0.640   5.138  0.3237 -0.0520  0.8591
12819TIP3   OH259871   0.568   6.664   5.390 -0.0401  0.3970  0.2936
12819TIP3    H159872   0.646   6.718   5.377  1.0688 -0.7252  1.8548
12819TIP3    H259873   0.593   6.602   5.458 -1.9488 -0.7400  0.0388
12820TIP3   OH259874   0.668   3.452   3.128 -0.5903  0.7670 -0.5073
12820TIP3    H159875   0.678   3.502   3.047 -2.1946  0.5450 -0.8835
12820TIP3    H259876   0.696   3.513   3.197  1.2601  0.7917 -1.2255
12821TIP3   OH259877   1.483   4.193   1.507 -0.1060 -0.2015 -0.0043
12821TIP3    H159878   1.519   4.210   1.420 -0.7215  1.8883  0.1044
12821TIP3    H259879   1.478   4.279   1.548 -0.1410 -1.1154  1.9922
12822TIP3   OH259880   1.659   6.447  11.808  0.1770 -0.1253  0.3585
12822TIP3    H159881   1.631   6.358  11.789  1.4856 -0.0222 -2.4940
12822TIP3    H259882   1.581   6.501  11.790  0.0328 -0.4888 -0.1038
12823TIP3   OH259883   4.568   1.506   4.375  0.0601 -0.2493  0.3638
12823TIP3    H159884   4.641   1.485   4.316 -0.2068 -1.0361  0.3112
12823TIP3    H259885   4.611   1.540   4.453  0.4758 -0.4521  0.2297
12824TIP3   OH259886   2.869   3.640  13.533  0.1922  0.1623  0.2709
12824TIP3    H159887   2.922   3.703  13.582  0.7384 -0.8561  1.0104
12824TIP3    H259888   2.896   3.555  13.566 -0.9404 -0.4451 -0.3185
12825TIP3   OH259889   5.135   1.789   5.475  0.2124  0.0378 -0.1956
12825TIP3    H159890   5.185   1.870   5.485  0.1300 -0.0628  1.3718
12825TIP3    H259891   5.063   1.812   5.416  0.5549  0.9196 -0.2863
12826TIP3   OH259892   0.633   2.016   2.124  0.2805 -0.2456 -0.0749
12826TIP3    H159893   0.714   2.033   2.171 -0.0455  0.3577  0.2921
12826TIP3    H259894   0.570   1.995   2.193  0.0494 -0.3765 -0.3257
12827TIP3   OH259895   0.214   5.360  12.292 -0.1056  0.2651 -0.1568
12827TIP3    H159896   0.192   5.373  12.200 -1.1984  0.8794  0.1661
12827TIP3    H259897   0.142   5.306  12.326 -0.8282  1.7611  0.7891
12828TIP3   OH259898   2.893   1.798  11.772 -0.6377  0.0839 -0.7647
12828TIP3    H159899   2.807   1.837  11.786 -0.1376  1.6618 -1.8262
12828TIP3    H259900   2.949   1.837  11.839 -0.3270  0.5993 -1.3075
12829TIP3   OH259901   4.875   2.145   2.977 -0.0344  0.0320  0.4334
12829TIP3    H159902   4.793   2.194   2.977 -0.7824 -1.0480 -2.0834
12829TIP3    H259903   4.941   2.209   2.950 -0.7782  0.0592 -1.5093
12830TIP3   OH259904   2.912   1.872  11.480  0.2517 -0.5096  0.5363
12830TIP3    H159905   2.901   1.840  11.569 -0.0715  1.4379  1.2480
12830TIP3    H259906   2.941   1.962  11.491  2.2309 -0.8337 -1.3491
12831TIP3   OH259907   0.008   0.336   1.758 -0.1616  0.3409  0.1748
12831TIP3    H159908   0.004   0.424   1.794  1.7674  0.0864  1.1325
12831TIP3    H259909   0.098   0.326   1.727 -0.7353 -0.8002 -1.2660
12832TIP3   OH259910   4.532   6.497   1.208  0.0142  1.0612 -0.0644
12832TIP3    H159911   4.627   6.500   1.216  0.1658 -2.6473  1.4955
12832TIP3    H259912   4.514   6.416   1.160 -2.3440  0.6353  1.3329
12833TIP3   OH259913   2.911   0.004  15.730 -0.3834 -0.3241 -0.5923
12833TIP3    H159914   2.856   0.082  15.728 -0.6897 -0.5326 -2.3779
12833TIP3    H259915   2.996   0.033  15.697 -0.3515 -0.6297 -0.7880
12834TIP3   OH259916   3.660   5.232   1.805  0.0356  0.3189  0.3654
12834TIP3    H159917   3.697   5.188   1.729  2.1721  2.6006 -0.0632
12834TIP3    H259918   3.653   5.163   1.872 -1.2145 -1.5665 -1.5911
12835TIP3   OH259919   0.637   5.426  15.252  0.5171  0.1038 -0.0929
12835TIP3    H159920   0.701   5.468  15.194 -0.6243  1.0351 -0.7082
12835TIP3    H259921   0.555   5.429  15.204 -0.8260  2.3049  2.1196
12836TIP3   OH259922   4.612   5.619  14.190 -0.2650 -0.4654  0.3538
12836TIP3    H159923   4.621   5.714  14.186  1.0950 -0.5470  0.8482
12836TIP3    H259924   4.670   5.592  14.262 -0.4296 -1.6889  0.0605
12837TIP3   OH259925   4.793   5.869   6.367 -0.3781 -0.2772  0.0060
12837TIP3    H159926   4.713   5.858   6.418  0.4845 -1.3937  1.1692
12837TIP3    H259927   4.844   5.934   6.415 -0.1699 -0.2882 -0.1941
12838TIP3   OH259928   6.700   1.208   5.319  0.2467 -0.3205  0.8799
12838TIP3    H159929   6.657   1.219   5.404 -1.8634  0.5881 -0.2378
12838TIP3    H259930   6.722   1.114   5.315 -1.2471 -0.7287  1.7009
12839TIP3   OH259931   5.686   2.365   3.263  0.2429 -0.2371  0.1642
12839TIP3    H159932   5.711   2.434   3.202 -0.8443  0.5936  0.6263
12839TIP3    H259933   5.712   2.397   3.349 -0.0129 -0.5273  0.3525
12840TIP3   OH259934   3.067   3.199  14.318  0.0992  0.0133  0.7110
12840TIP3    H159935   3.069   3.293  14.304 -0.3243 -0.0378  0.2735
12840TIP3    H259936   3.052   3.189  14.412 -0.5526  0.3886  0.6512
12841TIP3   OH259937   0.167   6.009   2.284 -0.6587  0.2020  0.2822
12841TIP3    H159938   0.120   5.950   2.225  1.5590 -1.7394  0.3122
12841TIP3    H259939   0.209   6.073   2.226 -1.2051  0.3685  0.0617
12842TIP3   OH259940   2.846   0.982   3.453 -0.4875 -0.3091 -0.4172
12842TIP3    H159941   2.763   0.998   3.498 -0.9273  1.0960 -1.6423
12842TIP3    H259942   2.845   1.043   3.379 -0.2117 -3.0484 -2.8719
12843TIP3   OH259943   3.043   6.308  11.726  0.0476 -0.0092  0.5281
12843TIP3    H159944   3.013   6.399  11.733 -1.1448 -0.1439 -1.8543
12843TIP3    H259945   3.118   6.303  11.785  0.1721  2.5307  0.6807
12844TIP3   OH259946   0.544   1.510   1.469  0.1844  0.1130  0.2325
12844TIP3    H159947   0.548   1.501   1.374  0.0206 -1.9602  0.3730
12844TIP3    H259948   0.479   1.445   1.497  1.6774 -0.7668  1.8974
12845TIP3   OH259949   2.551   4.077   6.331 -0.1973 -0.1197  0.3823
12845TIP3    H159950   2.476   4.042   6.379 -0.7126 -0.3152 -0.5373
12845TIP3    H259951   2.623   4.074   6.393 -1.3473  1.8589  1.9655
12846TIP3   OH259952   0.290   0.326   0.497  0.5085  0.0604 -0.2950
12846TIP3    H159953   0.270   0.402   0.443  0.6862  0.7245  0.5568
12846TIP3    H259954   0.265   0.251   0.443  0.9745  0.6916 -1.4117
12847TIP3   OH259955   0.128   5.240   2.827  0.5826 -0.0503 -0.0824
12847TIP3    H159956   0.164   5.177   2.765  0.6769  0.3738 -0.4680
12847TIP3    H259957   0.116   5.191   2.908 -0.1779 -0.7963 -0.6249
12848TIP3   OH259958   2.731   0.753   2.912  0.0753  0.5013  0.5780
12848TIP3    H159959   2.662   0.697   2.876 -0.5990 -0.4496  3.1547
12848TIP3    H259960   2.812   0.704   2.894 -0.2089  0.1588  0.1947
12849TIP3   OH259961   1.902   2.518   3.242  0.4537 -0.3380  0.5590
12849TIP3    H159962   1.934   2.440   3.288  0.2731 -1.3573 -0.9688
12849TIP3    H259963   1.947   2.516   3.158 -1.2475 -0.0468 -0.3960
12850TIP3   OH259964   1.110   4.768  11.958 -0.3236 -0.4164  0.1598
12850TIP3    H159965   1.042   4.815  12.005 -0.5910  0.5454 -1.1219
12850TIP3    H259966   1.192   4.807  11.988 -0.4093 -0.6912  0.7582
12851TIP3   OH259967   1.799   0.531   2.378 -0.0763 -0.0426 -0.2647
12851TIP3    H159968   1.876   0.475   2.366  0.0851  0.3276 -1.0117
12851TIP3    H259969   1.739   0.478   2.432  1.7197  0.6362  2.6013
12852TIP3   OH259970   1.754   4.418   5.047  0.2586  0.4597 -0.2967
12852TIP3    H159971   1.720   4.409   4.957  1.3401  1.5366 -0.8452
12852TIP3    H259972   1.849   4.414   5.037  0.3675 -1.4541  1.0728
12853TIP3   OH259973   0.959   0.510   1.998  0.1995  0.0312 -0.3720
12853TIP3    H159974   0.979   0.419   1.977 -0.2060 -0.3096  0.6064
12853TIP3    H259975   1.017   0.531   2.072  0.2194  0.5281 -0.5283
12854TIP3   OH259976   4.722   0.654   6.522 -0.5130 -0.2766 -0.0147
12854TIP3    H159977   4.791   0.681   6.583 -0.8008  0.3402  0.0495
12854TIP3    H259978   4.733   0.712   6.447 -0.3328 -0.8526 -0.4439
12855TIP3   OH259979   3.605   5.556  15.295  0.3117  0.3143 -0.2440
12855TIP3    H159980   3.582   5.463  15.305  0.1432  0.4020  0.2386
12855TIP3    H259981   3.549   5.587  15.223 -1.0773  0.5011  0.8702
12856TIP3   OH259982   2.761   5.985  16.472 -0.1354  0.0651  0.4882
12856TIP3    H159983   2.774   5.920  16.402 -0.5726 -0.5499  0.9721
12856TIP3    H259984   2.849   5.998  16.508 -0.0288 -0.1887  0.3247
12857TIP3   OH259985   2.873   2.889  11.868  0.1555  0.2579  0.7550
12857TIP3    H159986   2.806   2.877  11.935  0.1788  0.4431  0.8115
12857TIP3    H259987   2.824   2.893  11.786 -0.1258  2.6110  0.9794
12858TIP3   OH259988   4.485   0.213  11.078 -0.0851  0.0042 -0.3692
12858TIP3    H159989   4.406   0.197  11.026 -0.6078 -0.2227  0.4692
12858TIP3    H259990   4.469   0.297  11.121  0.3364  0.1853 -0.5614
12859TIP3   OH259991   0.719   5.096  14.319 -0.2957 -0.1195  0.4363
12859TIP3    H159992   0.660   5.066  14.388  0.1364 -0.1033  0.8099
12859TIP3    H259993   0.793   5.135  14.365  0.5797 -1.2135 -0.0089
12860TIP3   OH259994   5.669   2.976   4.422 -0.8837  0.2132 -0.2481
12860TIP3    H159995   5.629   2.901   4.378 -0.2933  0.3914 -1.0981
12860TIP3    H259996   5.763   2.958   4.422 -0.8621  0.2117  0.9708
12861TIP3   OH259997   0.823   6.588  12.906 -0.2485 -0.2192 -0.0358
12861TIP3    H159998   0.878   6.512  12.928  0.0008  0.2190  0.8962
12861TIP3    H259999   0.854   6.657  12.964 -1.9352 -0.0179  0.6570
12862TIP3   OH260000   4.522   5.274   0.199 -0.0457  0.2846 -0.6857
12862TIP3    H160001   4.543   5.226   0.119  0.6519 -0.7175  0.0771
12862TIP3    H260002   4.608   5.294   0.237 -0.3696  0.9436 -0.2854
12863TIP3   OH260003   5.661   3.885   2.578 -0.1008  0.4588  0.5615
12863TIP3    H160004   5.571   3.853   2.577 -0.6270  1.8380 -0.1445
12863TIP3    H260005   5.713   3.812   2.611 -1.3607 -0.6659  0.1464
12864TIP3   OH260006   0.126   5.569   2.561 -0.2129 -0.3456 -0.1201
12864TIP3    H160007   0.192   5.625   2.520  0.5176 -0.9565  0.1728
12864TIP3    H260008   0.165   5.545   2.645 -1.1911 -0.0397  0.4254
12865TIP3   OH260009   4.115   0.688  11.214 -0.1297 -0.2349 -0.0484
12865TIP3    H160010   4.059   0.611  11.208  0.1278 -0.3120 -3.0650
12865TIP3    H260011   4.203   0.653  11.228 -0.0486 -0.5064 -1.1587
12866TIP3   OH260012   0.379   4.395  16.021  0.1130  0.4750 -0.1543
12866TIP3    H160013   0.370   4.490  16.007  2.7879  0.6536 -1.1651
12866TIP3    H260014   0.463   4.385  16.064 -0.2454 -1.4627  0.1672
12867TIP3   OH260015   3.933   2.507   4.084  0.1031  0.0089  0.1373
12867TIP3    H160016   3.938   2.418   4.120  0.4253 -0.5175 -1.1670
12867TIP3    H260017   3.929   2.563   4.162 -0.0140 -1.1286  0.9890
12868TIP3   OH260018   3.408   2.497   5.102 -0.3279  0.3316  0.6316
12868TIP3    H160019   3.438   2.574   5.053 -2.3509  0.1451 -1.0536
12868TIP3    H260020   3.429   2.517   5.193  1.9128  1.5249 -0.0623
12869TIP3   OH260021   4.361   6.106  13.705  0.0914 -0.4133  0.1108
12869TIP3    H160022   4.329   6.191  13.737  0.1417 -0.8962  1.5339
12869TIP3    H260023   4.301   6.082  13.635 -2.1152 -0.7926  1.9856
12870TIP3   OH260024   5.218   3.356  11.906  0.5892  0.0999  0.4386
12870TIP3    H160025   5.182   3.445  11.905  0.3589  0.0094  0.5726
12870TIP3    H260026   5.183   3.317  11.986  1.7114  0.3008  1.0562
12871TIP3   OH260027   1.603   3.541  13.881  0.2416 -0.7707 -0.1391
12871TIP3    H160028   1.674   3.476  13.880 -0.9474 -2.2014  1.5419
12871TIP3    H260029   1.530   3.495  13.922 -1.2919  1.0461 -0.7174
12872TIP3   OH260030   3.260   6.189   5.178 -0.8712  0.1880  0.9776
12872TIP3    H160031   3.245   6.127   5.249 -0.8165 -0.4837  0.4268
12872TIP3    H260032   3.230   6.143   5.100 -0.5982  0.7666  0.5202
12873TIP3   OH260033   1.873   5.259   0.385  0.1561  0.3420 -0.2080
12873TIP3    H160034   1.812   5.193   0.418  1.4495 -1.7296 -1.6932
12873TIP3    H260035   1.943   5.260   0.451  0.1452  0.2081 -0.1930
12874TIP3   OH260036   3.176   5.316   2.388  0.2420 -0.3832 -0.0005
12874TIP3    H160037   3.186   5.288   2.297 -0.3970  0.0937 -0.2242
12874TIP3    H260038   3.238   5.388   2.398 -0.2020  0.0454 -0.2768
12875TIP3   OH260039   5.168   0.792  12.963  0.4937  0.1558 -0.1048
12875TIP3    H160040   5.156   0.877  13.005 -0.1533  0.4941 -0.9290
12875TIP3    H260041   5.262   0.776  12.966  0.6255  0.9251  0.0205
12876TIP3   OH260042   2.700   5.802   0.078  0.6698  0.4734  0.1958
12876TIP3    H160043   2.611   5.769   0.088  0.0779  2.0642  0.3491
12876TIP3    H260044   2.712   5.814  -0.016  0.6654  0.4251  0.1885
12877TIP3   OH260045   1.292   0.928  12.224  0.9861  0.5508 -0.1073
12877TIP3    H160046   1.335   0.854  12.181  2.1962  2.2177 -1.9314
12877TIP3    H260047   1.312   0.916  12.317  2.0962 -0.7958 -0.4790
12878TIP3   OH260048   1.259   3.518   4.788 -0.1866 -0.2223 -0.2545
12878TIP3    H160049   1.193   3.454   4.817 -2.2696  2.0197  0.2993
12878TIP3    H260050   1.311   3.470   4.723 -0.5963 -2.9203  1.2355
12879TIP3   OH260051   5.411   4.764  13.250  0.3774  0.4158 -0.0212
12879TIP3    H160052   5.471   4.748  13.323  0.7802 -1.1967 -0.6723
12879TIP3    H260053   5.425   4.856  13.229  1.9657  0.3227  0.4397
12880TIP3   OH260054   5.176   3.375   4.575 -0.1173  0.1972  0.0914
12880TIP3    H160055   5.169   3.286   4.542 -1.2483  0.4841 -0.4807
12880TIP3    H260056   5.221   3.423   4.505 -1.0868  0.4497 -0.3791
12881TIP3   OH260057   3.218   5.413   5.178  0.1086 -0.5156  0.1081
12881TIP3    H160058   3.302   5.459   5.182 -0.1466  0.0308 -0.6140
12881TIP3    H260059   3.224   5.359   5.099 -0.6313  0.3777 -0.5765
12882TIP3   OH260060   2.863   1.606   1.268  0.4393 -0.5879 -0.2678
12882TIP3    H160061   2.825   1.677   1.215  1.0917  0.1532  0.2432
12882TIP3    H260062   2.946   1.585   1.225  0.9349 -0.0375  0.4046
12883TIP3   OH260063   3.163   5.909   1.068 -0.2760 -0.6707  0.9640
12883TIP3    H160064   3.179   5.902   1.162  3.4231  0.8125  0.6073
12883TIP3    H260065   3.224   5.976   1.038  0.0359 -2.3698 -2.7912
12884TIP3   OH260066   4.624   3.692   4.896  0.1585  0.1218  0.4955
12884TIP3    H160067   4.532   3.718   4.910 -0.3319 -1.8729  1.2739
12884TIP3    H260068   4.653   3.660   4.981  1.0077 -0.9382 -0.1733
12885TIP3   OH260069   2.181   5.040   2.560  0.3176 -0.1181  0.0743
12885TIP3    H160070   2.171   5.033   2.655 -1.2604  1.8849  0.1144
12885TIP3    H260071   2.213   5.129   2.545 -0.3646 -0.0800 -1.3207
12886TIP3   OH260072   0.731   3.853   1.812  0.1315  0.8313 -0.4514
12886TIP3    H160073   0.776   3.934   1.836 -1.4997  1.1952  1.6959
12886TIP3    H260074   0.647   3.883   1.775 -1.2530  0.2278  1.9768
12887TIP3   OH260075   5.956   6.385  13.259  0.0978 -0.2669  0.1476
12887TIP3    H160076   5.896   6.420  13.326 -1.4706 -0.8354 -0.8965
12887TIP3    H260077   5.905   6.316  13.216  1.2520 -0.2461 -1.2915
12888TIP3   OH260078   5.824   5.920  12.863 -0.0746 -0.2623  0.6432
12888TIP3    H160079   5.831   5.825  12.877  1.4490 -0.4728 -1.1147
12888TIP3    H260080   5.840   5.958  12.949  2.4113 -1.5730  0.8641
12889TIP3   OH260081   0.275   4.776  16.308  0.1434 -0.3486 -0.3002
12889TIP3    H160082   0.323   4.795  16.389  1.9739 -0.9866 -1.1712
12889TIP3    H260083   0.344   4.755  16.245 -1.3311 -1.4790 -1.5956
12890TIP3   OH260084   0.636   5.931  14.873  0.3555 -0.1017 -0.4661
12890TIP3    H160085   0.549   5.893  14.884  0.0809  0.5538 -0.3574
12890TIP3    H260086   0.693   5.877  14.928  0.0817 -0.7447 -0.8044
12891TIP3   OH260087   0.163   6.350  14.764 -0.1838  0.1407 -0.0097
12891TIP3    H160088   0.120   6.294  14.699  0.0640 -0.9238  0.7184
12891TIP3    H260089   0.247   6.374  14.723 -0.1920 -0.2103 -0.2370
12892TIP3   OH260090   4.089   6.380   0.474 -0.2534  0.1176  0.3709
12892TIP3    H160091   4.155   6.442   0.506  0.4428 -0.6465  0.4610
12892TIP3    H260092   4.126   6.346   0.393  0.2276 -1.4897  1.2148
12893TIP3   OH260093   0.952   0.679   0.020  0.6362 -0.7851 -0.2299
12893TIP3    H160094   1.034   0.689   0.069  0.2412  0.1999  0.2584
12893TIP3    H260095   0.939   0.584   0.016  0.2302 -0.9278  2.4049
12894TIP3   OH260096   6.712   6.139   1.898  0.1566 -0.0794  0.3292
12894TIP3    H160097   6.673   6.053   1.880 -0.4298  0.2191  0.1623
12894TIP3    H260098   6.782   6.147   1.833 -1.1487  0.4601 -1.0577
12895TIP3   OH260099   5.684   1.499   4.462 -0.5467  0.5511 -0.3682
12895TIP3    H160100   5.763   1.446   4.457  0.4400  1.9988 -0.9899
12895TIP3    H260101   5.699   1.570   4.399 -2.1119  1.1630 -0.0988
12896TIP3   OH260102   6.005   3.627   0.880  0.4318  0.2574  0.1525
12896TIP3    H160103   6.080   3.678   0.848  0.9549 -0.0880  0.8155
12896TIP3    H260104   5.985   3.665   0.965 -1.0218  1.2294 -0.5742
12897TIP3   OH260105   6.575   1.291  13.463  0.8238 -0.1961  0.6198
12897TIP3    H160106   6.656   1.243  13.444  0.0619 -1.2225 -0.1397
12897TIP3    H260107   6.530   1.237  13.528  0.7171  0.3528  1.0110
12898TIP3   OH260108   0.108   4.538  12.394 -0.6320  0.3297 -0.1935
12898TIP3    H160109   0.119   4.476  12.466  0.5223  0.0737 -0.5687
12898TIP3    H260110   0.161   4.613  12.418 -0.0276  0.1367 -0.8822
12899TIP3   OH260111   0.245   3.327   6.533  0.4232  0.3743  0.2097
12899TIP3    H160112   0.333   3.313   6.498  1.4912 -0.3484  2.8931
12899TIP3    H260113   0.208   3.239   6.541  0.2247  0.5147  0.8876
12900TIP3   OH260114   3.190   6.567   0.574 -0.1621  0.4029  0.7937
12900TIP3    H160115   3.140   6.636   0.529 -2.1700 -1.5421 -0.1847
12900TIP3    H260116   3.226   6.514   0.503 -0.5675 -0.8215  1.4782
12901TIP3   OH260117   4.825   1.066   0.392 -0.2323  0.3368 -0.1609
12901TIP3    H160118   4.877   1.051   0.471  1.8786  0.0283 -1.5360
12901TIP3    H260119   4.804   1.160   0.394  0.6349  0.5258  0.2720
12902TIP3   OH260120   0.550   3.578   4.247  0.1684 -0.2046 -0.1961
12902TIP3    H160121   0.593   3.614   4.170 -1.8893 -0.4397 -1.5571
12902TIP3    H260122   0.621   3.550   4.304  1.8443  3.3205 -0.2958
12903TIP3   OH260123   1.002   2.466   2.473 -0.5421  0.6828 -0.4822
12903TIP3    H160124   0.912   2.453   2.501 -0.4497  0.8467 -0.0979
12903TIP3    H260125   0.998   2.534   2.406 -0.5404  1.7909  0.6046
12904TIP3   OH260126   3.544   3.640   2.033  0.4325 -0.4464 -0.1779
12904TIP3    H160127   3.529   3.558   1.986  0.5605 -0.2138 -0.6243
12904TIP3    H260128   3.590   3.696   1.971  1.1705 -0.3540  0.4340
12905TIP3   OH260129   5.184   6.427  12.242 -1.0141  0.6346 -0.5321
12905TIP3    H160130   5.135   6.479  12.178 -1.5279  0.8534  0.0252
12905TIP3    H260131   5.116   6.383  12.294 -0.5975 -0.4965 -0.9015
12906TIP3   OH260132   4.438   6.361  13.472 -0.1984  0.2390 -0.3691
12906TIP3    H160133   4.453   6.421  13.400 -1.6602  0.9289 -0.1390
12906TIP3    H260134   4.405   6.416  13.543 -0.1151 -0.6140  0.3550
12907TIP3   OH260135   6.242   1.869   3.067 -0.5507  0.6216 -0.0636
12907TIP3    H160136   6.278   1.785   3.095 -0.5034  0.9885  1.0324
12907TIP3    H260137   6.195   1.850   2.987  1.7584  0.0295 -1.3776
12908TIP3   OH260138   3.418   3.461  15.790  0.9766 -0.0690 -0.0119
12908TIP3    H160139   3.469   3.428  15.716  0.6231  2.3356 -1.4392
12908TIP3    H260140   3.406   3.554  15.771  1.7481  0.9268  3.5902
12909TIP3   OH260141   6.021   5.967  13.979 -0.8564  0.3581  0.5000
12909TIP3    H160142   5.968   6.038  14.017 -0.5610  1.4350 -1.0143
12909TIP3    H260143   5.998   5.890  14.031 -1.8582  1.3742  1.6284
12910TIP3   OH260144   0.725   1.343   0.205  0.1323 -0.0040 -0.2705
12910TIP3    H160145   0.742   1.338   0.111  3.2087  1.2898  0.1044
12910TIP3    H260146   0.645   1.396   0.212 -0.1843 -0.1690 -2.1263
12911TIP3   OH260147   1.632   2.463  17.037  0.0304  0.0071  0.2733
12911TIP3    H160148   1.637   2.538  17.097  0.4168 -0.4712  0.8589
12911TIP3    H260149   1.562   2.409  17.073  0.3327 -0.3331  0.3490
12912TIP3   OH260150   4.997   5.140   2.630 -0.2072  0.1618 -0.1829
12912TIP3    H160151   5.017   5.154   2.723 -1.4662  2.6239 -0.2011
12912TIP3    H260152   4.903   5.153   2.624 -0.3357 -1.2108 -1.6469
12913TIP3   OH260153   6.134   5.224   5.144 -0.2678 -0.0044  0.2820
12913TIP3    H160154   6.103   5.203   5.233  2.2841  0.2179  1.3211
12913TIP3    H260155   6.094   5.308   5.124 -1.3577 -0.3389  0.9888
12914TIP3   OH260156   3.302   4.065  15.149 -0.1227 -0.3564  0.2142
12914TIP3    H160157   3.279   4.157  15.137  0.6088 -0.0684  0.9162
12914TIP3    H260158   3.356   4.064  15.228  0.4391 -1.2996 -0.1637
12915TIP3   OH260159   4.284   0.038  13.410  0.1865  0.7516  0.4623
12915TIP3    H160160   4.224   0.085  13.468 -0.0038 -0.6659  1.4630
12915TIP3    H260161   4.371   0.066  13.439  0.1222 -0.5045  1.9861
12916TIP3   OH260162   1.206   1.188   2.741 -0.1457  0.1133 -0.2873
12916TIP3    H160163   1.203   1.175   2.836 -0.8255 -1.0184 -0.4526
12916TIP3    H260164   1.298   1.209   2.723 -0.1291  0.9421  0.6866
12917TIP3   OH260165   4.668   2.622  13.515 -0.6501 -0.0963  0.2978
12917TIP3    H160166   4.648   2.715  13.509  0.7366  0.4509  2.6700
12917TIP3    H260167   4.593   2.579  13.475 -2.4492  1.9913  1.1807
12918TIP3   OH260168   3.250   2.425   3.296  0.3909  0.4368  0.1748
12918TIP3    H160169   3.189   2.476   3.349  0.7901 -1.1913  2.3584
12918TIP3    H260170   3.232   2.334   3.319  2.3451 -0.1948 -0.5726
12919TIP3   OH260171   1.780   5.559   1.668  0.4110  0.1710  1.0213
12919TIP3    H160172   1.875   5.555   1.657  0.4260 -0.6178  1.4069
12919TIP3    H260173   1.758   5.483   1.722 -0.2362  1.2936  2.3957
12920TIP3   OH260174   3.611   1.076   4.170 -0.1525  0.6960 -0.2149
12920TIP3    H160175   3.544   1.009   4.186 -0.2220  0.3248 -1.8275
12920TIP3    H260176   3.562   1.158   4.168 -1.0809  0.2439 -3.5647
12921TIP3   OH260177   1.508   2.205   5.752  0.2049 -0.3006  0.4772
12921TIP3    H160178   1.534   2.298   5.753 -1.2954  0.1898  2.5861
12921TIP3    H260179   1.531   2.175   5.665  2.0356  1.6712  0.1739
12922TIP3   OH260180   1.143   3.221   6.460 -0.2681 -0.5620 -0.1201
12922TIP3    H160181   1.172   3.130   6.457  0.4770 -0.3011 -2.4311
12922TIP3    H260182   1.072   3.226   6.396  0.8515  0.8031 -1.3341
12923TIP3   OH260183   4.238   6.571  14.987  0.1447 -0.4306 -0.1776
12923TIP3    H160184   4.326   6.574  15.025 -0.5362  1.1990  1.4342
12923TIP3    H260185   4.188   6.513  15.046  0.0116 -1.0061 -0.8398
12924TIP3   OH260186   3.182   2.307   3.619  0.1203 -0.0989 -0.2046
12924TIP3    H160187   3.144   2.250   3.686  0.3256 -0.1963 -0.1703
12924TIP3    H260188   3.146   2.273   3.536  0.8650 -0.7906 -0.2597
12925TIP3   OH260189   3.318   4.524  12.768 -0.0261  0.3556 -0.0024
12925TIP3    H160190   3.259   4.570  12.829  0.9386  1.0182  0.4534
12925TIP3    H260191   3.406   4.542  12.802  0.4360 -0.7528 -0.5877
12926TIP3   OH260192   5.771   2.745  12.423  0.1671 -0.3358  0.0512
12926TIP3    H160193   5.692   2.736  12.475  0.7229 -0.5033  0.8839
12926TIP3    H260194   5.840   2.767  12.486  1.3390 -2.8453 -0.2328
12927TIP3   OH260195   2.718   3.544   3.470  0.0210 -0.7303  0.2779
12927TIP3    H160196   2.692   3.469   3.417  0.9194  0.3262 -1.7391
12927TIP3    H260197   2.677   3.619   3.428 -0.9128 -0.0411  2.2986
12928TIP3   OH260198   6.388   4.960   3.451 -0.3369 -0.6120  0.4676
12928TIP3    H160199   6.470   4.915   3.428 -0.6113 -1.0427  0.3201
12928TIP3    H260200   6.322   4.920   3.394 -0.3297  1.0540 -0.7990
12929TIP3   OH260201   1.333   4.452  11.229 -0.2856  0.9697  0.2589
12929TIP3    H160202   1.280   4.401  11.290  1.3879  0.3785  1.2927
12929TIP3    H260203   1.332   4.541  11.264  1.9948  0.3312  2.2172
12930TIP3   OH260204   5.592   5.288  12.422  1.1649 -0.3166 -0.1971
12930TIP3    H160205   5.629   5.330  12.499  1.7590  0.8461 -1.0941
12930TIP3    H260206   5.665   5.280  12.361  0.1834  1.1031 -1.6128
12931TIP3   OH260207   6.142   2.134  15.275 -0.6775 -0.3059  0.2570
12931TIP3    H160208   6.104   2.057  15.316  0.1759 -0.4876  0.7384
12931TIP3    H260209   6.203   2.169  15.340 -1.0030  0.7386  0.0135
12932TIP3   OH260210   2.852   3.700   0.264 -0.0570 -0.5769  0.0296
12932TIP3    H160211   2.757   3.710   0.270 -0.1371 -1.8519  1.6326
12932TIP3    H260212   2.885   3.788   0.249 -1.5179 -0.2134 -1.3524
12933TIP3   OH260213   2.380   5.242   6.460 -0.1976  0.2195 -0.3357
12933TIP3    H160214   2.436   5.315   6.433 -1.1895  0.7637 -0.9628
12933TIP3    H260215   2.344   5.269   6.544  0.6764 -0.2521  0.2053
12934TIP3   OH260216   5.796   1.095   5.747 -0.6062 -0.1842  0.1249
12934TIP3    H160217   5.816   1.049   5.829 -1.3122  0.2342  0.5412
12934TIP3    H260218   5.876   1.087   5.695 -0.7555 -2.0506  0.0978
12935TIP3   OH260219   3.962   4.244   0.213  0.2013 -0.5977 -0.0962
12935TIP3    H160220   3.998   4.262   0.127  0.5461 -0.0006  0.1736
12935TIP3    H260221   3.883   4.297   0.218 -2.0577 -3.4995 -1.5463
12936TIP3   OH260222   6.421   0.850  13.886 -0.7853  0.0843  0.1269
12936TIP3    H160223   6.493   0.839  13.823 -1.3171 -0.5192 -0.3917
12936TIP3    H260224   6.355   0.901  13.838 -0.6350  0.8025  0.6653
12937TIP3   OH260225   5.409   0.691  12.251  0.2196 -0.7505  0.4905
12937TIP3    H160226   5.318   0.672  12.274 -0.7717  0.3816 -2.1476
12937TIP3    H260227   5.411   0.689  12.156  2.9037 -0.3251  0.4627
12938TIP3   OH260228   3.134   3.005   2.403  0.2555  0.0147 -0.6515
12938TIP3    H160229   3.084   2.980   2.325 -2.1251  0.3034  0.6762
12938TIP3    H260230   3.126   2.930   2.462 -0.9861  1.0532  0.6131
12939TIP3   OH260231   0.152   5.820   2.781  0.0686 -0.3491 -0.4594
12939TIP3    H160232   0.216   5.751   2.769 -0.2489 -0.7417  0.0459
12939TIP3    H260233   0.068   5.774   2.786 -0.1087  0.0298  0.2428
12940TIP3   OH260234   0.255   4.505  14.629 -0.6311 -0.1521 -0.1975
12940TIP3    H160235   0.209   4.425  14.607 -0.5428  0.0362 -1.0935
12940TIP3    H260236   0.332   4.476  14.679 -0.9903 -0.5643  0.1153
12941TIP3   OH260237   6.250   3.961  14.598 -0.4596 -0.0170 -0.0390
12941TIP3    H160238   6.226   3.970  14.690 -2.4152  0.0342 -0.5095
12941TIP3    H260239   6.202   3.883  14.569 -0.8678  0.6877 -1.3141
12942TIP3   OH260240   5.944   1.871  17.018  0.1813 -0.2563  0.0583
12942TIP3    H160241   5.897   1.809  16.962 -0.6984  0.4656 -0.0353
12942TIP3    H260242   5.928   1.840  17.107 -0.4502 -0.0418  0.0235
12943TIP3   OH260243   4.690   6.347  17.388 -0.1431  0.1701  0.5251
12943TIP3    H160244   4.692   6.280  17.320 -0.6744  0.1994  0.4822
12943TIP3    H260245   4.747   6.417  17.355 -1.0170  0.5267 -0.2402
12944TIP3   OH260246   1.001   2.508   6.223  0.1425 -0.5244  0.2575
12944TIP3    H160247   0.998   2.603   6.217 -1.8410 -0.6125 -1.6341
12944TIP3    H260248   1.065   2.490   6.292  1.1466  2.1291  0.1456
12945TIP3   OH260249   0.676   3.044  13.328 -0.2366  0.0000  0.3297
12945TIP3    H160250   0.644   2.974  13.271 -0.0033  1.6704 -2.0040
12945TIP3    H260251   0.709   2.998  13.405  0.0917 -2.4704 -1.1541
12946TIP3   OH260252   2.740   3.043   0.114 -0.1436 -0.3234 -0.4826
12946TIP3    H160253   2.655   3.042   0.069  0.6914 -1.9545 -2.1464
12946TIP3    H260254   2.761   3.136   0.123 -2.9786  0.2373  1.8109
12947TIP3   OH260255   6.231   4.612   4.722  0.1535  0.1394  0.6604
12947TIP3    H160256   6.310   4.577   4.762 -0.4023 -2.2955 -0.2144
12947TIP3    H260257   6.180   4.535   4.699 -1.7915  1.6111 -0.1916
12948TIP3   OH260258   0.031   2.522   4.828  0.4775  0.0807  0.6918
12948TIP3    H160259   0.080   2.548   4.906  1.4799 -0.6045  0.3051
12948TIP3    H260260   0.083   2.557   4.755 -0.4444  0.7109  0.3181
12949TIP3   OH260261   4.673   2.455   4.493 -0.3355 -0.0712  0.7988
12949TIP3    H160262   4.681   2.522   4.561 -0.3162  1.5090 -0.6827
12949TIP3    H260263   4.584   2.467   4.459 -0.2155 -0.5620  0.2974
12950TIP3   OH260264   0.408   1.197   5.523  0.3947 -0.5964 -0.4779
12950TIP3    H160265   0.497   1.165   5.536  1.5450  2.0441 -1.1560
12950TIP3    H260266   0.410   1.241   5.438 -1.2807  0.3724 -0.0682
12951TIP3   OH260267   4.248   1.597   5.325  0.0079  0.1016 -0.6857
12951TIP3    H160268   4.248   1.644   5.409 -1.5877 -1.0877  0.0263
12951TIP3    H260269   4.235   1.666   5.259 -3.3294  0.6825  0.3945
12952TIP3   OH260270   3.632   4.850   4.970  0.5847 -0.1346 -0.3261
12952TIP3    H160271   3.570   4.918   4.941  1.4538  1.1630  0.7498
12952TIP3    H260272   3.576   4.777   4.998 -0.4398  0.7365 -0.0254
12953TIP3   OH260273   5.365   2.119  16.917 -0.1001 -0.0472 -0.2299
12953TIP3    H160274   5.380   2.078  16.832  0.8924  0.7838 -0.4699
12953TIP3    H260275   5.446   2.167  16.935 -0.7230  0.6976  0.6579
12954TIP3   OH260276   2.332   3.216  16.326  0.1940  0.1646 -0.4869
12954TIP3    H160277   2.327   3.123  16.301  0.2666  0.0962 -0.2482
12954TIP3    H260278   2.241   3.239  16.346  0.1610  0.1724 -0.6433
12955TIP3   OH260279   2.764   0.537   1.384  0.3593 -0.0871  0.5548
12955TIP3    H160280   2.672   0.560   1.380  0.1038 -1.1235  0.1388
12955TIP3    H260281   2.805   0.591   1.317 -0.0993 -0.2479  0.1368
12956TIP3   OH260282   1.077   3.039  14.187  0.2568  0.4682 -0.1002
12956TIP3    H160283   1.102   2.947  14.195  0.1219  0.4004 -0.4212
12956TIP3    H260284   0.983   3.037  14.169  0.4174  0.6190 -1.0369
12957TIP3   OH260285   6.411   1.948  15.610 -0.2630 -0.1286 -0.6561
12957TIP3    H160286   6.501   1.917  15.625 -0.5114 -1.3873 -1.6007
12957TIP3    H260287   6.409   2.035  15.652  1.3958 -0.0474 -0.6500
12958TIP3   OH260288   6.680   0.705  13.514  0.4961  0.0975 -0.1883
12958TIP3    H160289   6.688   0.628  13.458  0.4069  0.1066 -0.2140
12958TIP3    H260290   6.627   0.766  13.462 -0.5983 -0.3425  0.3815
12959TIP3   OH260291   4.047   1.254   3.936 -0.3326 -0.2681  0.2200
12959TIP3    H160292   3.976   1.201   3.972 -1.0221  1.3691  1.3594
12959TIP3    H260293   4.104   1.271   4.010 -0.8700  1.7325  0.2398
12960TIP3   OH260294   4.614   2.888   2.968  0.1683 -0.8580  0.3075
12960TIP3    H160295   4.572   2.803   2.988  2.2451 -1.8856  0.5291
12960TIP3    H260296   4.694   2.887   3.020  0.7202  0.8362 -0.4693
12961TIP3   OH260297   5.871   5.948   5.545 -0.3237  0.2071  0.5661
12961TIP3    H160298   5.949   5.949   5.601 -0.4389 -3.4956  1.0849
12961TIP3    H260299   5.873   6.031   5.499  1.7767  1.9158  3.3970
12962TIP3   OH260300   6.635   3.905  13.982  0.5622  0.4373 -0.3426
12962TIP3    H160301   6.662   3.855  14.059 -0.1123  0.6961  0.0685
12962TIP3    H260302   6.683   3.866  13.910 -0.9568 -1.7311 -0.2662
12963TIP3   OH260303   5.305   4.469  13.131 -0.3436  0.4561  0.2164
12963TIP3    H160304   5.399   4.485  13.125 -0.3973  0.4555 -0.9022
12963TIP3    H260305   5.269   4.503  13.049 -1.1839 -0.4131  0.1973
12964TIP3   OH260306   0.594   0.697  12.788 -0.3543  0.7313  0.0901
12964TIP3    H160307   0.504   0.729  12.798 -1.3839 -0.7014 -3.3029
12964TIP3    H260308   0.594   0.612  12.833 -0.3879  1.1234  0.8553
12965TIP3   OH260309   0.215   0.416  11.292  0.0043 -0.2610  0.5955
12965TIP3    H160310   0.202   0.409  11.197 -0.3040 -0.6295  0.6658
12965TIP3    H260311   0.310   0.409  11.304  0.0901  0.2978  0.2695
12966TIP3   OH260312   6.092   4.569  16.056  0.1925 -0.3771 -0.2338
12966TIP3    H160313   6.140   4.620  16.122  0.5195  1.0247 -1.4896
12966TIP3    H260314   6.147   4.575  15.977 -1.8093  0.9760 -1.6272
12967TIP3   OH260315   4.437   2.368   4.058  0.2317  0.1056  0.2797
12967TIP3    H160316   4.446   2.310   4.133  0.1135  0.0823  0.2753
12967TIP3    H260317   4.500   2.438   4.075 -0.1097  0.3361  0.6232
12968TIP3   OH260318   0.469   6.385   5.898  0.1258 -0.5575 -0.0447
12968TIP3    H160319   0.411   6.461   5.897  0.0844 -0.4438  2.7336
12968TIP3    H260320   0.476   6.361   5.990 -0.0966 -4.1643 -0.8232
12969TIP3   OH260321   1.795   6.532  17.116  0.3224  0.0342 -0.3245
12969TIP3    H160322   1.742   6.611  17.122 -0.5275 -0.4551 -1.1932
12969TIP3    H260323   1.813   6.521  17.023  0.6815 -0.6305 -0.1858
12970TIP3   OH260324   6.723   4.012  16.027 -0.1293  0.0798 -0.7227
12970TIP3    H160325   6.780   4.082  15.996 -0.3880  0.4353 -0.3939
12970TIP3    H260326   6.687   4.044  16.109  0.0150 -0.5813 -0.3959
12971TIP3   OH260327   6.650   5.784  14.962 -0.1320  0.1651  0.4953
12971TIP3    H160328   6.659   5.795  14.868 -3.0501 -3.1413 -0.4193
12971TIP3    H260329   6.621   5.869  14.994 -0.2039  1.0688 -1.8141
12972TIP3   OH260330   6.144   0.681   1.140 -0.3956  0.6084  0.3206
12972TIP3    H160331   6.109   0.615   1.080 -0.8111  0.5983  0.5736
12972TIP3    H260332   6.199   0.736   1.084  1.9087 -1.3384  0.5414
12973TIP3   OH260333   2.231   5.428   2.828 -0.6088 -0.0874 -0.1537
12973TIP3    H160334   2.150   5.469   2.860 -0.7905 -0.4749 -0.1177
12973TIP3    H260335   2.282   5.411   2.907 -0.4172  0.3096 -0.1890
12974TIP3   OH260336   6.480   1.087  11.332 -0.0928  0.3246  0.3187
12974TIP3    H160337   6.432   1.066  11.252 -0.0237 -0.5446  0.4934
12974TIP3    H260338   6.571   1.097  11.304 -0.0160 -0.2980  0.3246
12975TIP3   OH260339   5.321   6.101  12.623 -0.7127  0.1709  0.5709
12975TIP3    H160340   5.341   6.077  12.713 -1.9839  0.4423  0.9489
12975TIP3    H260341   5.233   6.138  12.627  0.1379  2.5042 -0.3812
12976TIP3   OH260342   0.604   1.478  11.780  0.1627 -0.2622  0.6074
12976TIP3    H160343   0.561   1.554  11.819 -1.1850 -1.0594  0.7521
12976TIP3    H260344   0.650   1.436  11.853 -0.4921 -0.5017  0.8934
12977TIP3   OH260345   6.512   0.520   3.364  0.0042  0.1636  0.0626
12977TIP3    H160346   6.600   0.553   3.345  0.7591 -0.8286  1.6242
12977TIP3    H260347   6.454   0.594   3.347  1.3127  1.3263  0.5142
12978TIP3   OH260348   0.002   5.194  16.811  0.4491  0.0472 -0.0676
12978TIP3    H160349   0.080   5.140  16.824 -0.3638 -1.0487  0.3899
12978TIP3    H260350   0.009   5.225  16.721  1.0524 -0.6502 -0.2703
12979TIP3   OH260351   3.128   6.518   2.661 -0.3333  0.1000  0.4293
12979TIP3    H160352   3.140   6.432   2.622 -0.4672  0.0778  0.4344
12979TIP3    H260353   3.128   6.579   2.587 -0.5603  0.0611  0.3968
12980TIP3   OH260354   2.849   1.677   5.390 -0.0432  0.0207  0.1705
12980TIP3    H160355   2.847   1.668   5.486 -0.9939  1.2639  0.2839
12980TIP3    H260356   2.758   1.670   5.363 -0.2030  2.9211 -0.2957
12981TIP3   OH260357   1.977   5.002  13.540  0.2354 -0.0295 -0.2530
12981TIP3    H160358   1.895   4.987  13.494 -0.6926  5.0877 -0.8856
12981TIP3    H260359   2.043   5.005  13.471  0.0616  0.6040 -0.4024
12982TIP3   OH260360   6.634   4.032   6.020 -0.0468  0.3906  0.0796
12982TIP3    H160361   6.670   4.000   6.103  0.0390 -1.3245 -0.5702
12982TIP3    H260362   6.543   4.003   6.022 -0.2196  0.9142 -0.1556
12983TIP3   OH260363   5.528   0.955  11.701 -0.2403  0.3402 -0.5229
12983TIP3    H160364   5.436   0.944  11.678 -0.5684  2.3785 -0.3346
12983TIP3    H260365   5.570   0.982  11.620 -0.2335  1.4980 -0.1510
12984TIP3   OH260366   0.960   1.633   3.306  0.5545  0.1113  0.4725
12984TIP3    H160367   0.994   1.721   3.288 -0.7634  0.3593 -1.0074
12984TIP3    H260368   1.033   1.587   3.346  2.0401  1.1682 -0.8950
12985TIP3   OH260369   0.414   0.272  14.137 -0.2560  0.2165 -0.2012
12985TIP3    H160370   0.322   0.254  14.119 -0.5196  0.6166  0.7009
12985TIP3    H260371   0.460   0.193  14.110 -0.9981 -0.4518  0.4452
12986TIP3   OH260372   0.335   2.877  15.418  0.0797  0.3673  0.7127
12986TIP3    H160373   0.394   2.846  15.486 -0.0418  0.6324  0.9410
12986TIP3    H260374   0.393   2.916  15.352  0.2412 -0.4890  0.3467
12987TIP3   OH260375   4.947   0.125  12.087 -0.1055 -0.7821 -0.2850
12987TIP3    H160376   5.029   0.143  12.132 -0.1894 -0.4928 -0.2403
12987TIP3    H260377   4.937   0.198  12.025 -0.5154 -0.6069 -0.0197
12988TIP3   OH260378   1.233   3.028   3.537  0.0662 -0.3817  0.6614
12988TIP3    H160379   1.153   3.023   3.588  0.3128  1.2484  1.2845
12988TIP3    H260380   1.215   2.978   3.458 -1.0015 -1.3321  1.4722
12989TIP3   OH260381   1.378   1.208   5.584 -0.5941  0.0493 -0.2687
12989TIP3    H160382   1.383   1.115   5.609  3.6889  0.1313 -0.1020
12989TIP3    H260383   1.311   1.244   5.642 -0.9245 -2.5307  1.1432
12990TIP3   OH260384   1.136   0.609   2.725  0.3686 -0.6765  0.0699
12990TIP3    H160385   1.173   0.609   2.637  0.3740 -2.8196  0.0192
12990TIP3    H260386   1.072   0.538   2.724  0.4292 -0.8003  1.8146
12991TIP3   OH260387   2.767   2.829  15.308  0.0966 -0.5046 -0.2488
12991TIP3    H160388   2.788   2.744  15.269  0.8186  0.4382 -2.0507
12991TIP3    H260389   2.689   2.813  15.361 -0.8671 -1.9376 -1.9937
12992TIP3   OH260390   4.991   1.423  14.333  0.2312 -0.3876  0.0012
12992TIP3    H160391   5.068   1.390  14.378  0.3856  1.7035  1.4092
12992TIP3    H260392   4.982   1.367  14.256  2.9055 -0.9226 -0.0038
12993TIP3   OH260393   5.352   0.365  12.456  0.0904 -0.4459 -0.2576
12993TIP3    H160394   5.378   0.426  12.387  4.8248  0.5871  2.0551
12993TIP3    H260395   5.289   0.414  12.510 -1.4407 -0.2668 -2.0808
12994TIP3   OH260396   4.676   5.635   4.994 -0.0304  0.4901  0.5145
12994TIP3    H160397   4.697   5.666   4.906 -0.5809 -0.9498 -0.1489
12994TIP3    H260398   4.735   5.562   5.009 -1.0451 -0.3251  0.6589
12995TIP3   OH260399   4.443   4.491  12.116  0.3223  0.3937  0.0960
12995TIP3    H160400   4.491   4.570  12.090  0.2797 -0.0423 -1.3550
12995TIP3    H260401   4.380   4.522  12.181  0.9947  1.3739  0.2996
12996TIP3   OH260402   6.718   0.825   3.977 -0.2541 -0.3811 -0.0424
12996TIP3    H160403   6.647   0.768   4.009  0.5205 -1.3062  0.0686
12996TIP3    H260404   6.677   0.911   3.968 -1.2142 -0.7382  0.7011
12997TIP3   OH260405   3.267   0.844  11.320  0.1880  0.1191 -0.5954
12997TIP3    H160406   3.280   0.791  11.241 -0.2974  0.6113 -1.0166
12997TIP3    H260407   3.238   0.781  11.386  1.3274 -0.4230 -0.5913
12998TIP3   OH260408   6.719   0.887   3.280 -0.2869  0.0712 -0.4034
12998TIP3    H160409   6.737   0.803   3.238 -1.3815  0.4303 -1.6697
12998TIP3    H260410   6.796   0.941   3.260 -0.1212 -0.2507 -0.6397
12999TIP3   OH260411   3.317   6.350   5.684 -0.2396  0.2662  0.1073
12999TIP3    H160412   3.390   6.331   5.743 -0.4054 -0.2316  0.1600
12999TIP3    H260413   3.296   6.265   5.644 -0.9748  0.3483  0.3078
13000TIP3   OH260414   2.408   3.266   3.807 -0.0021 -0.0117 -0.1841
13000TIP3    H160415   2.361   3.340   3.768  1.9148  0.1913 -2.2671
13000TIP3    H260416   2.495   3.270   3.769  0.4171 -2.8681  0.3051
13001TIP3   OH260417   5.757   5.097  12.280  0.8113  0.2566  0.5448
13001TIP3    H160418   5.689   5.029  12.271 -0.8763  1.8963  0.2563
13001TIP3    H260419   5.794   5.104  12.192  0.0074  0.6618  0.2246
13002TIP3   OH260420   1.872   1.936   5.498  0.0883  0.1326  0.0769
13002TIP3    H160421   1.948   1.967   5.449 -0.0739  0.7021  0.1710
13002TIP3    H260422   1.875   1.841   5.491  0.9349  0.1468  0.2755
13003TIP3   OH260423   2.049   2.543   5.033 -0.0837  0.3474 -0.6972
13003TIP3    H160424   1.973   2.601   5.037 -0.4370 -0.1630  0.7586
13003TIP3    H260425   2.045   2.503   4.947 -1.3201  0.5228 -0.7385
13004TIP3   OH260426   6.081   1.013   3.763 -0.2430 -0.2308 -0.1544
13004TIP3    H160427   6.015   0.951   3.733 -0.7293  0.7305 -1.1666
13004TIP3    H260428   6.082   1.081   3.695  0.4124  0.7513  0.8030
13005TIP3   OH260429   1.109   4.386  16.190 -0.1154  0.6489  0.1480
13005TIP3    H160430   1.040   4.395  16.125 -0.3852  0.7121  0.4366
13005TIP3    H260431   1.085   4.448  16.259  0.1873  0.6133  0.2883
13006TIP3   OH260432   1.242   1.045  11.825  0.0386  0.9040  0.0879
13006TIP3    H160433   1.229   0.950  11.830  2.2870  0.5755  0.8657
13006TIP3    H260434   1.267   1.060  11.733  0.2155  0.6542  0.0931
13007TIP3   OH260435   2.127   5.781  16.308 -0.7220  0.2935 -0.0368
13007TIP3    H160436   2.091   5.754  16.392 -0.1445  0.2721  0.2040
13007TIP3    H260437   2.129   5.701  16.255  0.4716 -0.0504  0.4934
13008TIP3   OH260438   3.918   6.093  15.329 -0.0730  0.2781 -0.1841
13008TIP3    H160439   4.007   6.128  15.328 -0.3538  1.0126 -1.7645
13008TIP3    H260440   3.862   6.171  15.334 -0.6460 -0.1984  1.4987
13009TIP3   OH260441   1.443   0.689   0.804 -0.1497 -0.2367  0.2766
13009TIP3    H160442   1.535   0.682   0.780 -0.0752  1.0997  0.1445
13009TIP3    H260443   1.429   0.781   0.824 -1.9864  0.0755 -1.9729
13010TIP3   OH260444   4.046   4.163  14.113  0.0154 -0.0361  0.0399
13010TIP3    H160445   4.015   4.181  14.024 -1.4343 -0.6912  0.3724
13010TIP3    H260446   4.134   4.128  14.101 -0.0075  0.2377 -1.1054
13011TIP3   OH260447   4.902   5.957  13.439 -0.3393  0.0675 -0.3696
13011TIP3    H160448   4.852   5.884  13.401 -1.8237  0.8912 -0.1095
13011TIP3    H260449   4.847   5.987  13.512  1.2264  0.1610  0.8169
13012TIP3   OH260450   4.523   4.051  12.234  0.9513 -0.2674  0.4347
13012TIP3    H160451   4.593   3.986  12.222  2.7448  1.7050 -0.4828
13012TIP3    H260452   4.555   4.129  12.188 -1.2459  1.1825  1.2221
13013TIP3   OH260453   2.017   0.899  13.965  0.2414 -0.1853 -0.7559
13013TIP3    H160454   2.017   0.863  13.877 -2.1783 -4.3497  0.6603
13013TIP3    H260455   2.060   0.833  14.019 -2.1677  0.0533  1.7403
13014TIP3   OH260456   3.500   4.993  16.007 -0.1238 -0.2419 -0.0094
13014TIP3    H160457   3.558   4.923  15.977  3.8203  1.7915  1.9953
13014TIP3    H260458   3.499   5.056  15.935 -1.5962 -1.1312 -0.8152
13015TIP3   OH260459   1.061   4.624  11.729  0.2712 -0.0236  0.4850
13015TIP3    H160460   0.975   4.590  11.755 -1.2255  1.8512 -1.5844
13015TIP3    H260461   1.090   4.677  11.803 -3.0553  3.8016 -0.5909
13016TIP3   OH260462   3.315   5.219   0.866 -0.6524 -0.7254 -0.2486
13016TIP3    H160463   3.268   5.140   0.838 -0.9016 -0.2061 -1.3543
13016TIP3    H260464   3.297   5.283   0.797  1.7800 -0.5329 -0.7809
13017TIP3   OH260465   0.165   0.534   5.884  0.1658 -0.7244  0.0834
13017TIP3    H160466   0.185   0.627   5.896  1.7789 -0.7988 -1.5471
13017TIP3    H260467   0.070   0.527   5.897 -0.0785  1.2581 -0.3764
13018TIP3   OH260468   6.570   5.449  14.440 -0.4753  0.5367 -0.0972
13018TIP3    H160469   6.558   5.526  14.384 -0.5683  0.2019 -0.5511
13018TIP3    H260470   6.629   5.478  14.509 -0.6266  1.0554 -0.1836
13019TIP3   OH260471   6.473   4.974   5.608  0.3894 -0.1470 -0.5413
13019TIP3    H160472   6.402   5.034   5.583  1.0660  1.0753  0.3389
13019TIP3    H260473   6.429   4.901   5.652 -0.3552  0.4382 -0.2918
13020TIP3   OH260474   2.084   6.585   5.403 -0.1339 -0.2014  0.7621
13020TIP3    H160475   2.096   6.539   5.487  2.9666 -1.3177 -0.1433
13020TIP3    H260476   2.138   6.664   5.411  1.9365 -1.3437 -0.7679
13021TIP3   OH260477   0.420   3.506  13.801 -0.6413  0.5909 -0.2692
13021TIP3    H160478   0.381   3.431  13.846  0.0782  1.0984  1.2774
13021TIP3    H260479   0.380   3.582  13.843  0.4836  1.0818 -0.0596
13022TIP3   OH260480   3.945   0.199  12.778  0.0339  0.4264  0.4028
13022TIP3    H160481   4.029   0.162  12.751  0.4077  1.4996  0.0397
13022TIP3    H260482   3.954   0.214  12.872  0.2101  0.4327  0.3851
13023TIP3   OH260483   3.536   5.370   5.181 -1.1089 -0.4350 -0.2622
13023TIP3    H160484   3.535   5.276   5.198  0.4830 -0.5959 -0.8718
13023TIP3    H260485   3.612   5.402   5.230 -0.7862  0.2846 -1.2013
13024TIP3   OH260486   6.130   6.135  13.774  0.1856 -0.0161 -0.0350
13024TIP3    H160487   6.118   6.083  13.853 -0.3810  0.1554 -0.0022
13024TIP3    H260488   6.041   6.154  13.744  0.3923  0.4373 -0.3718
13025TIP3   OH260489   3.756   5.986  14.063 -0.2618  0.3932  0.2169
13025TIP3    H160490   3.684   5.957  14.007 -0.0549  1.8240 -0.8552
13025TIP3    H260491   3.715   6.003  14.148 -0.9330 -0.0186 -0.0166
13026TIP3   OH260492   2.394   1.928   2.600  0.0839 -0.6674  1.0330
13026TIP3    H160493   2.420   2.020   2.590 -1.0542 -0.3806  0.5175
13026TIP3    H260494   2.453   1.880   2.542  0.4888 -0.2176  1.0717
13027TIP3   OH260495   6.197   6.358   3.249  0.1057 -0.4385  0.0197
13027TIP3    H160496   6.186   6.453   3.244  2.8255 -0.0609 -0.2096
13027TIP3    H260497   6.235   6.343   3.336 -1.6152 -1.5261  0.6336
13028TIP3   OH260498   2.897   6.420   5.380  0.4045  0.3336  0.4740
13028TIP3    H160499   2.940   6.504   5.366  2.1631 -0.4456  0.9517
13028TIP3    H260500   2.956   6.371   5.437 -0.4597 -1.3167  0.0326
13029TIP3   OH260501   4.406   3.930   2.631  0.0892 -0.5533 -0.0023
13029TIP3    H160502   4.471   3.956   2.696  1.1012  0.7277 -1.4611
13029TIP3    H260503   4.322   3.937   2.677  0.7870  0.1280  1.2159
13030TIP3   OH260504   5.646   1.691   4.279  0.3098 -0.0331  0.6792
13030TIP3    H160505   5.622   1.723   4.192  1.2944  0.3697  0.5402
13030TIP3    H260506   5.725   1.740   4.302  0.0069 -0.0504  1.8544
13031TIP3   OH260507   0.137   4.772  12.615  0.0559 -0.1013 -0.2457
13031TIP3    H160508   0.191   4.723  12.678 -1.4150 -1.3885  0.1060
13031TIP3    H260509   0.051   4.777  12.658 -0.6779 -0.0341 -1.6827
13032TIP3   OH260510   1.225   0.586  16.825 -0.0310 -0.8093 -0.2047
13032TIP3    H160511   1.262   0.670  16.854 -1.3386  0.2458 -1.5064
13032TIP3    H260512   1.207   0.539  16.907 -1.5732  1.1945  0.7031
13033TIP3   OH260513   5.508   6.577  15.910  0.0862  0.6901 -0.7121
13033TIP3    H160514   5.528   6.669  15.924  0.0390  0.5063  0.7124
13033TIP3    H260515   5.458   6.551  15.987 -1.6263 -0.0468 -2.0115
13034TIP3   OH260516   4.581   0.567   4.691 -0.0590 -0.5207 -0.1903
13034TIP3    H160517   4.545   0.631   4.752 -1.5459 -0.1653 -1.3721
13034TIP3    H260518   4.576   0.484   4.738  0.6233  0.0091  0.8574
13035TIP3   OH260519   0.524   0.016  11.844  0.0171 -0.0442  0.1489
13035TIP3    H160520   0.553  -0.016  11.929  1.4409 -1.7727 -0.9147
13035TIP3    H260521   0.601   0.060  11.807 -0.4093  0.1796 -0.5007
13036TIP3   OH260522   3.148   1.261  10.824  0.3073 -0.4863  0.6941
13036TIP3    H160523   3.119   1.204  10.753  1.7029 -0.5946  0.1723
13036TIP3    H260524   3.068   1.303  10.855 -0.2227  0.4954 -1.7507
13037TIP3   OH260525   3.461   4.536   1.768 -0.3370 -0.3440  0.2227
13037TIP3    H160526   3.557   4.537   1.766 -0.3374  0.3776  0.2533
13037TIP3    H260527   3.438   4.444   1.784  0.3764 -0.3789  1.1519
13038TIP3   OH260528   4.796   3.606   0.518 -0.2023  0.0087  1.0500
13038TIP3    H160529   4.729   3.654   0.470 -0.4128  0.5284  1.8491
13038TIP3    H260530   4.858   3.578   0.451 -1.5205 -1.0064  0.2180
13039TIP3   OH260531   3.205   2.169   4.463 -0.2938  0.2539  0.7387
13039TIP3    H160532   3.213   2.203   4.553  1.7684  1.2601  0.2504
13039TIP3    H260533   3.186   2.076   4.474  2.0849 -0.1490  2.3202
13040TIP3   OH260534   5.028   6.378   3.447 -0.1126 -0.5068  0.0833
13040TIP3    H160535   5.067   6.414   3.527 -0.5975 -0.5255  0.3302
13040TIP3    H260536   5.055   6.438   3.378 -1.1598  0.5079  0.5358
13041TIP3   OH260537   0.242   5.691  10.879 -0.4956  0.7170 -0.1608
13041TIP3    H160538   0.259   5.635  10.954 -1.9899 -0.4706 -0.6550
13041TIP3    H260539   0.310   5.668  10.815 -2.5216 -2.5647 -1.3825
13042TIP3   OH260540   0.980   6.317   5.719 -0.3812 -0.4258 -0.1235
13042TIP3    H160541   1.074   6.312   5.702 -0.4457 -1.9102 -0.1256
13042TIP3    H260542   0.939   6.313   5.633 -0.5351 -3.3112 -0.0071
13043TIP3   OH260543   3.218   3.976  14.907  0.6810 -0.7287  0.1279
13043TIP3    H160544   3.257   4.006  14.989  0.3665 -1.1296  0.4219
13043TIP3    H260545   3.206   4.056  14.856  1.2632 -0.5218  0.3026
13044TIP3   OH260546   3.544   5.698   5.610 -0.4382  0.2579  1.0839
13044TIP3    H160547   3.464   5.678   5.562 -0.1688 -0.2578  0.8408
13044TIP3    H260548   3.544   5.636   5.683  0.3177 -0.5386  0.4236
13045TIP3   OH260549   5.662   2.106  16.089  0.4753  0.1037  1.1131
13045TIP3    H160550   5.729   2.171  16.068  1.6384 -0.6397  2.3657
13045TIP3    H260551   5.598   2.154  16.142  1.1616  0.3139  1.7706
13046TIP3   OH260552   2.193   2.534  17.127  0.1268  0.4810 -0.4446
13046TIP3    H160553   2.123   2.488  17.173  0.2732 -1.2644 -1.8296
13046TIP3    H260554   2.258   2.553  17.194 -0.9008  0.5863  0.5507
13047TIP3   OH260555   4.605   2.421  11.949 -0.5219 -0.5020 -0.6646
13047TIP3    H160556   4.598   2.476  11.871 -0.0999 -2.1170 -1.8803
13047TIP3    H260557   4.699   2.406  11.958 -0.5962 -0.5929 -0.0131
13048TIP3   OH260558   3.499   1.303   5.131 -0.0035  0.2512  0.5085
13048TIP3    H160559   3.567   1.370   5.137 -0.1067  0.6388 -1.7901
13048TIP3    H260560   3.461   1.315   5.044  0.0438 -2.8165 -0.0507
13049TIP3   OH260561   1.733   0.065   4.100 -0.1293 -0.0006 -0.0482
13049TIP3    H160562   1.812   0.112   4.071 -0.4129 -0.1573 -1.1218
13049TIP3    H260563   1.736  -0.018   4.051  0.7479 -1.4658  2.3273
13050TIP3   OH260564   2.703   6.541  12.977 -0.2304  0.2587 -0.4626
13050TIP3    H160565   2.700   6.467  13.037  0.6423  0.6174  0.0431
13050TIP3    H260566   2.626   6.531  12.922 -0.7042 -0.4227  0.3140
13051TIP3   OH260567   0.123   5.422  14.871 -0.1252  0.2697  0.1734
13051TIP3    H160568   0.129   5.479  14.947 -0.0697  0.2988  0.1475
13051TIP3    H260569   0.208   5.429  14.829  0.2090 -0.5638  0.6914
13052TIP3   OH260570   0.187   3.186   4.584  0.6382  0.3710  0.2686
13052TIP3    H160571   0.211   3.107   4.535 -0.8255  0.2988 -0.3681
13052TIP3    H260572   0.111   3.222   4.538 -0.3398  0.7191  2.0312
13053TIP3   OH260573   4.340   5.422  14.768  0.9019  0.2596  0.4158
13053TIP3    H160574   4.316   5.492  14.707  1.1388  0.3527  0.4313
13053TIP3    H260575   4.259   5.406  14.818 -0.2270 -1.8675 -1.8773
13054TIP3   OH260576   1.670   1.473  16.586  0.2135 -0.1120  0.7642
13054TIP3    H160577   1.714   1.555  16.565  0.5710 -0.6515 -0.7487
13054TIP3    H260578   1.577   1.496  16.588  0.2195  0.1764 -0.6776
13055TIP3   OH260579   4.150   1.560  12.502  0.2263  0.1581 -0.0812
13055TIP3    H160580   4.198   1.564  12.419 -0.9729  0.0295 -0.8090
13055TIP3    H260581   4.077   1.501  12.484  0.0597 -0.0269  1.1410
13056TIP3   OH260582   2.315   4.892  16.844  0.3343  0.0126 -0.1312
13056TIP3    H160583   2.352   4.828  16.783  2.2595  0.2763  0.6668
13056TIP3    H260584   2.334   4.977  16.805 -1.0182  0.1460 -0.5370
13057TIP3   OH260585   3.004   3.562  16.540  0.4250 -0.3905 -0.2268
13057TIP3    H160586   3.077   3.597  16.489  2.7550 -0.9451  2.4713
13057TIP3    H260587   2.981   3.634  16.599 -0.5798 -0.5628 -0.4038
13058TIP3   OH260588   5.379   1.942  15.130  0.0823 -0.4703 -0.1960
13058TIP3    H160589   5.450   1.895  15.174 -1.0918 -0.6830  1.5958
13058TIP3    H260590   5.313   1.875  15.112 -0.7891  0.1454  0.6191
13059TIP3   OH260591   0.064   2.641  14.807 -0.2222 -0.2549  0.0638
13059TIP3    H160592   0.077   2.571  14.872 -0.6803 -1.0490 -0.6787
13059TIP3    H260593  -0.030   2.659  14.809 -0.3912 -0.9126 -0.9822
13060TIP3   OH260594   2.735   0.684   4.852  0.9008 -0.2214  0.7904
13060TIP3    H160595   2.655   0.675   4.801  1.1474 -0.4782  0.4511
13060TIP3    H260596   2.716   0.756   4.913  0.3378 -0.4278  0.8610
13061TIP3   OH260597   4.784   6.267  16.892  0.3399  0.2680 -0.2808
13061TIP3    H160598   4.788   6.360  16.872 -1.1650  0.2170 -0.9024
13061TIP3    H260599   4.868   6.232  16.862  0.7513  1.3354 -0.4110
13062TIP3   OH260600   0.232   4.977  11.832  0.0275  0.1114 -0.1073
13062TIP3    H160601   0.162   5.042  11.834  0.6307  0.8002 -0.5917
13062TIP3    H260602   0.277   4.987  11.915 -0.4507 -0.3397  0.2094
13063TIP3   OH260603   0.663   5.875  16.301 -1.1230  0.0961  0.0299
13063TIP3    H160604   0.737   5.837  16.348  0.1047  1.2814 -0.8498
13063TIP3    H260605   0.620   5.931  16.365 -1.6543 -1.0776  0.7239
13064TIP3   OH260606   5.857   2.571  11.496 -0.5806  0.4422  0.4186
13064TIP3    H160607   5.809   2.629  11.436 -1.2382 -1.1065 -0.6124
13064TIP3    H260608   5.928   2.626  11.530 -2.2706  2.4166  0.9745
13065TIP3   OH260609   1.423   6.570  15.758 -1.1411  0.4364  0.2592
13065TIP3    H160610   1.483   6.616  15.817  2.1469 -0.6458 -1.9490
13065TIP3    H260611   1.401   6.635  15.691 -0.7670  0.2773 -0.0215
13066TIP3   OH260612   1.558   6.576   6.009 -0.0799  0.0906 -0.2239
13066TIP3    H160613   1.610   6.562   6.087  0.9322 -2.6120 -1.2796
13066TIP3    H260614   1.470   6.545   6.032 -0.5638  1.9383  0.6359
13067TIP3   OH260615   4.089   3.876   4.055  0.2610 -0.5155  0.5531
13067TIP3    H160616   4.042   3.794   4.070 -3.4360  0.7121 -2.6623
13067TIP3    H260617   4.050   3.938   4.116 -0.3336 -0.1168 -0.2224
13068TIP3   OH260618   1.585   2.826   3.097  0.1546 -0.3410 -0.5511
13068TIP3    H160619   1.545   2.907   3.129  0.3176  0.2909 -1.8629
13068TIP3    H260620   1.604   2.775   3.176  2.1902  1.8692  0.5086
13069TIP3   OH260621   3.405   3.000   0.762 -0.2416  0.3117 -0.4842
13069TIP3    H160622   3.481   3.016   0.706 -0.5800  0.2580 -0.9661
13069TIP3    H260623   3.442   2.975   0.847  0.2793  0.6468 -0.6047
13070TIP3   OH260624   0.269   2.208   3.837  0.3886 -0.5125  0.1268
13070TIP3    H160625   0.313   2.124   3.820 -1.5719 -1.0968 -2.6480
13070TIP3    H260626   0.340   2.267   3.863  2.2243 -2.3291 -0.5093
13071TIP3   OH260627   2.525   0.785  12.523  0.2544 -0.1023  0.1965
13071TIP3    H160628   2.603   0.778  12.468  0.5405 -0.2111  0.6094
13071TIP3    H260629   2.452   0.790  12.461  0.5110 -0.9622 -0.1888
13072TIP3   OH260630   1.440   3.499  13.207  0.3749 -0.5203 -0.0785
13072TIP3    H160631   1.527   3.499  13.168 -0.1305  0.7801 -1.3040
13072TIP3    H260632   1.392   3.566  13.158 -1.4469 -1.5128  0.2678
13073TIP3   OH260633   6.675   5.463  16.351 -0.4136  0.8768  0.1729
13073TIP3    H160634   6.704   5.453  16.261 -0.1839  1.1979  0.2135
13073TIP3    H260635   6.740   5.415  16.403 -0.3574  0.9800  0.1983
13074TIP3   OH260636   5.613   0.358  11.488  0.4918 -0.2220  0.1197
13074TIP3    H160637   5.707   0.375  11.497  0.2420  0.1327  3.5759
13074TIP3    H260638   5.605   0.302  11.411  3.3720  0.6352 -0.9209
13075TIP3   OH260639   5.340   2.821  15.186  0.0810  0.3027  0.0803
13075TIP3    H160640   5.404   2.882  15.149 -0.0994  0.6562  0.3504
13075TIP3    H260641   5.266   2.825  15.126  0.1954  0.1119 -0.0733
13076TIP3   OH260642   4.339   5.015   1.736  0.4935  0.9681 -0.1844
13076TIP3    H160643   4.327   4.920   1.747  0.5073  1.0694  0.7510
13076TIP3    H260644   4.431   5.030   1.759  0.4065  1.2561 -0.0240
13077TIP3   OH260645   6.306   2.928   2.890  0.6645  0.6499 -0.0399
13077TIP3    H160646   6.253   2.929   2.970 -2.6420 -1.7138 -1.9588
13077TIP3    H260647   6.320   3.021   2.870 -0.7866  1.3372  1.7998
13078TIP3   OH260648   3.392   2.313  14.042 -0.8343  0.1008  0.3630
13078TIP3    H160649   3.338   2.389  14.023  0.6822  0.6271 -2.3188
13078TIP3    H260650   3.466   2.349  14.092 -1.2677 -0.0530  1.1343
13079TIP3   OH260651   5.236   0.082   0.237  0.1710  0.1332  0.1807
13079TIP3    H160652   5.202  -0.008   0.233  2.1961 -0.8421  2.3736
13079TIP3    H260653   5.314   0.081   0.182 -0.4460  0.9069 -0.7247
13080TIP3   OH260654   3.712   6.603   4.426  0.1662  0.4982 -0.1487
13080TIP3    H160655   3.625   6.578   4.396  0.0650  1.3461 -0.5712
13080TIP3    H260656   3.712   6.581   4.519 -0.5329  0.5884 -0.1207
13081TIP3   OH260657   2.310   4.985  13.919 -0.0682  0.3593  0.0604
13081TIP3    H160658   2.341   5.049  13.855 -0.8471  2.7816  1.8980
13081TIP3    H260659   2.218   4.972  13.896  0.3158 -0.8716 -0.8573
13082TIP3   OH260660   5.414   4.503  13.458  0.1557 -0.2251  0.2495
13082TIP3    H160661   5.434   4.503  13.552 -1.4955  1.0567  0.6524
13082TIP3    H260662   5.319   4.490  13.454 -0.0680  1.5489 -1.1320
13083TIP3   OH260663   1.587   1.763   0.263  0.6019 -0.4386  0.7114
13083TIP3    H160664   1.588   1.802   0.350 -0.5948 -0.0440  0.5797
13083TIP3    H260665   1.663   1.801   0.218  1.1093 -0.4966  1.5070
13084TIP3   OH260666   1.083   1.048  13.846  0.1081  0.9196  0.1621
13084TIP3    H160667   1.156   1.016  13.793 -0.7645 -1.7177  0.4259
13084TIP3    H260668   1.005   1.020  13.798 -0.7390  1.5866  1.0985
13085TIP3   OH260669   6.059   3.316  13.528  0.2679  0.2703 -0.1556
13085TIP3    H160670   6.109   3.371  13.468 -1.6090  1.0402 -1.1031
13085TIP3    H260671   6.121   3.292  13.596  2.4181 -0.3889 -2.2117
13086TIP3   OH260672   6.434   4.134   3.347  0.7119  0.0647  0.3057
13086TIP3    H160673   6.528   4.130   3.367  0.7852 -1.5912 -0.2114
13086TIP3    H260674   6.393   4.085   3.418  0.2189  0.7538  0.5063
13087TIP3   OH260675   4.928   3.890  16.206  0.6161  0.1243 -0.2580
13087TIP3    H160676   4.877   3.962  16.168 -2.5151 -3.0550 -2.7808
13087TIP3    H260677   4.944   3.917  16.297  0.2153  4.1542 -1.2078
13088TIP3   OH260678   4.016   0.012  17.057  0.2777  0.1812 -0.1081
13088TIP3    H160679   3.927  -0.018  17.043  0.6190 -1.3779  0.8728
13088TIP3    H260680   4.064  -0.017  16.980  0.8875 -3.1707  1.3707
13089TIP3   OH260681   3.153   2.924  14.753  0.0347  0.3506 -0.3489
13089TIP3    H160682   3.214   2.857  14.782  1.6662  0.9388 -2.2444
13089TIP3    H260683   3.188   3.006  14.788  1.1686  0.8664 -2.5276
13090TIP3   OH260684   4.430   4.544   0.118 -0.3746  0.0556  0.4555
13090TIP3    H160685   4.500   4.557   0.182  0.5737  2.8085 -0.9757
13090TIP3    H260686   4.351   4.538   0.170  0.7742 -3.1934  2.1353
13091TIP3   OH260687   4.470   3.605  14.707 -0.3257 -0.3303 -1.0650
13091TIP3    H160688   4.438   3.515  14.717 -1.2818 -0.0752 -1.6972
13091TIP3    H260689   4.411   3.644  14.643  0.6266  0.4953 -1.4568
13092TIP3   OH260690   6.339   5.989   2.590 -0.2135 -0.5598  0.0930
13092TIP3    H160691   6.401   6.058   2.567  1.7144 -1.8148  1.2322
13092TIP3    H260692   6.290   5.973   2.510  1.3073  0.1324 -1.0257
13093TIP3   OH260693   0.938   2.570  15.373 -0.8645 -0.1247 -0.4296
13093TIP3    H160694   0.921   2.595  15.463 -1.6998  1.9516 -1.0970
13093TIP3    H260695   1.030   2.589  15.359 -1.3013  1.9970 -0.6865
13094TIP3   OH260696   1.614   1.253  16.915  0.7046 -0.0089 -0.2229
13094TIP3    H160697   1.588   1.221  16.829  0.9248  2.1879 -1.1943
13094TIP3    H260698   1.532   1.259  16.964  0.3847 -0.0806 -0.7385
13095TIP3   OH260699   6.366   3.119  17.024 -0.2795 -0.0414 -0.0682
13095TIP3    H160700   6.371   3.204  17.067 -1.8651 -1.1024  2.3608
13095TIP3    H260701   6.448   3.075  17.047 -0.7410 -0.2639  1.2422
13096TIP3   OH260702   1.730   2.672  17.199 -0.3871 -0.6954  0.1624
13096TIP3    H160703   1.664   2.686  17.267  0.9584 -1.8233  1.8118
13096TIP3    H260704   1.813   2.671  17.247  0.8159  0.2697 -1.7809
13097TIP3   OH260705   0.224   4.824  13.729 -0.1780 -0.1540 -0.7331
13097TIP3    H160706   0.201   4.913  13.753 -0.2144 -0.6697  1.3546
13097TIP3    H260707   0.226   4.776  13.812 -1.0426 -2.3128 -1.8559
13098TIP3   OH260708   5.006   2.426  13.552 -0.4002  0.0836  0.1143
13098TIP3    H160709   4.963   2.468  13.478 -2.1115 -1.2558  0.2977
13098TIP3    H260710   5.070   2.367  13.512 -2.4221 -1.8593 -0.4650
13099TIP3   OH260711   4.248   5.081  15.159 -0.2902 -0.2278  0.3990
13099TIP3    H160712   4.215   5.100  15.071 -2.2818  1.2157  1.3777
13099TIP3    H260713   4.340   5.060  15.146 -1.0108 -2.3161 -2.2842
13100TIP3   OH260714   4.276   0.559   4.256 -0.0252  0.0518  0.0102
13100TIP3    H160715   4.278   0.486   4.194 -0.7233 -1.9502  2.1914
13100TIP3    H260716   4.327   0.528   4.331 -1.2401  1.3720  1.4501
13101TIP3   OH260717   1.841   5.418   2.578 -0.7511  0.8520  0.2646
13101TIP3    H160718   1.786   5.351   2.619 -1.7792  1.3751 -0.2436
13101TIP3    H260719   1.861   5.479   2.648  1.0374 -0.4568  0.9985
13102TIP3   OH260720   0.825   3.545   4.075 -0.5931 -0.2759 -0.3063
13102TIP3    H160721   0.843   3.622   4.129 -1.0605 -1.8573  2.2790
13102TIP3    H260722   0.904   3.492   4.081 -1.3639 -1.3693  0.4833
13103TIP3   OH260723   1.666   2.920   4.418  0.1278 -0.3900  0.2223
13103TIP3    H160724   1.760   2.929   4.438 -0.3269 -0.4975  2.6763
13103TIP3    H260725   1.636   2.848   4.473 -1.5522  0.1223  0.0333
13104TIP3   OH260726   2.285   3.523  15.224 -0.7503 -0.1991  0.1305
13104TIP3    H160727   2.311   3.615  15.217 -1.9928  0.2130  0.4880
13104TIP3    H260728   2.311   3.498  15.312  0.5337 -0.5196 -0.3297
13105TIP3   OH260729   0.242   4.736   4.769  0.4878 -0.1037  0.0064
13105TIP3    H160730   0.198   4.707   4.689 -1.7559  1.0551  0.7213
13105TIP3    H260731   0.186   4.806   4.803  3.2189  1.8436  0.7779
13106TIP3   OH260732   0.787   2.946  15.336 -0.0381  0.7706  0.1039
13106TIP3    H160733   0.718   2.955  15.402 -1.0572  1.7418 -1.0371
13106TIP3    H260734   0.760   2.871  15.282  0.6642  0.1326  0.6133
13107TIP3   OH260735   1.737   5.795  12.721  0.2880  0.6687  0.0120
13107TIP3    H160736   1.711   5.833  12.805 -0.4585  1.1202 -0.4076
13107TIP3    H260737   1.755   5.871  12.665  1.7105  0.3720  0.0267
13108TIP3   OH260738   5.946   5.622   1.039  0.1380 -0.1717 -1.1863
13108TIP3    H160739   5.893   5.545   1.058 -1.1275  1.0529  0.4825
13108TIP3    H260740   6.035   5.587   1.029 -0.6232 -2.0148 -2.0431
13109TIP3   OH260741   0.211   0.053  12.137 -0.3559  0.3640  0.0992
13109TIP3    H160742   0.227   0.042  12.231  0.1135  0.2888  0.0120
13109TIP3    H260743   0.180   0.143  12.129  1.2460  0.9494  0.1279
13110TIP3   OH260744   1.993   5.172   1.553 -0.1235 -0.2771  0.9092
13110TIP3    H160745   2.083   5.144   1.537 -1.0924 -2.6343 -1.0358
13110TIP3    H260746   2.001   5.263   1.582  2.8093 -0.1235 -0.0457
13111TIP3   OH260747   0.302   3.900  14.211  0.1761 -0.2898 -0.1546
13111TIP3    H160748   0.263   3.959  14.276 -0.3030 -0.0753 -0.6346
13111TIP3    H260749   0.249   3.912  14.132  0.1362 -1.2864 -0.2902
13112TIP3   OH260750   1.832   5.434   5.215 -0.2058 -0.3570  0.2058
13112TIP3    H160751   1.753   5.396   5.254 -1.3343  0.7655 -0.8696
13112TIP3    H260752   1.903   5.380   5.248 -1.2382 -0.4352  2.5184
13113TIP3   OH260753   4.253   3.581  12.517 -0.1969  0.4515  0.1485
13113TIP3    H160754   4.320   3.594  12.583  0.1159 -2.1213  0.4498
13113TIP3    H260755   4.177   3.549  12.566 -0.4242 -0.1410 -0.5674
13114TIP3   OH260756   4.348   0.541  15.165 -0.4636  0.2701  0.1596
13114TIP3    H160757   4.308   0.471  15.216  1.9123  0.0366  1.9195
13114TIP3    H260758   4.286   0.614  15.170 -0.4717  0.1907  3.3471
13115TIP3   OH260759   5.497   3.095  12.151 -0.4053  0.5636  0.2452
13115TIP3    H160760   5.452   3.170  12.191 -0.1082  1.8449 -1.6979
13115TIP3    H260761   5.571   3.133  12.105 -0.3162 -0.9156 -0.9192
13116TIP3   OH260762   3.813   1.737   1.248 -0.0273 -0.0536 -0.3391
13116TIP3    H160763   3.865   1.770   1.175 -0.2626 -0.0884 -0.5246
13116TIP3    H260764   3.852   1.777   1.325 -0.9786  1.5512 -0.6427
13117TIP3   OH260765   4.455   3.388  15.534  0.4292  0.3882  0.0315
13117TIP3    H160766   4.474   3.482  15.531  0.6272  0.3610  0.3504
13117TIP3    H260767   4.364   3.380  15.506  0.2379  0.7293  0.5462
13118TIP3   OH260768   3.785   4.984  12.306 -0.1131  0.5733 -0.3884
13118TIP3    H160769   3.701   4.989  12.351  0.5670  0.2359  0.9865
13118TIP3    H260770   3.814   5.075  12.298  0.6586  0.5726  1.7186
13119TIP3   OH260771   4.331   4.686   1.397 -0.2730  0.0279  0.6200
13119TIP3    H160772   4.248   4.732   1.405 -0.2945 -0.1001  1.1703
13119TIP3    H260773   4.318   4.625   1.324 -0.8999 -0.4803  1.1369
13120TIP3   OH260774   1.078   2.632  16.989  0.0313  0.1474 -0.3245
13120TIP3    H160775   0.994   2.598  17.019  0.1916  0.3090  0.3190
13120TIP3    H260776   1.058   2.675  16.906 -0.3854 -0.4609 -0.5433
13121TIP3   OH260777   6.729   0.814  12.721  0.3065 -0.1060  0.4916
13121TIP3    H160778   6.791   0.836  12.652  2.7731 -1.0747  2.2678
13121TIP3    H260779   6.758   0.865  12.796 -2.4576  1.1161  0.8420
13122TIP3   OH260780   2.668   2.011   1.718 -0.9436 -0.2945 -0.2614
13122TIP3    H160781   2.626   2.036   1.636  1.9135  4.1877 -0.6775
13122TIP3    H260782   2.611   2.048   1.786 -0.3839  1.2057 -0.5751
13123TIP3   OH260783   5.564   2.356  16.882 -0.1839  0.4673 -0.4696
13123TIP3    H160784   5.647   2.336  16.924  0.0410  1.0003 -0.6507
13123TIP3    H260785   5.582   2.432  16.827 -0.5187 -0.0887 -1.3768
13124TIP3   OH260786   2.674   3.658   4.701  0.3262 -0.6055  0.0093
13124TIP3    H160787   2.600   3.606   4.733 -0.0738 -0.0046  0.0790
13124TIP3    H260788   2.733   3.663   4.776  0.6035 -1.3597 -0.1422
13125TIP3   OH260789   3.060   3.761   0.889  0.3574  0.3892 -0.2679
13125TIP3    H160790   3.059   3.856   0.882 -1.9278  0.3310 -2.2429
13125TIP3    H260791   3.099   3.732   0.806 -1.2159 -0.3673 -0.7790
13126TIP3   OH260792   4.681   4.011  15.498 -0.2981  0.2754  0.0661
13126TIP3    H160793   4.588   4.005  15.518 -0.5089 -0.6173 -1.0646
13126TIP3    H260794   4.686   4.000  15.403  0.9167  0.8767  0.0316
13127TIP3   OH260795   6.191   0.246  11.656  1.0353 -0.2248  0.0297
13127TIP3    H160796   6.217   0.307  11.725 -0.6795  2.2728 -1.3779
13127TIP3    H260797   6.259   0.256  11.589  0.0374  1.3186 -0.8109
13128TIP3   OH260798   4.476   4.522   5.660 -0.3178 -0.3400 -0.9575
13128TIP3    H160799   4.427   4.519   5.742 -0.4963  0.9431 -1.0087
13128TIP3    H260800   4.455   4.439   5.617  0.9465 -1.7490  0.9488
13129TIP3   OH260801   4.856   1.607   1.428  0.1223 -0.3743 -0.1738
13129TIP3    H160802   4.944   1.607   1.391  0.0326  1.2829 -0.4501
13129TIP3    H260803   4.863   1.552   1.506  2.4806  2.8496  2.1689
13130TIP3   OH260804   4.030   4.899   0.323 -0.0069  0.4529  0.4315
13130TIP3    H160805   3.998   4.920   0.411  0.1717  0.4039  0.5081
13130TIP3    H260806   3.956   4.919   0.265  0.1166  1.1752  0.5173
13131TIP3   OH260807   6.748   1.562   2.709 -0.2321 -0.1868  0.5585
13131TIP3    H160808   6.836   1.533   2.730  0.2818 -0.6535 -1.9541
13131TIP3    H260809   6.755   1.657   2.701 -0.1076 -0.1605  0.9520
13132TIP3   OH260810   5.568   0.913   3.819  0.3744 -0.2563 -0.2595
13132TIP3    H160811   5.533   0.843   3.874  2.2697 -0.3650  0.9166
13132TIP3    H260812   5.663   0.896   3.816  0.6621  1.3134 -1.3305
13133TIP3   OH260813   4.530   2.836  13.209  0.2773 -0.1285  0.1227
13133TIP3    H160814   4.494   2.828  13.297  0.3758 -0.5654  0.1256
13133TIP3    H260815   4.462   2.883  13.160 -0.5396 -1.3990  0.0012
13134TIP3   OH260816   3.177   1.093  12.219  0.3607 -0.1556 -0.1775
13134TIP3    H160817   3.211   1.170  12.173  0.3376  0.2131  0.4092
13134TIP3    H260818   3.100   1.125  12.265  1.8365  0.1851  2.2715
13135TIP3   OH260819   0.679   2.525  13.227 -0.5749  0.0368  0.2302
13135TIP3    H160820   0.745   2.553  13.290 -0.8226 -0.6623  0.8064
13135TIP3    H260821   0.722   2.534  13.142 -0.0429  0.4378  0.5346
13136TIP3   OH260822   6.176   5.836   5.544 -0.4905  0.0729 -0.0149
13136TIP3    H160823   6.143   5.758   5.588 -0.3494  0.5506  0.9691
13136TIP3    H260824   6.260   5.853   5.586  0.2762 -0.1915 -1.3722
13137TIP3   OH260825   2.833   1.790   1.062 -0.3597  0.9011 -0.0492
13137TIP3    H160826   2.895   1.742   1.007 -0.8473  1.6496 -1.2945
13137TIP3    H260827   2.850   1.882   1.043 -0.6436  1.1689  0.9468
13138TIP3   OH260828   1.277   3.672  14.961  0.1553  0.6430  0.1200
13138TIP3    H160829   1.203   3.624  14.925  0.2627  1.4229 -1.2152
13138TIP3    H260830   1.350   3.611  14.957 -0.2368  0.1222  0.7431
13139TIP3   OH260831   3.891   4.292   1.177  0.7391 -0.1691 -0.2053
13139TIP3    H160832   3.880   4.202   1.147  1.8341 -0.2909 -0.2750
13139TIP3    H260833   3.809   4.335   1.154 -0.0919 -1.3193  0.4765
13140TIP3   OH260834   3.267   4.679  11.709 -0.2561 -0.2928 -0.6119
13140TIP3    H160835   3.178   4.695  11.739  0.4947  1.4605  0.9218
13140TIP3    H260836   3.259   4.610  11.644 -3.1196  1.9159 -2.8918
13141TIP3   OH260837   5.466   0.276  13.127  0.4820  0.1141 -0.0236
13141TIP3    H160838   5.392   0.316  13.081  0.4561  0.2112  0.1009
13141TIP3    H260839   5.430   0.249  13.211 -0.2256 -2.7517 -1.1488
13142TIP3   OH260840   0.376   6.313   3.373  0.3821  0.1042 -0.0935
13142TIP3    H160841   0.398   6.400   3.408  0.3623  0.9476 -2.0743
13142TIP3    H260842   0.379   6.323   3.278  0.0544 -2.0027 -0.3811
13143TIP3   OH260843   2.972   5.577  16.317 -0.1692  0.0379 -0.2212
13143TIP3    H160844   2.980   5.635  16.393 -1.2777 -0.3374  0.2034
13143TIP3    H260845   2.937   5.634  16.248 -0.7921 -0.0078  0.0534
13144TIP3   OH260846   4.984   3.198   5.080  0.2981  0.1418 -0.2445
13144TIP3    H160847   4.961   3.167   4.993  1.7665 -1.5246 -0.0946
13144TIP3    H260848   5.004   3.291   5.068 -0.6187  0.2075 -1.4394
13145TIP3   OH260849   5.411   2.734  13.399 -0.4255 -0.3266 -0.1378
13145TIP3    H160850   5.421   2.749  13.306  0.5014 -1.6763 -0.2877
13145TIP3    H260851   5.368   2.648  13.405  1.8905 -1.5223  0.6400
13146TIP3   OH260852   0.919   1.872  11.211 -0.1260  0.0638 -0.4045
13146TIP3    H160853   0.857   1.868  11.139 -0.8175  1.5063  0.0788
13146TIP3    H260854   0.987   1.809  11.188 -0.6164  0.0972 -2.0370
13147TIP3   OH260855   2.136   4.170   0.881  0.2400 -0.3719 -0.2773
13147TIP3    H160856   2.082   4.095   0.906 -2.9322  1.7303 -0.3558
13147TIP3    H260857   2.103   4.242   0.934  2.1093  1.3639 -1.3459
13148TIP3   OH260858   0.020   4.171   3.823 -0.4128 -0.3063  0.3444
13148TIP3    H160859  -0.052   4.123   3.866 -0.0410 -0.2570  1.0416
13148TIP3    H260860   0.091   4.107   3.817 -0.1439 -0.0436  0.6658
13149TIP3   OH260861   4.817   0.386   1.258  0.3990 -0.5152  0.3332
13149TIP3    H160862   4.755   0.372   1.329 -0.8011  1.0816 -0.3147
13149TIP3    H260863   4.861   0.468   1.281 -1.2104  0.9603 -1.4746
13150TIP3   OH260864   0.858   1.289  12.759  0.2511 -0.7500 -0.0244
13150TIP3    H160865   0.935   1.336  12.728  0.2196 -0.6780  0.0062
13150TIP3    H260866   0.807   1.355  12.805 -0.7134 -0.3625 -1.5773
13151TIP3   OH260867   4.212   5.698   4.244  0.3028 -0.1346  0.1369
13151TIP3    H160868   4.225   5.762   4.174  3.0185  0.1632  0.7857
13151TIP3    H260869   4.219   5.749   4.325  1.4415 -1.0468  0.6501
13152TIP3   OH260870   0.242   3.354  13.564  0.7805 -0.1280  0.1732
13152TIP3    H160871   0.324   3.309  13.585 -0.5825 -1.5017  3.1877
13152TIP3    H260872   0.242   3.432  13.618 -0.0924 -0.4112  0.6074
13153TIP3   OH260873   0.494   3.916   3.483  0.4664 -0.5809 -0.4224
13153TIP3    H160874   0.581   3.892   3.514  0.8700  1.1285 -0.0892
13153TIP3    H260875   0.438   3.912   3.562  0.9540  1.3368  0.0737
13154TIP3   OH260876   3.804   1.554  13.652 -0.7396 -0.6672  0.1789
13154TIP3    H160877   3.734   1.610  13.685 -2.1661 -1.7790 -0.8290
13154TIP3    H260878   3.842   1.515  13.730 -0.8249  0.4194  0.7813
13155TIP3   OH260879   6.112   3.015   1.869  0.2552 -0.2461 -1.0821
13155TIP3    H160880   6.139   3.052   1.953 -1.8501 -0.5416 -0.2324
13155TIP3    H260881   6.104   2.921   1.885  0.7581 -0.4364 -1.8879
13156TIP3   OH260882   2.969   0.255   5.905  0.0502  0.3959 -0.3128
13156TIP3    H160883   2.913   0.181   5.882  1.8957 -1.6949  1.4896
13156TIP3    H260884   3.045   0.248   5.847  0.0996  1.0879 -0.3494
13157TIP3   OH260885   5.179   2.475   1.411 -0.5027 -0.0288 -0.4628
13157TIP3    H160886   5.246   2.470   1.479 -0.1182 -0.2814 -0.8581
13157TIP3    H260887   5.154   2.568   1.409  0.5002  0.2494 -0.9388
13158TIP3   OH260888   4.799   3.638  11.796  0.3360 -0.4150  0.0114
13158TIP3    H160889   4.782   3.651  11.889 -0.7428 -1.7440  0.0337
13158TIP3    H260890   4.715   3.656  11.754  0.2243 -1.8715 -0.4574
13159TIP3   OH260891   3.449   5.255  12.240  0.1299  0.3048  0.1914
13159TIP3    H160892   3.428   5.172  12.197  1.1329  1.7022 -3.4106
13159TIP3    H260893   3.537   5.243  12.274  1.1290  0.3872 -2.1515
13160TIP3   OH260894   1.021   0.118  16.157 -0.0666 -0.5190 -0.4727
13160TIP3    H160895   0.981   0.137  16.242  1.8464 -0.1258  0.3867
13160TIP3    H260896   1.073   0.039  16.172  1.9858  0.7190 -0.6480
13161TIP3   OH260897   0.623   0.853  16.650 -0.2336 -0.3290 -0.2006
13161TIP3    H160898   0.602   0.763  16.627  1.1209 -0.8818  0.5779
13161TIP3    H260899   0.648   0.894  16.567  0.9735 -1.2287 -0.3041
13162TIP3   OH260900   4.399   0.027   5.362  0.3022 -0.1654 -0.4448
13162TIP3    H160901   4.377  -0.064   5.342 -0.5282  0.0323 -0.4594
13162TIP3    H260902   4.493   0.025   5.381  0.5889 -0.7825 -1.8202
13163TIP3   OH260903   6.542   5.943   0.271 -0.5824  0.2895  0.0148
13163TIP3    H160904   6.634   5.937   0.245 -0.7554 -2.9607 -0.3768
13163TIP3    H260905   6.493   5.934   0.188 -1.1797 -0.6053  0.4375
13164TIP3   OH260906   6.654   6.095  11.629  0.1017  0.2519  0.3851
13164TIP3    H160907   6.641   6.143  11.710  1.8189  0.9109  0.3026
13164TIP3    H260908   6.587   6.026  11.631 -0.9809  1.2808  1.5303
13165TIP3   OH260909   2.768   4.919  13.817 -0.2542 -0.2612 -0.3831
13165TIP3    H160910   2.740   4.878  13.735 -0.3623 -0.0089 -0.4715
13165TIP3    H260911   2.709   4.883  13.883  0.6173 -1.4213 -0.2048
13166TIP3   OH260912   6.047   3.589  12.599 -0.6977 -0.5481  0.2691
13166TIP3    H160913   6.109   3.625  12.663 -0.3424 -0.9421  0.1482
13166TIP3    H260914   6.018   3.506  12.638 -1.4156 -0.2020  0.4853
13167TIP3   OH260915   1.031   6.720   0.075  0.0570  0.2783  0.7892
13167TIP3    H160916   0.980   6.792   0.112  1.9356  2.8872 -1.3497
13167TIP3    H260917   1.116   6.724   0.120 -0.1500 -1.4254  1.4422
13168TIP3   OH260918   5.544   4.717   3.052 -0.6017  0.1522 -0.0443
13168TIP3    H160919   5.499   4.678   2.976 -0.4865 -0.3181  0.1265
13168TIP3    H260920   5.551   4.645   3.115  2.3838 -0.4737 -0.9197
13169TIP3   OH260921   4.079   5.703   3.071  0.7944  0.1215  0.4782
13169TIP3    H160922   4.154   5.648   3.047  0.8208 -0.1442  1.1479
13169TIP3    H260923   4.108   5.752   3.147  0.2267 -0.1396  0.8728
13170TIP3   OH260924   0.958   4.963   6.863  0.3338 -0.2232 -0.6744
13170TIP3    H160925   0.987   4.926   6.779 -2.7242 -0.3874 -1.7776
13170TIP3    H260926   0.862   4.962   6.858  0.0554  2.4317  1.6756
13171TIP3   OH260927   6.412   1.846   1.148  0.9326 -0.4446 -0.3245
13171TIP3    H160928   6.457   1.898   1.215  1.0480 -2.0497  0.9194
13171TIP3    H260929   6.321   1.875   1.153  0.9095 -0.6288  0.6525
13172TIP3   OH260930   6.479   3.691  11.956  0.9847 -0.1036  0.0614
13172TIP3    H160931   6.573   3.674  11.949  0.8963 -0.1682 -1.1674
13172TIP3    H260932   6.437   3.608  11.934  0.6311  0.1685 -0.3130
13173TIP3   OH260933   5.623   4.601   4.145 -0.6872 -0.0270 -0.2477
13173TIP3    H160934   5.567   4.666   4.102 -0.6774  0.3556  0.3081
13173TIP3    H260935   5.646   4.641   4.229 -0.2539 -0.5319 -0.1210
13174TIP3   OH260936   1.207   2.187  15.875 -0.2235 -0.4023 -0.2764
13174TIP3    H160937   1.264   2.112  15.892  0.6164 -0.2844 -2.3048
13174TIP3    H260938   1.205   2.194  15.779 -3.5346 -0.2939 -0.3133
13175TIP3   OH260939   5.141   5.507  13.032 -0.7054  1.0269 -0.5686
13175TIP3    H160940   5.234   5.489  13.047 -0.4900  1.2839 -1.4786
13175TIP3    H260941   5.097   5.475  13.110  0.0376 -0.1300 -0.5948
13176TIP3   OH260942   5.754   5.460   4.350 -0.1223  0.4879  0.6181
13176TIP3    H160943   5.724   5.369   4.345 -0.5815  0.5937  1.1972
13176TIP3    H260944   5.741   5.483   4.442 -1.5398  1.6376  0.1731
13177TIP3   OH260945   6.008   3.452  16.832 -0.9722 -0.7014  0.2759
13177TIP3    H160946   5.980   3.539  16.802  0.7835  0.4275  1.7580
13177TIP3    H260947   6.052   3.414  16.756  1.5089  1.2537  0.6029
13178TIP3   OH260948   6.653   2.894  14.241 -0.4160 -0.0047  0.5965
13178TIP3    H160949   6.603   2.972  14.215  2.9908  1.9536 -0.8144
13178TIP3    H260950   6.645   2.891  14.336 -2.6954  0.5065  0.4656
13179TIP3   OH260951   1.739   0.485   5.694 -0.0791 -0.2357 -0.6553
13179TIP3    H160952   1.765   0.399   5.728 -0.5028 -0.1670 -0.1307
13179TIP3    H260953   1.677   0.466   5.624 -0.3912 -0.3564 -0.3482
13180TIP3   OH260954   4.170   3.301   0.006  0.3188  0.0984  0.2223
13180TIP3    H160955   4.119   3.357  -0.053  1.3308 -0.1384 -0.9248
13180TIP3    H260956   4.261   3.315  -0.022  0.5621 -2.5423 -0.4974
13181TIP3   OH260957   5.908   5.867   5.131 -0.5859  0.9890  0.4611
13181TIP3    H160958   5.933   5.825   5.213 -0.8305  1.2869  0.6867
13181TIP3    H260959   5.813   5.868   5.133 -0.6017  0.6289 -0.0103
13182TIP3   OH260960   5.940   5.721   3.253  0.0560 -0.0151 -0.3187
13182TIP3    H160961   5.991   5.782   3.199 -0.0812  1.4437  1.1482
13182TIP3    H260962   5.974   5.732   3.341 -0.8750 -1.1273  0.2085
13183TIP3   OH260963   2.429   5.740  12.204  0.2434 -0.4658 -0.0056
13183TIP3    H160964   2.365   5.675  12.233  1.7299 -1.9857 -0.0651
13183TIP3    H260965   2.482   5.758  12.282  0.9170 -0.6095 -0.4242
13184TIP3   OH260966   2.922   2.890  15.079  0.2291 -0.2856 -0.4937
13184TIP3    H160967   2.956   2.800  15.077 -0.6261 -0.6097 -0.8592
13184TIP3    H260968   2.873   2.895  15.161  0.5527 -0.0342 -0.3088
13185TIP3   OH260969   3.389   5.698  13.495  0.7748 -0.8947  0.5517
13185TIP3    H160970   3.374   5.753  13.419  0.3223 -1.3568  0.2999
13185TIP3    H260971   3.305   5.695  13.540  1.4094  0.6641  1.9650
13186TIP3   OH260972   4.116   1.308   2.511 -0.3372  0.0577 -0.0294
13186TIP3    H160973   4.151   1.395   2.530 -2.3188  1.0382 -0.6252
13186TIP3    H260974   4.021   1.318   2.517 -0.6426 -2.6982  2.5516
13187TIP3   OH260975   0.570   4.626   1.700 -0.0715  0.5349 -0.0893
13187TIP3    H160976   0.506   4.596   1.635  0.1100  0.0182 -0.0342
13187TIP3    H260977   0.596   4.547   1.746 -0.3432  0.9273  0.7588
13188TIP3   OH260978   2.924   0.956  14.156  0.0176  0.5468  0.8466
13188TIP3    H160979   2.927   1.014  14.080 -0.1467 -1.0476 -0.4520
13188TIP3    H260980   2.889   1.010  14.226 -1.5427  1.6461 -0.6690
13189TIP3   OH260981   5.034   4.620  10.873 -0.0385  0.0303 -0.6419
13189TIP3    H160982   5.021   4.646  10.781 -0.4161 -1.2562 -0.9787
13189TIP3    H260983   4.946   4.623  10.911  0.3277  2.1451  0.1582
13190TIP3   OH260984   6.603   1.716  14.928 -0.9738 -0.1899 -0.1457
13190TIP3    H160985   6.599   1.776  15.002 -2.0172 -1.8969  1.2406
13190TIP3    H260986   6.591   1.629  14.966  1.2931 -1.4178 -1.9871
13191TIP3   OH260987   4.837   2.022  17.187  0.1511 -0.3337  0.7038
13191TIP3    H160988   4.784   1.980  17.119 -0.7666  1.4087  0.2999
13191TIP3    H260989   4.926   2.021  17.152 -0.0538 -0.8813  0.1868
13192TIP3   OH260990   6.497   5.752  17.135 -0.1670  0.4944 -0.3993
13192TIP3    H160991   6.462   5.687  17.073  0.1233  0.4108 -0.4739
13192TIP3    H260992   6.540   5.817  17.079 -1.7651  1.5820 -0.4513
13193TIP3   OH260993   1.066   2.305   3.588 -0.4210  0.1868  0.0220
13193TIP3    H160994   1.022   2.310   3.673 -0.2631 -0.1783  0.1267
13193TIP3    H260995   0.995   2.305   3.524 -0.5438  3.7190 -0.0602
13194TIP3   OH260996   3.963   4.583  12.262  0.1013 -0.5131 -0.1210
13194TIP3    H160997   3.923   4.506  12.301  1.7037 -0.9110  0.8143
13194TIP3    H260998   3.909   4.603  12.186 -1.5026 -1.3458  0.7676
13195TIP3   OH260999   3.788   6.189   3.356  0.1605 -0.4510  0.2056
13195TIP3    H161000   3.729   6.119   3.384 -1.9235  1.2676  0.3412
13195TIP3    H261001   3.774   6.196   3.261  0.5917 -0.3862  0.1404
13196TIP3   OH261002   1.201   3.044   5.114  0.0958  0.0937 -0.0180
13196TIP3    H161003   1.201   3.038   5.210  1.2545  0.3482  0.0112
13196TIP3    H261004   1.123   3.094   5.093 -0.4991 -0.4836  0.7574
13197TIP3   OH261005   1.537   5.395  14.791 -0.6423 -0.1641  0.1480
13197TIP3    H161006   1.576   5.384  14.878 -1.8298 -0.3619  0.6897
13197TIP3    H261007   1.585   5.334  14.735  1.2916  1.2076  0.2474
13198TIP3   OH261008   1.320   0.044   3.064 -0.1034 -0.3980  0.2423
13198TIP3    H161009   1.270   0.035   2.983  0.5281 -1.3836 -0.0491
13198TIP3    H261010   1.257   0.080   3.127 -0.1745  2.0088 -1.0950
13199TIP3   OH261011   1.268   6.669  13.807 -0.6188 -0.0180 -0.2703
13199TIP3    H161012   1.314   6.699  13.728  1.3326  0.2793  0.9108
13199TIP3    H261013   1.176   6.666  13.781 -0.7663  4.6769 -1.2364
13200TIP3   OH261014   5.482   0.347   3.743  0.1001 -0.3493  0.3954
13200TIP3    H161015   5.428   0.424   3.725  0.0565 -0.8080 -1.6341
13200TIP3    H261016   5.425   0.290   3.795  0.3547  1.1992  2.5095
13201TIP3   OH261017   6.054   4.909   2.717 -0.7040  0.4363  0.0957
13201TIP3    H161018   5.977   4.939   2.668 -0.6559  0.3132 -0.0551
13201TIP3    H261019   6.024   4.904   2.808 -1.1281 -0.4653 -0.0879
13202TIP3   OH261020   5.001   3.647  12.348  0.1307 -0.0820  0.1949
13202TIP3    H161021   4.967   3.557  12.354 -1.1787  0.3163 -0.6332
13202TIP3    H261022   4.923   3.702  12.356  0.3803  0.8652 -2.7137
13203TIP3   OH261023   1.445   4.089  13.391 -0.2985  0.2172 -0.5785
13203TIP3    H161024   1.389   4.166  13.395 -0.1916  0.4337 -2.5355
13203TIP3    H261025   1.384   4.016  13.381 -0.3053  0.2592 -0.8364
13204TIP3   OH261026   4.458   0.134  13.042 -0.0136  0.0827  0.0262
13204TIP3    H161027   4.452   0.186  13.122 -0.3428 -2.7912  2.0310
13204TIP3    H261028   4.532   0.075  13.058  0.3181 -0.1383 -2.0943
13205TIP3   OH261029   1.280   3.130  13.156 -0.1967  0.6868  0.3415
13205TIP3    H161030   1.235   3.213  13.138 -1.1407 -0.1031 -1.1521
13205TIP3    H261031   1.364   3.156  13.192 -0.3735  2.3054 -0.3333
13206TIP3   OH261032   6.573   5.049  13.821 -0.4787 -0.1685 -0.2896
13206TIP3    H161033   6.604   5.109  13.889 -2.8958 -0.1609  0.9289
13206TIP3    H261034   6.513   5.102  13.768 -0.2671 -0.7417 -1.1247
13207TIP3   OH261035   2.445   0.948   0.149 -0.4442 -0.3140  0.0058
13207TIP3    H161036   2.398   1.008   0.207  0.1204 -1.6086  1.8657
13207TIP3    H261037   2.418   0.974   0.061  1.0929  3.8086  0.5552
13208TIP3   OH261038   5.890   3.967  13.462  0.3420 -0.5144 -0.2060
13208TIP3    H161039   5.832   4.020  13.407  1.7986  0.2987 -1.0284
13208TIP3    H261040   5.963   3.944  13.404  0.2528 -2.6082  0.4135
13209TIP3   OH261041   4.279   2.573  15.037 -0.0951 -0.1077 -0.6240
13209TIP3    H161042   4.249   2.633  15.105 -0.0734 -1.5096  0.6708
13209TIP3    H261043   4.210   2.506  15.032  1.3196 -1.7115  0.2535
13210TIP3   OH261044   5.741   4.342  15.222 -0.3244 -0.8339  0.1965
13210TIP3    H161045   5.710   4.356  15.133 -0.3756 -2.5227 -0.0880
13210TIP3    H261046   5.719   4.423  15.268  0.3212  0.3545 -1.4665
13211TIP3   OH261047   0.415   2.268  11.804  0.2272  0.2556  0.0009
13211TIP3    H161048   0.362   2.273  11.724 -0.5587  1.4039  0.5606
13211TIP3    H261049   0.459   2.353  11.808  1.8532 -0.5258 -0.2381
13212TIP3   OH261050   5.690   0.128  14.642  0.2637 -0.1828  0.6739
13212TIP3    H161051   5.711   0.060  14.707  1.9336  1.4993  1.9947
13212TIP3    H261052   5.728   0.095  14.561 -2.8280 -2.8702  0.0967
13213TIP3   OH261053   1.985   1.171   4.926 -0.0550 -0.4466  0.1716
13213TIP3    H161054   1.999   1.264   4.909 -1.8322  0.3895  2.6945
13213TIP3    H261055   2.056   1.147   4.986  1.0750 -1.0982 -1.3472
13214TIP3   OH261056   1.629   4.796   2.124  0.0976  0.0322 -0.3374
13214TIP3    H161057   1.688   4.836   2.059  0.9356  1.0198  0.9881
13214TIP3    H261058   1.543   4.833   2.104  0.8210  2.4208  0.7332
13215TIP3   OH261059   1.180   6.074   3.109  0.4367  1.0354 -0.3482
13215TIP3    H161060   1.179   5.984   3.077 -1.4155  0.8444  0.1501
13215TIP3    H261061   1.258   6.079   3.165  0.3265 -0.3969 -0.0343
13216TIP3   OH261062   3.509   4.406  12.254 -0.3323  0.4561  0.2160
13216TIP3    H161063   3.519   4.494  12.218  1.1248  1.1493  2.1498
13216TIP3    H261064   3.595   4.385  12.288 -1.4133 -0.4356  2.5633
13217TIP3   OH261065   4.051   6.405   5.194 -0.6412  0.7358 -0.6775
13217TIP3    H161066   4.077   6.371   5.108  0.6599 -1.2011  0.4201
13217TIP3    H261067   4.110   6.362   5.256 -3.1625  0.1087  1.4570
13218TIP3   OH261068   3.880   5.261  12.076 -0.7650  0.1534  0.3797
13218TIP3    H161069   3.858   5.241  11.985 -0.6463  2.4872 -0.2137
13218TIP3    H261070   3.969   5.296  12.073 -0.9586  0.7755  1.3202
13219TIP3   OH261071   2.224   2.019   0.995 -0.2562 -0.5526 -0.3556
13219TIP3    H161072   2.254   2.001   1.084 -0.0523  3.0698  0.4567
13219TIP3    H261073   2.130   2.037   1.004 -0.0926  0.5471 -0.7038
13220TIP3   OH261074   5.319   5.492   0.034  0.1346 -0.3709  0.4718
13220TIP3    H161075   5.385   5.458  -0.026 -0.5245 -1.3147  0.2458
13220TIP3    H261076   5.295   5.577  -0.002 -1.6439 -1.6888 -1.8159
13221TIP3   OH261077   0.748   3.205   4.449  0.3113  0.1342  0.0776
13221TIP3    H161078   0.800   3.140   4.402 -1.1029  1.0106 -2.9310
13221TIP3    H261079   0.661   3.200   4.409  0.0333  3.5923 -0.0405
13222TIP3   OH261080   3.381   2.584   0.274  0.0644 -0.0433  0.0359
13222TIP3    H161081   3.394   2.571   0.180  0.8175 -2.8426  0.4516
13222TIP3    H261082   3.293   2.551   0.291  0.6008 -1.2372  0.5701
13223TIP3   OH261083   5.096   2.722  16.832 -0.2575 -0.1203  0.1112
13223TIP3    H161084   5.039   2.646  16.829  0.0898 -0.3760 -2.2305
13223TIP3    H261085   5.106   2.748  16.740  1.0212  1.7092  0.6980
13224TIP3   OH261086   0.783   1.400   4.933 -0.8116  0.3585  0.1155
13224TIP3    H161087   0.841   1.420   5.007 -1.2721 -0.3064  0.6586
13224TIP3    H261088   0.826   1.443   4.858 -0.1040  0.6598  0.6741
13225TIP3   OH261089   2.134   1.112  15.056 -0.0019  0.3374  0.5551
13225TIP3    H161090   2.041   1.115  15.075 -0.5822 -0.3764 -1.8627
13225TIP3    H261091   2.168   1.194  15.092 -1.3842  0.2507  2.1589
13226TIP3   OH261092   3.270   2.502   0.850  0.1857 -0.2850  0.8359
13226TIP3    H161093   3.180   2.475   0.830  0.5550 -0.9421 -0.0237
13226TIP3    H261094   3.274   2.504   0.946 -0.1393 -2.4960  0.9538
13227TIP3   OH261095   1.874   4.192   4.851  0.2545  0.4822  0.0535
13227TIP3    H161096   1.926   4.238   4.918  0.5741  1.2831 -0.7234
13227TIP3    H261097   1.795   4.164   4.897  1.0969 -0.2354  1.1149
13228TIP3   OH261098   5.645   5.445   2.523 -0.5265  0.0529 -0.3539
13228TIP3    H161099   5.602   5.361   2.537  1.4211 -0.7696  1.1128
13228TIP3    H261100   5.695   5.460   2.603  0.7896  1.6149 -1.4090
13229TIP3   OH261101   4.374   1.484   4.128  0.2126  0.2638  0.6364
13229TIP3    H161102   4.297   1.470   4.183  0.0429  0.4603  0.4555
13229TIP3    H261103   4.444   1.505   4.189 -0.0368  0.7469  0.7664
13230TIP3   OH261104   0.112   1.163   2.912 -0.4314  0.3415  0.0272
13230TIP3    H161105   0.021   1.180   2.936 -0.4980 -0.1764  0.1482
13230TIP3    H261106   0.108   1.088   2.853  0.1010 -1.4631  2.1064
13231TIP3   OH261107   4.273   2.657   0.691  0.6174  0.3887 -0.8641
13231TIP3    H161108   4.208   2.727   0.690 -1.5122 -1.3229  2.0295
13231TIP3    H261109   4.312   2.661   0.779 -1.4894 -3.4217  0.5217
13232TIP3   OH261110   5.565   2.393  11.194 -0.3849 -0.1165  0.4480
13232TIP3    H161111   5.582   2.304  11.225 -0.7583  0.1212  1.3611
13232TIP3    H261112   5.491   2.423  11.247 -0.3934  0.6654  0.0041
13233TIP3   OH261113   1.494   4.586  14.468  0.1118 -0.0926 -0.5331
13233TIP3    H161114   1.582   4.582  14.506  0.9738 -1.1524 -2.4984
13233TIP3    H261115   1.492   4.515  14.405 -1.8985  0.4262 -1.1279
13234TIP3   OH261116   6.336   3.454   2.728 -0.4040  0.5072 -0.5722
13234TIP3    H161117   6.319   3.528   2.786  1.8806  1.2749 -0.7828
13234TIP3    H261118   6.292   3.476   2.646 -0.7399  1.0609 -0.2449
13235TIP3   OH261119   4.334   0.148   0.041  0.3221 -0.3154 -0.2576
13235TIP3    H161120   4.293   0.085   0.100  0.4087  0.0843  0.2290
13235TIP3    H261121   4.311   0.233   0.077 -0.0178 -0.0514 -1.0583
13236TIP3   OH261122   0.187   0.657   0.530  0.0480 -0.2491 -0.0298
13236TIP3    H161123   0.170   0.749   0.552  0.9343 -0.3369  1.1103
13236TIP3    H261124   0.103   0.613   0.543 -0.0107  0.1372  0.9338
13237TIP3   OH261125   0.155   1.730  15.262 -1.1407 -0.3047 -0.2709
13237TIP3    H161126   0.226   1.781  15.223  0.1017  0.4257  2.6564
13237TIP3    H261127   0.075   1.776  15.236 -0.2308  1.5172 -0.0173
13238TIP3   OH261128   5.707   5.111  15.554  0.3151 -0.2872  0.3068
13238TIP3    H161129   5.620   5.136  15.522  0.2684 -2.6397 -1.7146
13238TIP3    H261130   5.756   5.193  15.555 -1.4731  0.8491 -0.0092
13239TIP3   OH261131   3.147   3.330  11.177 -0.8463 -0.3997 -0.1243
13239TIP3    H161132   3.055   3.340  11.151 -1.3825 -0.8077  1.4695
13239TIP3    H261133   3.188   3.285  11.103 -1.4922  1.3319 -1.6247
13240TIP3   OH261134   4.587   3.565   1.622  0.0698 -0.3111  0.2159
13240TIP3    H161135   4.660   3.598   1.675  0.0009 -0.4582  0.4064
13240TIP3    H261136   4.509   3.593   1.670  0.0078 -0.4606  0.2022
13241TIP3   OH261137   3.952   5.531   1.236 -0.1386 -0.4736  0.1068
13241TIP3    H161138   3.914   5.600   1.290 -0.0412  0.9483 -1.5438
13241TIP3    H261139   4.046   5.535   1.255 -0.4892 -3.6534  3.8062
13242TIP3   OH261140   0.390   4.192   2.915 -0.0049 -0.8443 -0.1946
13242TIP3    H161141   0.484   4.207   2.918 -0.0970 -0.2995  0.3884
13242TIP3    H261142   0.370   4.177   2.823  0.1935  2.3975 -0.8792
13243TIP3   OH261143   6.012   5.858   4.670  0.5547  0.3727 -0.1770
13243TIP3    H161144   6.036   5.851   4.763 -0.2567  0.5484  0.0498
13243TIP3    H261145   5.945   5.926   4.667  1.1238  0.9168 -1.0030
13244TIP3   OH261146   6.052   1.482  13.688  0.3124 -0.0580 -0.1855
13244TIP3    H161147   6.091   1.417  13.630 -1.4260 -0.3481 -1.0939
13244TIP3    H261148   5.959   1.462  13.687  0.0278  1.0146  1.3758
13245TIP3   OH261149   6.626   2.330  13.479 -0.0435 -0.1810 -0.1475
13245TIP3    H161150   6.710   2.319  13.523  0.5594  1.0697 -0.9226
13245TIP3    H261151   6.608   2.244  13.441  1.0493 -0.3965 -0.2181
13246TIP3   OH261152   1.864   4.913  10.954 -0.0799 -0.6543  0.1029
13246TIP3    H161153   1.927   4.886  10.886  1.4174 -1.2102  1.6443
13246TIP3    H261154   1.806   4.837  10.962 -0.9035 -0.2042 -1.2139
13247TIP3   OH261155   4.089   2.435  12.939 -0.8348 -0.5218  0.8380
13247TIP3    H161156   3.998   2.407  12.936 -0.8534 -0.3986  0.1160
13247TIP3    H261157   4.131   2.388  12.867 -0.9565  1.5725 -0.7174
13248TIP3   OH261158   4.534   6.006   5.561 -0.0841  0.3180 -0.0831
13248TIP3    H161159   4.628   6.017   5.551  0.2924 -0.1051  2.4198
13248TIP3    H261160   4.513   5.928   5.510  1.2084 -0.5174  0.6222
13249TIP3   OH261161   1.092   6.640  14.995  0.6260  0.0148 -0.3940
13249TIP3    H161162   1.017   6.697  14.978  0.9456  0.6193  0.1356
13249TIP3    H261163   1.157   6.666  14.929  0.5323 -0.1930 -0.5676
13250TIP3   OH261164   5.246   6.747  13.332  0.1066  0.0184 -0.2097
13250TIP3    H161165   5.168   6.751  13.388  0.0850 -1.4159 -0.1048
13250TIP3    H261166   5.320   6.751  13.393  0.0996 -3.0621  0.1748
13251TIP3   OH261167   1.950   1.693   0.653 -0.8313 -0.5345  0.7032
13251TIP3    H161168   1.975   1.778   0.617  0.8070 -1.6565 -0.9801
13251TIP3    H261169   1.900   1.715   0.732 -1.4372  1.9755 -0.2793
13252TIP3   OH261170   5.827   2.065   5.257  0.9082 -0.1336 -0.4982
13252TIP3    H161171   5.903   2.100   5.304  0.3429 -1.5754  1.6345
13252TIP3    H261172   5.840   1.970   5.260  0.9170 -0.2998 -3.5043
13253TIP3   OH261173   4.443   4.072   0.469 -0.6457 -0.0424 -0.3045
13253TIP3    H161174   4.348   4.070   0.482 -0.4097  1.7382  2.6652
13253TIP3    H261175   4.477   4.005   0.528  0.0515  1.5651  1.1954
13254TIP3   OH261176   4.311   2.380   0.882 -0.4267 -0.1410  0.4735
13254TIP3    H161177   4.403   2.369   0.858 -0.2127  2.2694 -0.0992
13254TIP3    H261178   4.264   2.373   0.798 -0.9958 -2.7097  0.9209
13255TIP3   OH261179   6.198   1.861  15.863 -0.1365  0.2121 -0.3779
13255TIP3    H161180   6.251   1.852  15.784 -1.0642 -0.2210 -0.9695
13255TIP3    H261181   6.136   1.931  15.843  1.0701  1.6572  0.8127
13256TIP3   OH261182   3.716   4.319  10.762 -0.3021 -0.1759  0.1056
13256TIP3    H161183   3.790   4.282  10.714  0.2214 -1.1623  1.5965
13256TIP3    H261184   3.702   4.405  10.723  3.5643  1.3672  1.5979
13257TIP3   OH261185   2.987   6.009   5.347  0.3798 -0.0495  0.5381
13257TIP3    H161186   2.952   5.926   5.378  0.2594  0.2015  1.0952
13257TIP3    H261187   2.952   6.074   5.408  1.1282  0.3095  0.6017
13258TIP3   OH261188   6.713   0.436  15.734 -0.4213  0.6301 -0.2275
13258TIP3    H161189   6.669   0.505  15.783 -2.9953 -0.2870 -1.0948
13258TIP3    H261190   6.765   0.483  15.669  0.0062  1.7689  0.8929
13259TIP3   OH261191   3.963   3.841  11.781 -0.2926  0.0603 -0.4354
13259TIP3    H161192   4.053   3.832  11.812 -0.6582  0.4751  0.8147
13259TIP3    H261193   3.972   3.884  11.696  0.7428 -1.0193 -0.9031
13260TIP3   OH261194   0.204   1.968   1.425  0.1097 -0.5019  0.4477
13260TIP3    H161195   0.212   1.884   1.472  0.2989 -0.2354  0.9042
13260TIP3    H261196   0.248   1.953   1.342  0.9786 -0.5790  0.9102
13261TIP3   OH261197   4.924   1.637  11.220 -0.7863  0.4206  0.2740
13261TIP3    H161198   4.916   1.706  11.154 -0.6301  0.1322 -0.0483
13261TIP3    H261199   4.871   1.668  11.293 -2.2761  0.0091 -0.5911
13262TIP3   OH261200   3.432   6.519   4.610 -0.5833  0.0002 -0.1559
13262TIP3    H161201   3.395   6.510   4.697 -1.0121  1.1205 -0.2086
13262TIP3    H261202   3.436   6.613   4.594 -1.5917 -0.1872 -1.7966
13263TIP3   OH261203   2.824   6.405   4.454  0.1235 -0.0848 -0.3482
13263TIP3    H161204   2.874   6.406   4.372 -0.1511  0.0341 -0.5155
13263TIP3    H261205   2.826   6.314   4.482  2.1270  0.2069  0.6945
13264TIP3   OH261206   6.062   0.475   0.120  0.1531 -0.0650 -0.3473
13264TIP3    H161207   5.985   0.458   0.174  0.9554 -0.3257  0.7472
13264TIP3    H261208   6.061   0.570   0.105  0.0495  0.0390  0.3225
13265TIP3   OH261209   4.274   3.423  15.992 -0.4299  0.6414  0.1533
13265TIP3    H161210   4.202   3.473  16.032 -0.5495  0.4052  0.2366
13265TIP3    H261211   4.246   3.407  15.902 -0.0195  1.4490 -0.1256
13266TIP3   OH261212   6.675   2.304  12.276  0.2996 -0.4713 -0.2706
13266TIP3    H161213   6.630   2.276  12.196  0.8574  0.9684 -1.1336
13266TIP3    H261214   6.606   2.344  12.330  0.4111  1.4925 -1.4798
13267TIP3   OH261215   1.758   4.469   2.038  0.5468 -0.1165 -0.5634
13267TIP3    H161216   1.840   4.420   2.030  0.1644 -1.5794  2.6196
13267TIP3    H261217   1.690   4.403   2.024 -0.0201  0.3337  0.0062
13268TIP3   OH261218   0.748   5.477   2.445  0.2163  0.1105  0.0071
13268TIP3    H161219   0.780   5.567   2.437 -0.2619  0.2386 -0.5520
13268TIP3    H261220   0.732   5.449   2.355  2.4924 -1.3381 -0.0538
13269TIP3   OH261221   1.766   2.880  13.021  0.2504  0.1703 -0.2801
13269TIP3    H161222   1.785   2.789  12.995 -0.3463  0.1445 -0.6741
13269TIP3    H261223   1.678   2.896  12.985 -0.3993  0.3173  1.3089
13270TIP3   OH261224   2.841   0.680   1.156  0.6371  0.5874 -0.0461
13270TIP3    H161225   2.903   0.660   1.086  0.8268 -0.5615  0.4356
13270TIP3    H261226   2.756   0.686   1.111  0.8930  0.8353 -0.5074
13271TIP3   OH261227   1.645   4.857   4.930  0.4744 -0.1263  0.5415
13271TIP3    H161228   1.738   4.869   4.915  0.0986  0.1010 -2.0703
13271TIP3    H261229   1.606   4.943   4.912 -0.2883 -0.3310  1.1568
13272TIP3   OH261230   0.433   6.392  14.671 -0.3159  0.2151  0.2916
13272TIP3    H161231   0.432   6.320  14.608  0.2026 -0.1219  0.6620
13272TIP3    H261232   0.487   6.360  14.743 -0.3946  0.8340  0.6320
13273TIP3   OH261233   3.445   0.074  11.994 -0.4707 -0.8829  0.7012
13273TIP3    H161234   3.426   0.092  12.086 -1.5294  0.5166  0.2408
13273TIP3    H261235   3.364   0.038  11.959 -0.5846  0.0188 -0.0177
13274TIP3   OH261236   5.679   5.307  14.191  0.0003  0.0625  0.2363
13274TIP3    H161237   5.611   5.273  14.132 -0.2963 -2.7923  2.0424
13274TIP3    H261238   5.631   5.357  14.256 -0.2634 -0.7571  0.6930
13275TIP3   OH261239   3.518   2.682   1.440  0.4525  0.1186  0.2878
13275TIP3    H161240   3.534   2.773   1.465 -0.5891  1.2136 -2.6628
13275TIP3    H261241   3.451   2.653   1.502 -0.0094  1.7351  0.6094
13276TIP3   OH261242   0.256   5.444  16.327 -0.3045  0.0104 -0.1006
13276TIP3    H161243   0.277   5.356  16.356  2.5332  1.0036  1.1964
13276TIP3    H261244   0.324   5.465  16.263 -0.8485  1.3064 -0.2875
13277TIP3   OH261245   6.409   1.858   3.747 -0.2780  0.2388  0.0242
13277TIP3    H161246   6.379   1.848   3.657  1.5015  0.3700 -0.6222
13277TIP3    H261247   6.453   1.775   3.768 -0.9279  0.0946  0.8889
13278TIP3   OH261248   1.564   3.182   5.999  0.3457 -0.2022  0.1500
13278TIP3    H161249   1.578   3.193   6.093 -1.1968  1.2295  0.2721
13278TIP3    H261250   1.629   3.239   5.958 -1.7830  2.7715  0.5588
13279TIP3   OH261251   5.148   1.651  13.489  0.2163 -0.2889 -0.9620
13279TIP3    H161252   5.170   1.656  13.582  0.5077 -0.9213 -0.9930
13279TIP3    H261253   5.135   1.558  13.472 -0.0465 -0.1570 -1.5098
13280TIP3   OH261254   6.694   0.566   5.682  0.6900 -0.6629  0.1064
13280TIP3    H161255   6.787   0.554   5.663  1.0054 -2.1699  2.2792
13280TIP3    H261256   6.653   0.485   5.652  0.3069 -0.6238  0.5217
13281TIP3   OH261257   4.212   5.588  15.103 -0.0790 -0.6881 -0.2427
13281TIP3    H161258   4.221   5.569  15.196  1.0836 -0.2071 -0.2352
13281TIP3    H261259   4.302   5.586  15.069 -0.6101 -2.2735 -1.6555
13282TIP3   OH261260   2.306   0.798  12.357  0.4936  0.6769  0.6878
13282TIP3    H161261   2.225   0.848  12.363  1.1713  1.8633  0.4009
13282TIP3    H261262   2.279   0.708  12.337 -0.7375  1.0324  0.7330
13283TIP3   OH261263   2.871   1.347  13.036  0.0376  0.0210 -0.4392
13283TIP3    H161264   2.811   1.415  13.066 -0.3863 -0.2550 -0.6374
13283TIP3    H261265   2.933   1.392  12.979  0.5366  0.4594  0.4398
13284TIP3   OH261266   6.397   4.730   4.170  0.1767  0.3173 -0.3162
13284TIP3    H161267   6.449   4.671   4.115 -0.7460 -1.6977  0.8453
13284TIP3    H261268   6.450   4.744   4.248 -0.0392  0.1401 -0.1341
13285TIP3   OH261269   5.834   6.452   0.834  0.0978 -0.5663 -0.0675
13285TIP3    H161270   5.922   6.473   0.866 -0.5362  0.8426  0.8471
13285TIP3    H261271   5.783   6.437   0.914 -0.4202 -1.8046 -0.6012
13286TIP3   OH261272   3.259   6.398   4.118  0.5611  0.2639 -0.5110
13286TIP3    H161273   3.251   6.409   4.213  1.0652 -1.3559 -0.2404
13286TIP3    H261274   3.314   6.321   4.108 -0.7690 -0.5488 -2.0962
13287TIP3   OH261275   5.413   5.814   2.980  0.3875 -0.0063  0.1631
13287TIP3    H161276   5.437   5.896   2.938 -3.4851  1.0563 -0.2997
13287TIP3    H261277   5.387   5.756   2.908 -1.7234  0.1766  0.7235
13288TIP3   OH261278   2.955   4.330   5.925  0.0859  0.4231 -0.3784
13288TIP3    H161279   2.867   4.347   5.892  0.8067  3.0190 -1.1290
13288TIP3    H261280   3.001   4.289   5.852  0.2701  1.6052 -0.9337
13289TIP3   OH261281   2.493   5.617  10.857 -0.1984  0.0985 -0.0266
13289TIP3    H161282   2.488   5.646  10.766 -1.7304 -0.5429 -0.1763
13289TIP3    H261283   2.457   5.690  10.908 -1.3860 -0.3916 -0.1459
13290TIP3   OH261284   1.672   0.693   2.878  0.1815  0.5676 -0.3112
13290TIP3    H161285   1.767   0.691   2.873  0.1928 -1.3777 -0.0708
13290TIP3    H261286   1.653   0.736   2.962  0.9973 -2.0417  1.3445
13291TIP3   OH261287   5.158   6.198   6.166  0.1715  0.2032 -0.5425
13291TIP3    H161288   5.106   6.189   6.086  1.0420 -2.1077 -0.9088
13291TIP3    H261289   5.093   6.203   6.236 -0.5884 -1.0731 -1.1251
13292TIP3   OH261290   3.429   0.947  14.452 -0.3767  0.3453 -0.1981
13292TIP3    H161291   3.355   1.004  14.433  1.4324  2.5778 -1.0115
13292TIP3    H261292   3.496   1.005  14.487  2.1696 -0.8616 -2.6272
13293TIP3   OH261293   1.575   4.974  16.155  0.4391 -0.1393  0.3610
13293TIP3    H161294   1.580   4.879  16.159  1.5779 -0.0920  0.3783
13293TIP3    H261295   1.613   5.004  16.238  0.8723  0.3339  0.0052
13294TIP3   OH261296   5.034   1.133  13.652 -0.1209 -0.2378 -0.0306
13294TIP3    H161297   4.993   1.105  13.570  0.3653 -0.7684 -0.0962
13294TIP3    H261298   4.984   1.089  13.720 -0.0875 -0.3522 -0.0790
13295TIP3   OH261299   0.821   0.924   5.766 -0.3346 -0.2846 -0.8701
13295TIP3    H161300   0.916   0.928   5.776 -0.3577 -0.1894 -0.6924
13295TIP3    H261301   0.806   0.847   5.711 -0.1498 -0.2538 -0.9647
13296TIP3   OH261302   4.209   1.806  14.982 -0.2358  0.8906 -0.3420
13296TIP3    H161303   4.267   1.834  14.911 -0.2192  2.3778  0.2324
13296TIP3    H261304   4.261   1.742  15.031 -0.3090 -0.2894 -1.7400
13297TIP3   OH261305   5.635   0.973   0.314  0.5476 -0.0325 -0.1683
13297TIP3    H161306   5.563   0.988   0.254  0.1102  0.5287  0.4825
13297TIP3    H261307   5.683   1.056   0.315  1.1352 -0.3566 -0.4925
13298TIP3   OH261308   5.295   1.112  12.666  0.1401  0.4416 -0.1909
13298TIP3    H161309   5.248   1.068  12.595 -0.7286 -1.0775  1.2777
13298TIP3    H261310   5.236   1.108  12.741  1.3487  1.3193  0.8593
13299TIP3   OH261311   1.570   5.583  15.433 -0.3811 -0.9900 -0.2316
13299TIP3    H161312   1.507   5.640  15.478  0.6874  0.7885 -0.8693
13299TIP3    H261313   1.628   5.552  15.503  1.1387  1.5859 -0.2031
13300TIP3   OH261314   6.457   2.656   5.581 -0.5854 -0.4500  0.7907
13300TIP3    H161315   6.394   2.727   5.569 -0.8507 -0.7408  0.4241
13300TIP3    H261316   6.405   2.576   5.575 -0.2658 -0.6826  1.0447
13301TIP3   OH261317   6.120   5.237   4.474 -0.5312 -0.6742 -0.0589
13301TIP3    H161318   6.115   5.239   4.570  2.4469  0.5696  0.1839
13301TIP3    H261319   6.073   5.158   4.449  0.3948 -2.1981  2.6124
13302TIP3   OH261320   0.657   0.470  12.274 -0.6436 -0.4054  0.3605
13302TIP3    H161321   0.703   0.397  12.315  1.5794  0.3819 -0.5687
13302TIP3    H261322   0.674   0.544  12.332  0.5198  0.2020 -0.7275
13303TIP3   OH261323   0.053   6.565   5.127 -0.0640 -0.8334 -0.1426
13303TIP3    H161324   0.078   6.593   5.214 -0.4899 -0.9893  0.0327
13303TIP3    H261325  -0.017   6.625   5.102  1.4259  0.5421 -1.2169
13304TIP3   OH261326   1.671   0.522   4.973  0.5610  0.1990  0.5838
13304TIP3    H161327   1.637   0.607   5.002  0.4460  0.1819  0.4936
13304TIP3    H261328   1.763   0.523   5.001  0.5022  0.2636  0.7795
13305TIP3   OH261329   2.068   4.070   3.784 -0.0500 -0.1174  0.1796
13305TIP3    H161330   2.132   4.037   3.722  0.8390 -3.1890  2.5242
13305TIP3    H261331   1.987   4.022   3.764 -0.4765  0.7052 -0.1299
13306TIP3   OH261332   3.351   1.390  14.084 -0.4892  0.7560  0.1909
13306TIP3    H161333   3.346   1.485  14.088 -0.6019  0.8226 -1.0173
13306TIP3    H261334   3.417   1.366  14.149  2.4752  1.9779 -2.1194
13307TIP3   OH261335   1.394   5.985   5.742 -0.2406  0.7101  0.2832
13307TIP3    H161336   1.433   6.012   5.824  0.2968  0.7972  0.0042
13307TIP3    H261337   1.395   5.889   5.745 -0.8399  0.7083  0.6594
13308TIP3   OH261338   4.219   1.972   5.625  0.3030  0.1723  1.0197
13308TIP3    H161339   4.126   1.964   5.645 -0.2276  0.9163 -0.9147
13308TIP3    H261340   4.248   2.051   5.671 -0.7007  1.4514 -0.4401
13309TIP3   OH261341   6.151   1.507  12.434  0.5784  0.0024  0.2686
13309TIP3    H161342   6.109   1.446  12.494  0.3867 -0.3507 -0.2123
13309TIP3    H261343   6.229   1.461  12.403 -0.4824 -0.7418 -1.4405
13310TIP3   OH261344   6.391   2.645  11.436  0.0923 -0.2638 -0.1986
13310TIP3    H161345   6.446   2.688  11.370  0.4352  0.9784  0.8606
13310TIP3    H261346   6.388   2.707  11.509 -1.0958 -1.1792  0.5643
13311TIP3   OH261347   3.444   0.852  13.620 -0.1910  0.1350 -0.3515
13311TIP3    H161348   3.416   0.933  13.661 -0.8064 -0.5349  0.6075
13311TIP3    H261349   3.414   0.783  13.680 -0.1250 -0.8221 -1.3821
13312TIP3   OH261350   5.617   3.429   3.950  0.1779 -0.0192  0.3984
13312TIP3    H161351   5.693   3.458   3.900  0.2378 -0.7871  0.0310
13312TIP3    H261352   5.564   3.508   3.962  0.6142  0.3490 -0.0840
13313TIP3   OH261353   4.943   0.185  15.575  0.3755  0.5055  0.0245
13313TIP3    H161354   5.026   0.225  15.550  0.5980 -0.0257 -0.1088
13313TIP3    H261355   4.906   0.155  15.492  0.8680 -0.7956  0.2502
13314TIP3   OH261356   5.137   4.014  14.192  0.5220 -0.2877  0.3002
13314TIP3    H161357   5.208   3.951  14.179  0.8603  0.2704 -0.6050
13314TIP3    H261358   5.059   3.969  14.157  0.4245 -0.8752  1.2388
13315TIP3   OH261359   1.476   3.492  15.093  0.1524 -0.3395  0.0492
13315TIP3    H161360   1.480   3.401  15.122  2.3273  0.0733  1.2614
13315TIP3    H261361   1.558   3.506  15.047  0.2353  1.2321  0.6137
13316TIP3   OH261362   0.995   6.129  14.120  0.1479  0.0457  0.8080
13316TIP3    H161363   1.005   6.191  14.048 -1.4820  0.2971  0.7658
13316TIP3    H261364   1.071   6.072  14.113 -0.6204 -0.8031 -1.9814
13317TIP3   OH261365   4.909   3.996   5.188 -0.5208 -0.5444  0.4590
13317TIP3    H161366   4.836   4.022   5.245 -1.0692  3.5282 -1.7355
13317TIP3    H261367   4.986   4.033   5.231 -0.6710  0.7586 -0.3473
13318TIP3   OH261368   2.545   2.439   4.566 -0.0224  1.0497  0.4567
13318TIP3    H161369   2.568   2.472   4.479  0.2957  0.2254  0.2238
13318TIP3    H261370   2.449   2.441   4.567 -0.0483  0.4368 -0.1656
13319TIP3   OH261371   5.362   6.714  12.302 -0.1828  0.0129  0.4844
13319TIP3    H161372   5.390   6.646  12.363 -1.2260  1.3608  2.5604
13319TIP3    H261373   5.269   6.726  12.320 -0.4079  0.8305 -1.0389
13320TIP3   OH261374   0.548   1.494  14.100 -0.1417  0.3259 -0.0235
13320TIP3    H161375   0.605   1.549  14.154 -0.7122  0.3772  0.5370
13320TIP3    H261376   0.563   1.405  14.133  1.0916  0.0592 -1.2017
13321TIP3   OH261377   2.130   4.465  13.168  0.0090  0.1337 -0.2690
13321TIP3    H161378   2.150   4.551  13.131 -0.1975 -0.2890 -1.3848
13321TIP3    H261379   2.208   4.412  13.147  0.5182  0.2611  1.1732
13322TIP3   OH261380   1.069   4.788   3.289 -0.4162  0.0955 -0.1447
13322TIP3    H161381   1.085   4.856   3.224  0.3479  2.1930  2.0771
13322TIP3    H261382   0.977   4.799   3.313 -0.7427 -0.7845 -0.9463
13323TIP3   OH261383   0.129   4.871   2.645 -0.3325  0.7552  0.2014
13323TIP3    H161384   0.143   4.960   2.612 -1.1270  1.2699  1.2005
13323TIP3    H261385   0.044   4.875   2.689 -0.5759 -0.6122 -0.1004
13324TIP3   OH261386   2.738   5.466  16.032  0.0177 -0.5128 -0.2831
13324TIP3    H161387   2.648   5.492  16.013 -0.3193 -0.5388  1.1435
13324TIP3    H261388   2.790   5.544  16.012 -0.1193 -0.8836 -2.3137
13325TIP3   OH261389   6.073   2.019   0.632  0.1075 -0.1621 -0.0317
13325TIP3    H161390   6.163   2.034   0.605  0.4979 -2.0866  0.0516
13325TIP3    H261391   6.075   2.022   0.728  0.4166 -1.7316  0.0305
13326TIP3   OH261392   3.722   5.947   4.602  0.4361 -0.0083 -0.3129
13326TIP3    H161393   3.779   5.994   4.663  1.4199 -0.3907 -0.9245
13326TIP3    H261394   3.658   5.903   4.658 -1.7663  3.5216  0.2642
13327TIP3   OH261395   6.622   2.416   5.270  0.4051  0.5143 -0.2677
13327TIP3    H161396   6.679   2.367   5.211  0.6300  1.7030 -1.0829
13327TIP3    H261397   6.576   2.478   5.213  0.1544  1.2633  0.7203
13328TIP3   OH261398   6.053   0.334  14.848 -0.0768  0.0743 -0.7445
13328TIP3    H161399   6.095   0.401  14.795 -0.8101 -0.9472 -2.7140
13328TIP3    H261400   6.082   0.353  14.938  1.5653  1.5952 -1.5300
13329TIP3   OH261401   4.892   1.147  12.398 -0.0216  0.4956 -0.0049
13329TIP3    H161402   4.867   1.195  12.319  0.5032 -0.5711 -0.8552
13329TIP3    H261403   4.983   1.171  12.413 -0.0306  0.4648  0.0995
13330TIP3   OH261404   1.315   2.331  13.413  0.1341 -0.4272 -0.2857
13330TIP3    H161405   1.357   2.392  13.352  1.0793 -1.7740 -1.0421
13330TIP3    H261406   1.360   2.347  13.496  2.3665 -1.9397 -1.1109
13331TIP3   OH261407   5.850   4.024  16.691 -0.1557 -0.1042  0.4915
13331TIP3    H161408   5.898   3.942  16.696 -0.1592 -0.0570  1.4174
13331TIP3    H261409   5.916   4.089  16.667 -0.2032 -0.4129 -0.5010
13332TIP3   OH261410   1.208   2.199   4.135  0.3581  0.1215 -0.1717
13332TIP3    H161411   1.218   2.292   4.115 -0.7095  0.0971 -0.8712
13332TIP3    H261412   1.291   2.160   4.108  0.5646  0.7653 -0.4818
13333TIP3   OH261413   0.270   0.642  11.550 -0.0401 -0.3966 -0.3986
13333TIP3    H161414   0.363   0.654  11.532  0.6160 -0.5836  2.4077
13333TIP3    H261415   0.227   0.711  11.499  1.7890  0.8103 -0.4260
13334TIP3   OH261416   1.998   0.271  14.727 -0.6460 -0.4693  0.1422
13334TIP3    H161417   1.951   0.268  14.644 -1.3745  2.2233  0.3955
13334TIP3    H261418   2.088   0.246  14.704 -0.9846 -0.3960 -1.3391
13335TIP3   OH261419   1.421   1.457  13.015  0.2135 -0.3548  0.5559
13335TIP3    H161420   1.406   1.536  12.964  2.0830  0.2375  0.8422
13335TIP3    H261421   1.447   1.488  13.102 -2.3263 -1.3392  1.7681
13336TIP3   OH261422   3.976   6.161   0.597 -0.2066  0.2713 -0.4083
13336TIP3    H161423   3.968   6.198   0.685  0.0802 -0.3144 -0.1289
13336TIP3    H261424   3.991   6.237   0.541 -0.3080  0.6458  0.0611
13337TIP3   OH261425   4.754   2.144  14.864 -0.1097 -0.3451 -0.1285
13337TIP3    H161426   4.663   2.154  14.890 -0.5550 -0.2979 -1.6227
13337TIP3    H261427   4.754   2.155  14.769  1.4937 -0.0928 -0.1326
13338TIP3   OH261428   3.068   2.036   0.852 -0.0944  0.0284 -0.4878
13338TIP3    H161429   3.158   2.066   0.846  0.1173 -0.1704  1.1940
13338TIP3    H261430   3.036   2.072   0.935 -2.5888  2.7162 -2.3732
13339TIP3   OH261431   0.511   6.718  16.488  0.1173 -0.0382  0.4721
13339TIP3    H161432   0.546   6.662  16.419  2.9090  2.1713 -0.0834
13339TIP3    H261433   0.461   6.785  16.442  0.6207  0.5193  0.7300
13340TIP3   OH261434   2.444   2.535   3.819 -0.2285  0.1270 -0.1982
13340TIP3    H161435   2.439   2.440   3.824 -0.0936  0.1681  1.1802
13340TIP3    H261436   2.459   2.554   3.726  1.2196 -1.2542 -0.2760
13341TIP3   OH261437   3.826   0.385  11.830  0.3827  0.2347  0.0176
13341TIP3    H161438   3.839   0.300  11.788 -1.9606  0.6912 -1.8473
13341TIP3    H261439   3.830   0.366  11.924  0.4114 -1.8181 -0.3476
13342TIP3   OH261440   2.618   4.088  10.861 -0.0869  0.0607  0.4231
13342TIP3    H161441   2.556   4.161  10.866  0.1559  0.2197  1.2836
13342TIP3    H261442   2.587   4.024  10.925 -1.1891 -1.3323 -1.4155
13343TIP3   OH261443   0.253   3.860  12.146 -0.5266  0.7085  0.0317
13343TIP3    H161444   0.265   3.864  12.051 -0.8624 -3.5213 -0.3788
13343TIP3    H261445   0.342   3.865  12.182 -0.0397 -1.0416 -0.8260
13344TIP3   OH261446   0.753   6.705  11.547 -0.4303 -0.1270 -0.0265
13344TIP3    H161447   0.704   6.657  11.614 -0.6725 -1.2843 -1.0010
13344TIP3    H261448   0.822   6.750  11.596 -0.6116 -0.9252  1.0041
13345TIP3   OH261449   4.415   6.691  12.803 -0.0556 -0.2355 -0.5422
13345TIP3    H161450   4.460   6.617  12.762  1.7566  1.2250 -1.3679
13345TIP3    H261451   4.426   6.677  12.897  0.3052 -0.9748 -0.6872
13346TIP3   OH261452   5.363   5.569   4.724 -0.4023 -0.1021 -0.0831
13346TIP3    H161453   5.280   5.598   4.763 -0.3159 -0.3773  0.3171
13346TIP3    H261454   5.337   5.503   4.661 -0.6361  1.1148 -1.3086
13347TIP3   OH261455   2.746   5.329  14.567  0.1003 -0.0449 -0.1663
13347TIP3    H161456   2.776   5.338  14.657  0.2206 -1.8378  0.0149
13347TIP3    H261457   2.651   5.328  14.573  0.0680  1.1445 -0.2317
13348TIP3   OH261458   3.309   1.030   0.646 -0.1239  0.0066  0.3726
13348TIP3    H161459   3.319   1.125   0.654 -0.0101 -0.0289  0.6882
13348TIP3    H261460   3.245   1.018   0.576 -0.8124  0.3467  0.9225
13349TIP3   OH261461   0.329   4.916  15.943  0.5779 -0.2704  0.3501
13349TIP3    H161462   0.300   5.002  15.972 -0.8063 -0.1427 -1.2612
13349TIP3    H261463   0.401   4.934  15.881  0.5351 -0.2935  0.2933
13350TIP3   OH261464   4.331   0.482  12.260 -0.4903  0.2122 -0.1993
13350TIP3    H161465   4.390   0.530  12.318  2.0631 -1.8799 -0.8578
13350TIP3    H261466   4.266   0.444  12.318 -0.8440  2.0238  0.6604
13351TIP3   OH261467   2.290   2.077   1.721 -0.2521 -0.5346  0.0985
13351TIP3    H161468   2.370   2.043   1.762  0.9615 -0.8597 -2.3336
13351TIP3    H261469   2.313   2.085   1.628 -2.0883  2.2804 -0.2227
13352TIP3   OH261470   5.764   3.501  15.664 -0.0190 -0.2692  0.2132
13352TIP3    H161471   5.859   3.490  15.652  0.0816 -1.6597  1.8639
13352TIP3    H261472   5.743   3.445  15.739 -2.1384  0.1280 -0.0288
13353TIP3   OH261473   1.333   5.446  14.974  0.0039 -0.2732  0.5025
13353TIP3    H161474   1.378   5.494  15.043  1.0619  0.4184 -0.6201
13353TIP3    H261475   1.392   5.452  14.898 -1.1996 -0.8301 -0.5248
13354TIP3   OH261476   1.549   3.303   5.696  0.4058 -0.1561 -0.5097
13354TIP3    H161477   1.547   3.397   5.717  0.0334 -0.1708 -0.4835
13354TIP3    H261478   1.458   3.276   5.698  0.2991 -0.0843 -2.4967
13355TIP3   OH261479   0.108   2.986  16.730  0.0641 -0.0040 -0.0050
13355TIP3    H161480   0.044   2.920  16.705  1.6037 -0.2074 -4.2050
13355TIP3    H261481   0.192   2.940  16.734  0.6654  1.0778  0.7319
13356TIP3   OH261482   0.683   2.431   1.862 -0.1857 -0.4740 -0.1669
13356TIP3    H161483   0.669   2.426   1.957 -0.3751 -1.0443 -0.2159
13356TIP3    H261484   0.778   2.441   1.852 -0.1915 -0.1628  0.0878
13357TIP3   OH261485   2.389   1.707   4.794  0.3403  0.7233 -0.4550
13357TIP3    H161486   2.416   1.657   4.871  1.7752  1.2449 -0.5994
13357TIP3    H261487   2.470   1.741   4.757 -0.2649 -0.0469 -2.6033
13358TIP3   OH261488   1.892   3.942  16.845  0.5791  0.2747  0.0002
13358TIP3    H161489   1.837   3.866  16.824  0.4997  0.6872 -1.4500
13358TIP3    H261490   1.946   3.914  16.918  1.0322 -1.4222 -0.9428
13359TIP3   OH261491   1.577   6.273  13.685 -0.0140 -0.2736  0.4984
13359TIP3    H161492   1.582   6.222  13.604 -0.1814  0.1486  0.2230
13359TIP3    H261493   1.668   6.293  13.706  0.0779 -0.9377  0.7743
13360TIP3   OH261494   1.740   4.382  16.527  0.1573 -0.1730  0.3475
13360TIP3    H161495   1.669   4.439  16.556  0.2314  0.1689 -0.1436
13360TIP3    H261496   1.750   4.319  16.599  0.3671  0.6888  1.0899
13361TIP3   OH261497   2.965   3.071   5.875 -0.4336  0.0729  0.1754
13361TIP3    H161498   3.000   3.160   5.880 -0.2857 -0.0329  1.3268
13361TIP3    H261499   2.897   3.069   5.942 -1.2231 -0.3544 -0.6124
13362TIP3   OH261500   0.512   4.410   6.124 -0.0724  0.1744 -0.2832
13362TIP3    H161501   0.501   4.315   6.121 -2.1287  0.3368  0.6563
13362TIP3    H261502   0.534   4.429   6.215  0.9513  0.5783 -0.5956
13363TIP3   OH261503   6.563   4.789  15.192  0.1167  0.4223 -0.0170
13363TIP3    H161504   6.595   4.830  15.272  0.4293 -1.8099  1.0619
13363TIP3    H261505   6.637   4.791  15.132 -0.3084  2.6941 -0.5771
13364TIP3   OH261506   2.414   6.032  15.173 -0.3777 -0.7014  0.5727
13364TIP3    H161507   2.414   6.105  15.111  0.8281  0.5032  1.8996
13364TIP3    H261508   2.383   6.070  15.255  0.4141 -1.6241  1.3308
13365TIP3   OH261509   0.805   3.898  13.168 -0.2236 -0.1628 -0.0936
13365TIP3    H161510   0.796   3.955  13.092  1.6050  0.1852 -0.0805
13365TIP3    H261511   0.883   3.846  13.151  0.9517  0.7740  2.0727
13366TIP3   OH261512   5.133   2.791   1.062 -0.2713  0.1438  0.1124
13366TIP3    H161513   5.125   2.710   1.113 -0.9148 -0.5280 -1.0262
13366TIP3    H261514   5.082   2.855   1.112 -0.0217 -0.2211  0.8569
13367TIP3   OH261515   4.829   1.180  15.198  0.1716  0.2036  0.2237
13367TIP3    H161516   4.770   1.255  15.190 -0.1320 -0.1401 -1.0045
13367TIP3    H261517   4.772   1.104  15.182  0.8599 -0.1552 -0.5917
13368TIP3   OH261518   4.560   3.286  11.346 -0.1375 -0.2110 -0.8026
13368TIP3    H161519   4.649   3.271  11.317 -0.5796  0.2644 -2.5524
13368TIP3    H261520   4.531   3.362  11.295 -1.2280  0.2307  0.4234
13369TIP3   OH261521   0.006   0.399   4.049 -0.1216 -0.6934 -0.2858
13369TIP3    H161522   0.006   0.449   3.967  0.0911  1.1800  0.7967
13369TIP3    H261523  -0.087   0.390   4.071 -0.2117 -1.7843 -1.0407
13370TIP3   OH261524   1.432   3.978  12.813 -0.4098 -0.3243  0.3210
13370TIP3    H161525   1.512   3.990  12.864 -1.2495  0.0724  1.5898
13370TIP3    H261526   1.371   4.044  12.847 -0.8638  0.2917 -1.5368
13371TIP3   OH261527   1.921   6.009  16.711 -0.0178  0.0792  0.2174
13371TIP3    H161528   1.829   6.026  16.689  0.7880  2.6773 -1.7290
13371TIP3    H261529   1.965   6.001  16.626  1.5707 -1.1574  1.1089
13372TIP3   OH261530   1.211   3.594   3.480  0.1691  0.0523  0.1526
13372TIP3    H161531   1.180   3.684   3.487  1.5395  0.4374  1.8648
13372TIP3    H261532   1.220   3.579   3.386  1.5282  2.2831 -0.1470
13373TIP3   OH261533   1.098   3.956   3.754 -0.1330  0.2931 -0.0074
13373TIP3    H161534   1.036   3.894   3.714  1.4884 -2.1291  0.9883
13373TIP3    H261535   1.134   4.005   3.680 -0.1426 -1.2451 -1.0798
13374TIP3   OH261536   1.432   5.160  13.986  0.6061 -0.0555  0.0385
13374TIP3    H161537   1.368   5.157  14.056  0.0135  2.5271 -0.2928
13374TIP3    H261538   1.485   5.081  13.998 -2.0869 -1.8786  0.8021
13375TIP3   OH261539   0.500   6.455   5.637 -0.5056  0.0571  0.1661
13375TIP3    H161540   0.422   6.510   5.631 -2.2631 -2.2892  0.1199
13375TIP3    H261541   0.493   6.412   5.722  1.8597  1.2614  1.0690
13376TIP3   OH261542   5.413   0.343  14.201  1.2807 -0.5026 -0.1392
13376TIP3    H161543   5.448   0.268  14.249  1.2942 -0.9595 -0.8645
13376TIP3    H261544   5.378   0.307  14.120 -0.4985  0.0101  0.3672
13377TIP3   OH261545   6.200   4.384  14.631  0.8508  0.3405 -0.0486
13377TIP3    H161546   6.107   4.377  14.612  0.4196  0.0689  1.9234
13377TIP3    H261547   6.241   4.317  14.575 -0.3934 -1.0037  0.5784
13378TIP3   OH261548   2.584   4.644  16.329  0.1937  0.8184 -0.1646
13378TIP3    H161549   2.662   4.699  16.341  1.1973 -0.2762 -1.2688
13378TIP3    H261550   2.596   4.572  16.391  0.6581  0.0546 -1.1205
13379TIP3   OH261551   2.827   5.138   3.647 -0.2514  0.2445 -0.7670
13379TIP3    H161552   2.848   5.049   3.617  0.6933 -1.0463  3.1499
13379TIP3    H261553   2.912   5.179   3.661 -0.6841  1.8744 -2.4564
13380TIP3   OH261554   0.744   5.206  13.202  0.3175 -0.3324 -0.1469
13380TIP3    H161555   0.806   5.241  13.138  0.3627  1.3231  0.7520
13380TIP3    H261556   0.798   5.179  13.275  0.0422  0.9659  0.5736
13381TIP3   OH261557   2.354   3.612   0.086  0.9342  0.3906  0.3776
13381TIP3    H161558   2.416   3.539   0.075 -0.7093 -0.8187 -1.4564
13381TIP3    H261559   2.314   3.622  -0.000  0.3571  2.8199  0.8705
13382TIP3   OH261560   3.329   4.378  15.518 -0.6344 -0.3050 -0.2461
13382TIP3    H161561   3.390   4.441  15.479 -1.0037 -0.6790 -1.4612
13382TIP3    H261562   3.244   4.399  15.479 -0.7757 -1.5121 -0.6404
13383TIP3   OH261563   2.626   2.534  12.258  0.0807  0.2637  0.0529
13383TIP3    H161564   2.534   2.531  12.285 -0.4221  1.2680 -1.4241
13383TIP3    H261565   2.670   2.583  12.327 -0.6723  0.5741  0.3148
13384TIP3   OH261566   5.589   0.956   1.084 -0.4765  0.2064 -0.3514
13384TIP3    H161567   5.603   0.889   1.151 -0.3117  0.5198 -0.0701
13384TIP3    H261568   5.506   0.997   1.108 -0.5984  0.0755 -0.5478
13385TIP3   OH261569   6.348   0.651   6.148 -0.0950  0.5047  0.6363
13385TIP3    H161570   6.422   0.681   6.095  1.8906 -1.0879  2.3098
13385TIP3    H261571   6.362   0.690   6.234 -0.7392 -0.4599  1.2019
13386TIP3   OH261572   1.518   3.640  13.620 -0.2879 -0.0806  0.4501
13386TIP3    H161573   1.565   3.722  13.639  0.0522  0.2334 -1.5568
13386TIP3    H261574   1.501   3.602  13.707 -1.7112  2.7901  1.5453
13387TIP3   OH261575   5.274   0.833  15.248  0.1371 -0.0116 -0.6275
13387TIP3    H161576   5.279   0.928  15.235 -0.8966  0.0045 -1.0150
13387TIP3    H261577   5.309   0.796  15.167  1.5641  0.0117 -0.0506
13388TIP3   OH261578   2.085   4.617   1.431 -0.9524  0.3518 -0.4520
13388TIP3    H161579   2.045   4.538   1.469 -1.0969  0.4234 -0.4568
13388TIP3    H261580   2.071   4.685   1.496  0.5429  0.0181  0.2501
13389TIP3   OH261581   2.699   5.148  15.017  0.0609 -0.2911  0.3175
13389TIP3    H161582   2.740   5.190  15.093 -0.6294 -1.1403  1.1852
13389TIP3    H261583   2.610   5.127  15.047 -0.8999  1.0837 -1.3579
13390TIP3   OH261584   4.860   3.517  11.537 -0.7224  0.1392  0.0672
13390TIP3    H161585   4.847   3.561  11.622 -0.2312  1.4986 -0.5234
13390TIP3    H261586   4.837   3.584  11.473 -1.6685 -1.0698 -0.8870
13391TIP3   OH261587   5.920   4.001   1.564  0.0613  0.1365 -0.0991
13391TIP3    H161588   5.883   3.914   1.576  0.4006 -0.0737 -0.5529
13391TIP3    H261589   5.967   4.019   1.645  0.2966 -0.2529 -0.1489
13392TIP3   OH261590   2.056   1.039   1.491  0.0428  0.2424 -0.3968
13392TIP3    H161591   2.020   0.986   1.420 -0.8872  0.1555  0.1121
13392TIP3    H261592   1.995   1.025   1.564  0.2795  1.3178  0.0237
13393TIP3   OH261593   1.902   1.799  13.330 -0.0560 -0.1117 -0.2437
13393TIP3    H161594   1.862   1.749  13.259  1.2780 -0.4598 -0.7774
13393TIP3    H261595   1.871   1.889  13.316 -2.1872 -0.6622  0.5203
13394TIP3   OH261596   1.854   4.364  13.669  0.6584 -0.2325  0.2040
13394TIP3    H161597   1.872   4.452  13.702 -0.5753 -0.0254  0.3770
13394TIP3    H261598   1.884   4.366  13.578  0.4268  0.4461  0.1374
13395TIP3   OH261599   5.235   3.426  16.672  0.2642 -0.0342  0.5899
13395TIP3    H161600   5.294   3.375  16.617  1.3288  1.0049  0.7247
13395TIP3    H261601   5.184   3.361  16.719  1.3745 -0.9763  0.5390
13396TIP3   OH261602   6.030   5.112   3.682  0.6481 -0.3938  0.0319
13396TIP3    H161603   5.941   5.148   3.676  0.5115 -0.4828  1.2306
13396TIP3    H261604   6.017   5.020   3.705  1.0544 -0.3239  0.5479
13397TIP3   OH261605   4.921   3.662  13.299  0.8121 -0.5751  0.3995
13397TIP3    H161606   4.862   3.652  13.374  1.9952 -1.9854  1.1968
13397TIP3    H261607   4.909   3.753  13.272 -0.2981 -0.2750  1.7410
13398TIP3   OH261608   4.426   2.261   4.555  0.3872 -0.4825 -0.0957
13398TIP3    H161609   4.496   2.214   4.600 -0.7545 -2.0752  0.0763
13398TIP3    H261610   4.425   2.348   4.597  0.7144 -1.2200  1.5199
13399TIP3   OH261611   6.647   4.766   2.183 -0.1066  0.8211 -0.3177
13399TIP3    H161612   6.742   4.776   2.185  0.0237  0.0943 -1.6404
13399TIP3    H261613   6.626   4.725   2.267  0.8793  0.0465 -0.4183
13400TIP3   OH261614   6.605   4.316  12.634 -0.3427 -0.0604 -0.2181
13400TIP3    H161615   6.601   4.236  12.687 -0.8964 -1.2429 -1.9697
13400TIP3    H261616   6.698   4.326  12.613 -0.5233 -1.6581 -1.9890
13401TIP3   OH261617   0.587   5.841  12.401 -0.2037 -0.3082 -0.8163
13401TIP3    H161618   0.519   5.867  12.340  0.2595 -1.8455 -2.0633
13401TIP3    H261619   0.593   5.746  12.392 -0.9630 -0.8117  2.5719
13402TIP3   OH261620   4.383   3.222   3.362  0.0217  0.1412  0.4864
13402TIP3    H161621   4.326   3.150   3.392 -1.7334  0.7007 -1.3096
13402TIP3    H261622   4.381   3.285   3.434  0.9392 -1.1782  1.7511
13403TIP3   OH261623   0.023   3.117   5.192  0.3315  0.6598 -0.2286
13403TIP3    H161624   0.047   3.174   5.119  1.1660 -0.1488 -0.6035
13403TIP3    H261625   0.064   3.033   5.172  0.2575  0.3100  0.9798
13404TIP3   OH261626   0.404   4.648   1.158  0.3924  0.1768 -0.1296
13404TIP3    H161627   0.360   4.687   1.082  1.2295  1.3380 -0.0579
13404TIP3    H261628   0.393   4.712   1.228  3.2094  1.1775 -0.4487
13405TIP3   OH261629   5.953   5.163   3.147  0.2726  0.8833 -0.3076
13405TIP3    H161630   5.988   5.127   3.229  1.6564 -0.7878 -1.5677
13405TIP3    H261631   5.980   5.255   3.147 -1.1246  1.3715  1.8047
13406TIP3   OH261632   2.514   5.388  15.497  0.2948  0.0815 -0.3505
13406TIP3    H161633   2.595   5.437  15.478  1.2994 -0.5461  1.9539
13406TIP3    H261634   2.529   5.301  15.459  1.3180 -0.4506  1.1770
13407TIP3   OH261635   3.991   3.552   5.783  0.0427 -0.1467  0.1872
13407TIP3    H161636   4.027   3.484   5.726 -0.0684 -0.5979  0.6466
13407TIP3    H261637   4.054   3.558   5.855 -1.6168 -2.2117  1.9508
13408TIP3   OH261638   5.079   3.625  12.808 -0.1583 -0.7560  0.7516
13408TIP3    H161639   4.994   3.669  12.802 -0.7712 -2.0684 -1.0723
13408TIP3    H261640   5.089   3.607  12.902 -2.5425 -1.7071  0.9158
13409TIP3   OH261641   3.459   5.718   3.393  0.2399 -0.2137 -0.0313
13409TIP3    H161642   3.431   5.761   3.313  1.2551  0.3313 -0.1163
13409TIP3    H261643   3.421   5.770   3.463 -0.2159 -0.3836 -0.1490
13410TIP3   OH261644   5.244   0.206   5.580 -0.3461  0.0332  0.5326
13410TIP3    H161645   5.178   0.140   5.557  1.3979 -1.5105 -0.3226
13410TIP3    H261646   5.328   0.163   5.560  0.9880  1.3991  2.8519
13411TIP3   OH261647   0.144   0.166  15.082 -0.1660 -0.3934  0.1051
13411TIP3    H161648   0.075   0.211  15.033  0.1217 -0.8899 -0.7728
13411TIP3    H261649   0.176   0.099  15.022  1.1056 -0.1482  0.4953
13412TIP3   OH261650   0.132   5.291   5.781  0.1702 -0.0014  1.1091
13412TIP3    H161651   0.197   5.247   5.836  2.4656  2.0804  0.2704
13412TIP3    H261652   0.058   5.308   5.839  0.6251 -1.8208  2.3014
13413TIP3   OH261653   0.492   3.792  12.273  0.1235 -0.0299  0.5601
13413TIP3    H161654   0.518   3.860  12.336  2.1058 -0.5517  0.3580
13413TIP3    H261655   0.499   3.710  12.321 -0.9365 -0.2393  0.3949
13414TIP3   OH261656   2.687   2.998  16.413  0.2902 -0.3773 -0.3728
13414TIP3    H161657   2.676   3.092  16.428 -2.4163 -0.6205 -0.3300
13414TIP3    H261658   2.780   2.987  16.397  0.6841  2.3089 -0.3657
13415TIP3   OH261659   2.045   0.346   0.872 -0.5330 -0.2732 -0.6269
13415TIP3    H161660   2.043   0.303   0.786  0.8780  0.5093 -1.0730
13415TIP3    H261661   2.092   0.428   0.857  0.3557 -0.4373  1.0450
13416TIP3   OH261662   3.770   2.810  12.966  0.2590 -0.2251  0.6248
13416TIP3    H161663   3.821   2.826  13.046  0.4881 -1.5503  0.7633
13416TIP3    H261664   3.836   2.804  12.897  0.0631  0.8951  0.3160
13417TIP3   OH261665   2.672   5.518   1.218 -0.1906 -0.0229 -0.1596
13417TIP3    H161666   2.688   5.603   1.258  0.1125 -0.2057  0.1098
13417TIP3    H261667   2.695   5.530   1.126  0.2579  0.0736 -0.0379
13418TIP3   OH261668   3.674   2.794  14.615  0.0463 -0.0433 -0.8261
13418TIP3    H161669   3.740   2.777  14.683 -1.2316  0.1540  0.5369
13418TIP3    H261670   3.721   2.843  14.547  1.4779 -0.6010 -0.2892
13419TIP3   OH261671   5.878   3.930   0.866 -0.5279 -0.4865 -0.2026
13419TIP3    H161672   5.917   3.857   0.916 -0.4792 -0.6398 -0.4633
13419TIP3    H261673   5.837   3.985   0.933 -1.5362 -1.3336 -0.0971
13420TIP3   OH261674   5.667   0.701   3.401 -0.5804  0.0403 -0.3300
13420TIP3    H161675   5.573   0.700   3.420 -0.2567  0.5208  1.4312
13420TIP3    H261676   5.695   0.790   3.422  0.6997 -0.7495  1.5648
13421TIP3   OH261677   2.402   0.338  14.909 -0.2174  0.0971  0.3997
13421TIP3    H161678   2.392   0.243  14.916 -1.4199  0.3415  3.1598
13421TIP3    H261679   2.317   0.374  14.935  0.4890  1.9556  0.3200
13422TIP3   OH261680   1.425   0.293   1.712 -0.1014 -0.3619  0.2116
13422TIP3    H161681   1.355   0.299   1.646  0.4692  3.1621 -0.2836
13422TIP3    H261682   1.380   0.273   1.794 -1.4767  0.1215 -0.4046
13423TIP3   OH261683   1.763   2.341  15.762 -0.0323  0.2947 -0.0937
13423TIP3    H161684   1.812   2.419  15.789  0.1526 -0.5995  2.5033
13423TIP3    H261685   1.713   2.317  15.840 -0.8555 -1.6065 -1.1537
13424TIP3   OH261686   6.742   3.193  14.518 -0.2927  0.1551 -0.5334
13424TIP3    H161687   6.825   3.148  14.500 -1.0195 -1.7669  0.6665
13424TIP3    H261688   6.685   3.125  14.555 -1.2125  2.1961  2.0884
13425TIP3   OH261689   4.909   5.878  11.779 -0.5173 -0.1788  0.1644
13425TIP3    H161690   4.966   5.863  11.854  2.0196  2.4255 -1.0581
13425TIP3    H261691   4.869   5.963  11.796  0.8807  0.9442 -1.7834
13426TIP3   OH261692   5.063   6.379   0.438 -0.4498  0.3982 -0.1353
13426TIP3    H161693   5.082   6.285   0.443  0.0258  0.4917 -0.0865
13426TIP3    H261694   5.144   6.421   0.468 -0.7079  0.8223 -0.0210
13427TIP3   OH261695   4.147   4.703  15.842 -0.0182  0.1204  0.1077
13427TIP3    H161696   4.160   4.609  15.840 -1.1654 -0.0440 -0.0178
13427TIP3    H261697   4.136   4.723  15.935  1.0183  0.2618  0.2162
13428TIP3   OH261698   3.994   4.675   5.155  0.7621  0.5860  0.7276
13428TIP3    H161699   3.988   4.740   5.085 -0.7211 -0.1389  0.1437
13428TIP3    H261700   4.046   4.604   5.118 -0.3220  0.0448  0.2048
13429TIP3   OH261701   6.446   6.713   1.201  0.0744 -0.0650 -0.0430
13429TIP3    H161702   6.538   6.719   1.176  0.0699  1.6742  0.2228
13429TIP3    H261703   6.423   6.802   1.228 -0.9138 -1.0169  2.5659
13430TIP3   OH261704   2.050   3.942   4.710  0.8742 -0.1454 -0.5806
13430TIP3    H161705   2.133   3.965   4.670  0.5627  0.8327 -0.7008
13430TIP3    H261706   2.059   3.970   4.801  1.1987 -1.4003 -0.2009
13431TIP3   OH261707   5.149   4.204  12.310  0.0813  0.4478 -0.3620
13431TIP3    H161708   5.242   4.202  12.334  0.0880  0.7436 -0.3540
13431TIP3    H261709   5.142   4.145  12.235  0.0518 -0.5253  0.3895
13432TIP3   OH261710   0.074   1.828  16.748 -0.0280 -0.0100 -0.0982
13432TIP3    H161711   0.009   1.815  16.679 -2.4303  1.4097  1.7654
13432TIP3    H261712   0.067   1.750  16.803 -0.4744  0.3158  0.3188
13433TIP3   OH261713   5.950   6.462   3.573 -0.1975 -0.4273  0.0898
13433TIP3    H161714   5.930   6.493   3.485  2.8770 -0.0953 -0.5885
13433TIP3    H261715   5.923   6.534   3.630 -1.7404 -0.4358 -0.5676
13434TIP3   OH261716   2.530   1.049  11.444  0.0829 -0.1274  0.0138
13434TIP3    H161717   2.440   1.020  11.454 -0.3529  1.4102  0.7929
13434TIP3    H261718   2.539   1.068  11.350 -0.9205  1.3006  0.1916
13435TIP3   OH261719   2.054   5.916  17.077 -0.0875  0.1574  0.3130
13435TIP3    H161720   2.088   5.984  17.135 -0.3685  1.8523 -1.4019
13435TIP3    H261721   1.959   5.929  17.077 -0.0853  0.2036 -0.5467
13436TIP3   OH261722   2.577   3.300  11.260 -0.2782  0.4352  0.3479
13436TIP3    H161723   2.565   3.393  11.240  0.0052  0.6439  1.0920
13436TIP3    H261724   2.489   3.263  11.259 -0.1819  0.0360 -2.9420
13437TIP3   OH261725   2.557   0.378   3.733  0.1303 -0.4443 -0.2947
13437TIP3    H161726   2.610   0.394   3.654  0.7483 -2.0151 -0.2236
13437TIP3    H261727   2.468   0.365   3.699  0.2528 -0.3458 -0.6618
13438TIP3   OH261728   5.923   2.824   5.650  0.5962  0.4717 -0.3394
13438TIP3    H161729   5.897   2.790   5.736  1.0739  1.9445  0.4273
13438TIP3    H261730   6.006   2.870   5.666  0.5777  0.9623 -1.5368
13439TIP3   OH261731   6.541   2.217   0.558  0.1879 -0.1632  1.1251
13439TIP3    H161732   6.537   2.306   0.593 -1.4644  0.4098 -0.3498
13439TIP3    H261733   6.551   2.229   0.464 -2.5903 -1.4042  0.5602
13440TIP3   OH261734   0.779   3.721  15.889 -0.2058 -0.3870  0.0518
13440TIP3    H161735   0.810   3.811  15.888 -1.1199 -0.0575  0.5670
13440TIP3    H261736   0.824   3.680  15.815  0.1445  0.5116 -0.2497
13441TIP3   OH261737   2.327   2.224  14.730 -1.0967  0.0156 -1.0383
13441TIP3    H161738   2.320   2.320  14.731 -1.1026  0.0134 -0.2987
13441TIP3    H261739   2.246   2.195  14.687 -1.1675  0.3375 -1.1231
13442TIP3   OH261740   3.716   6.738   3.230 -0.1102 -0.0293 -0.1941
13442TIP3    H161741   3.682   6.667   3.284  0.0889  0.5984  0.7737
13442TIP3    H261742   3.684   6.818   3.271 -0.3573  0.4568 -1.2874
13443TIP3   OH261743   2.922   1.939  13.580 -0.6455  0.1696 -0.0654
13443TIP3    H161744   2.951   1.935  13.671 -0.0195  1.6468 -0.1774
13443TIP3    H261745   2.865   2.016  13.577 -0.8625 -0.0161 -0.8689
13444TIP3   OH261746   1.784   2.953  17.370 -0.1016 -0.1438 -0.2596
13444TIP3    H161747   1.713   2.957  17.434  0.1904  1.3253 -0.0057
13444TIP3    H261748   1.859   2.991  17.415  0.0828  1.0285 -1.4945
13445TIP3   OH261749   6.721   5.224  14.828  0.4819 -0.2134 -0.2589
13445TIP3    H161750   6.751   5.314  14.842 -0.9642  0.3157 -0.3722
13445TIP3    H261751   6.712   5.188  14.916 -2.3842  0.9812  0.0391
13446TIP3   OH261752   1.898   5.249  17.014 -0.7840 -0.0138  0.2468
13446TIP3    H161753   1.972   5.218  17.066 -0.7057 -2.6472 -1.2605
13446TIP3    H261754   1.934   5.262  16.926 -1.9648 -0.8538 -0.3886
13447TIP3   OH261755   2.303   4.124  14.114 -0.1007 -0.0775 -0.1656
13447TIP3    H161756   2.296   4.197  14.175 -0.5333  1.6076 -2.1110
13447TIP3    H261757   2.222   4.125  14.064  0.3076 -1.2554 -0.9161
13448TIP3   OH261758   5.034   0.272  13.824  0.0333  0.5933 -0.1864
13448TIP3    H161759   5.022   0.212  13.752 -0.3822 -0.7421  0.9547
13448TIP3    H261760   4.946   0.287  13.859 -0.0333  2.7941 -1.1269
13449TIP3   OH261761   2.678   5.100   0.063 -0.3668 -0.3940  0.0242
13449TIP3    H161762   2.584   5.112   0.051 -0.2802  2.4460  1.3989
13449TIP3    H261763   2.718   5.142  -0.013 -0.1394 -2.0470 -0.8253
13450TIP3   OH261764   5.862   4.457   5.026  0.2380  0.0587 -0.4311
13450TIP3    H161765   5.862   4.549   5.000  0.3034  0.0746 -0.3735
13450TIP3    H261766   5.777   4.445   5.069  0.3214  0.1460 -0.2433
13451TIP3   OH261767   4.842   3.357  13.486  0.3311 -0.0698 -1.2771
13451TIP3    H161768   4.827   3.265  13.507  0.7809  0.1156 -0.0681
13451TIP3    H261769   4.836   3.361  13.390  0.1123 -1.3146 -1.3314
13452TIP3   OH261770   0.235   0.951  13.835  0.2240  1.0633 -0.5634
13452TIP3    H161771   0.203   1.032  13.874 -1.3560 -0.6598  2.0083
13452TIP3    H261772   0.173   0.932  13.765 -0.8355  0.9084  0.3894
13453TIP3   OH261773   0.950   2.043  13.988 -0.0450 -0.3974  0.1713
13453TIP3    H161774   0.949   2.102  13.912  2.1117  0.3163  0.6410
13453TIP3    H261775   0.995   1.964  13.957  2.1979  0.4688  1.0291
13454TIP3   OH261776   0.836   2.575  13.457 -0.0951 -0.0387 -0.0664
13454TIP3    H161777   0.854   2.570  13.551 -0.1194 -0.1100 -0.0654
13454TIP3    H261778   0.909   2.530  13.416  0.4835  0.9431 -0.1417
13455TIP3   OH261779   0.516   1.798   5.482 -0.2771 -0.3221 -0.0294
13455TIP3    H161780   0.447   1.801   5.548  0.7071  1.1277  0.9897
13455TIP3    H261781   0.479   1.843   5.407 -0.6835 -0.1577  0.2625
13456TIP3   OH261782   1.065   6.607  12.673  0.5403  0.7112  0.7722
13456TIP3    H161783   1.073   6.696  12.706  0.8545  1.0041 -0.0741
13456TIP3    H261784   1.092   6.612  12.582 -0.5866 -0.0352  0.3790
13457TIP3   OH261785   3.166   0.369   4.854  0.5547  0.0279  0.1215
13457TIP3    H161786   3.157   0.275   4.868 -0.4423  0.1556  0.4218
13457TIP3    H261787   3.085   0.406   4.888  1.7532  1.1929  1.8847
13458TIP3   OH261788   5.858   3.849   6.028 -0.2190 -0.3426 -0.3519
13458TIP3    H161789   5.925   3.812   6.086 -0.7683 -1.8186 -0.5918
13458TIP3    H261790   5.789   3.782   6.028 -0.9137  0.3570 -1.4702
13459TIP3   OH261791   4.731   3.611  13.499  0.2181 -0.2237 -0.0002
13459TIP3    H161792   4.637   3.599  13.509  0.2592  0.1453  0.9432
13459TIP3    H261793   4.767   3.523  13.495 -0.2379 -0.3778 -1.2874
13460TIP3   OH261794   5.769   0.055   4.026 -0.1156  0.0486 -0.4774
13460TIP3    H161795   5.829   0.005   4.082  1.0107 -0.6172 -2.1982
13460TIP3    H261796   5.824   0.123   3.987 -0.3856 -0.6768 -2.2129
13461TIP3   OH261797   2.801   4.289  12.505 -0.5843 -0.8398  0.0721
13461TIP3    H161798   2.877   4.231  12.506  0.1720  0.1322  1.2087
13461TIP3    H261799   2.837   4.377  12.509 -1.6965 -0.1942 -2.4133
13462TIP3   OH261800   3.406   0.186  12.263  0.7898  0.2083  0.2218
13462TIP3    H161801   3.493   0.161  12.295  0.5688  1.1271  1.5881
13462TIP3    H261802   3.365   0.231  12.337 -1.5735 -1.8342  0.2770
13463TIP3   OH261803   2.647   6.166   0.420  0.3120  0.6931  0.1978
13463TIP3    H161804   2.707   6.177   0.346  2.1451  1.0435  1.6509
13463TIP3    H261805   2.678   6.228   0.485  1.0022 -1.9804  2.6141
13464TIP3   OH261806   1.057   2.286  14.691 -0.5114  0.0372 -0.1325
13464TIP3    H161807   1.121   2.357  14.692 -0.7303  0.2616 -1.3598
13464TIP3    H261808   1.109   2.207  14.682 -0.4197  0.2867 -2.1792
13465TIP3   OH261809   6.606   0.857   2.780 -0.6486 -0.0002  0.1151
13465TIP3    H161810   6.579   0.824   2.866  0.7772 -3.1200 -0.5073
13465TIP3    H261811   6.701   0.845   2.778 -0.3013  2.3012 -1.0575
13466TIP3   OH261812   2.592   0.476  13.740  0.0508 -0.2144  0.1296
13466TIP3    H161813   2.578   0.388  13.704  2.9670 -1.2672  1.2597
13466TIP3    H261814   2.621   0.527  13.665  0.5470 -0.8414 -0.1185
13467TIP3   OH261815   0.542   1.364   3.596 -0.0239  0.5048  0.1635
13467TIP3    H161816   0.634   1.385   3.613 -0.2343 -0.5476  3.0284
13467TIP3    H261817   0.495   1.442   3.625 -0.0636  1.7695 -2.9097
13468TIP3   OH261818   4.723   2.580  17.090  0.5065 -0.4753  0.1249
13468TIP3    H161819   4.797   2.547  17.140 -0.1073  0.6586  1.8514
13468TIP3    H261820   4.648   2.568  17.148 -0.1928  1.1660 -0.3969
13469TIP3   OH261821   2.615   0.433  11.233 -0.0482 -0.5340  0.5003
13469TIP3    H161822   2.677   0.429  11.161 -1.2378 -0.0495 -0.5778
13469TIP3    H261823   2.584   0.342  11.242  0.7819 -0.7769  1.0407
13470TIP3   OH261824   5.806   6.136  17.056 -0.4712  0.4010  0.1867
13470TIP3    H161825   5.780   6.216  17.010  1.8647  0.6308 -0.8369
13470TIP3    H261826   5.900   6.130  17.043 -0.7394 -3.5290 -1.4418
13471TIP3   OH261827   5.383   5.666  15.048  0.0161 -0.0948 -0.5935
13471TIP3    H161828   5.324   5.637  14.979  0.6065  0.9269 -1.5536
13471TIP3    H261829   5.410   5.586  15.092 -1.3810 -0.6527 -0.7064
13472TIP3   OH261830   4.014   6.604   2.585 -0.2724  0.5880  0.2358
13472TIP3    H161831   4.054   6.683   2.622 -0.8046 -0.0014  2.1747
13472TIP3    H261832   3.955   6.573   2.654 -0.6160 -1.1092 -0.7750
13473TIP3   OH261833   0.236   1.045   1.640 -0.4866 -0.0596  0.5100
13473TIP3    H161834   0.163   0.984   1.645 -0.5715  0.0757  0.9330
13473TIP3    H261835   0.264   1.057   1.731  0.6909 -0.8724  0.2788
13474TIP3   OH261836   3.307   2.149  17.022  0.2260  0.1602 -0.3802
13474TIP3    H161837   3.341   2.238  17.022 -0.1056  0.2897 -0.1384
13474TIP3    H261838   3.383   2.093  17.034  0.3436  0.4475  0.1989
13475TIP3   OH261839   3.179   5.859   5.684  0.4695  0.3442  0.3308
13475TIP3    H161840   3.110   5.796   5.662  1.4204 -0.7249  0.2757
13475TIP3    H261841   3.185   5.856   5.780 -1.6767  2.8188  0.6507
13476TIP3   OH261842   4.855   2.691  14.103  0.4027  0.7945  0.0464
13476TIP3    H161843   4.895   2.778  14.107  2.0041  0.1579 -1.2560
13476TIP3    H261844   4.865   2.664  14.012  0.9834 -1.2326  0.6697
13477TIP3   OH261845   3.914   1.622  16.745 -0.3014 -0.3011 -0.0773
13477TIP3    H161846   3.841   1.564  16.768 -0.0626 -0.5868 -0.0453
13477TIP3    H261847   3.892   1.654  16.657 -2.0322  2.0530  1.0843
13478TIP3   OH261848   4.632   4.582  10.339 -0.0848 -0.0461  0.3386
13478TIP3    H161849   4.626   4.498  10.386 -0.3416 -0.2428 -0.0351
13478TIP3    H261850   4.542   4.617  10.342 -0.5528 -0.9316 -1.5627
13479TIP3   OH261851   4.386   3.822  10.491  0.2791 -0.0273  0.1407
13479TIP3    H161852   4.303   3.844  10.532 -0.7087 -0.6515 -1.4352
13479TIP3    H261853   4.399   3.729  10.511 -0.5367 -0.5084 -1.4350
13480TIP3   OH261854   2.089   5.938  11.090 -0.1649 -0.0189  0.0052
13480TIP3    H161855   2.088   5.853  11.047  2.9187 -1.1863  1.9680
13480TIP3    H261856   2.049   5.922  11.176  4.3087 -0.8202  2.2139
13481TIP3   OH261857   2.932   0.354   2.786 -0.2406  0.4975  0.0996
13481TIP3    H161858   2.999   0.354   2.854  0.1568 -0.2834 -0.2854
13481TIP3    H261859   2.940   0.440   2.744 -0.3659  0.9110  0.9112
13482TIP3   OH261860   2.581   5.644   2.056  1.1842  0.8274  0.1947
13482TIP3    H161861   2.627   5.564   2.084  0.4453  0.4130  0.2497
13482TIP3    H261862   2.560   5.628   1.964 -0.1932  0.3595  0.5737
13483TIP3   OH261863   3.974   6.569  15.376  0.7725  0.7023 -0.5693
13483TIP3    H161864   4.068   6.585  15.367  0.8273  0.5355 -0.2976
13483TIP3    H261865   3.956   6.581  15.469  0.7611 -0.4575 -0.4037
13484TIP3   OH261866   5.142   1.329   5.908 -0.6772 -0.1000  0.3976
13484TIP3    H161867   5.194   1.298   5.983  0.1698 -2.2139 -0.9731
13484TIP3    H261868   5.172   1.275   5.835 -1.9358  1.4671 -1.3484
13485TIP3   OH261869   5.792   2.487   3.481 -0.3803  0.3724 -0.2510
13485TIP3    H161870   5.715   2.461   3.530 -0.1035 -0.4154 -0.2189
13485TIP3    H261871   5.797   2.582   3.492 -0.2600  0.2071  1.3249
13486TIP3   OH261872   2.064   3.106   5.473 -0.4949  0.3906 -0.2854
13486TIP3    H161873   1.975   3.071   5.485 -0.2879  0.1270  0.5086
13486TIP3    H261874   2.122   3.037   5.504  0.0291  0.2739 -1.4628
13487TIP3   OH261875   5.921   6.273   5.653 -0.0045  0.2268 -0.1562
13487TIP3    H161876   5.928   6.263   5.558 -0.5413  1.5242 -0.3512
13487TIP3    H261877   5.831   6.301   5.668 -0.3336 -1.2941  0.8763
13488TIP3   OH261878   1.742   1.702  13.542  0.1052  0.4105 -0.2854
13488TIP3    H161879   1.797   1.709  13.620 -0.4275  2.3359 -0.0108
13488TIP3    H261880   1.778   1.767  13.481  2.5702 -3.2288 -3.1236
13489TIP3   OH261881   1.758   6.516   5.444  0.4092  0.3274 -0.0012
13489TIP3    H161882   1.751   6.561   5.360  0.1498  2.6659  1.1733
13489TIP3    H261883   1.852   6.520   5.465  0.5035 -0.4379 -0.2559
13490TIP3   OH261884   4.810   0.121   2.242  0.0743 -0.0997  0.2121
13490TIP3    H161885   4.783   0.078   2.161  0.4893  0.2071 -0.0887
13490TIP3    H261886   4.892   0.166   2.220  0.9447 -1.1637  1.1496
13491TIP3   OH261887   1.281   2.685   3.931 -0.0238 -0.0533  0.2203
13491TIP3    H161888   1.225   2.734   3.991  1.5952  2.7600 -0.3660
13491TIP3    H261889   1.323   2.752   3.877  1.7432 -2.1890 -1.2531
13492TIP3   OH261890   2.714   3.869   4.493  0.0463  0.3772  0.1853
13492TIP3    H161891   2.701   3.782   4.454  1.2127  0.1844  0.2072
13492TIP3    H261892   2.651   3.872   4.565 -2.6701  0.9879 -2.0277
13493TIP3   OH261893   6.517   4.694  16.387  0.1033 -0.1206  0.1310
13493TIP3    H161894   6.539   4.611  16.344  1.4576  0.0770  0.3935
13493TIP3    H261895   6.594   4.749  16.373  0.4193  0.0962  2.4018
13494TIP3   OH261896   4.936   5.741  11.122  0.1144 -0.5750  0.4309
13494TIP3    H161897   4.943   5.647  11.134 -0.4738 -0.4473  1.9411
13494TIP3    H261898   4.843   5.757  11.105  0.0059 -0.1784  1.3096
13495TIP3   OH261899   4.964   4.413   1.405  0.8306 -0.7575  0.1488
13495TIP3    H161900   5.050   4.454   1.415  0.7576 -0.3928 -0.6128
13495TIP3    H261901   4.931   4.448   1.322  0.7044 -2.2580 -0.4727
13496TIP3   OH261902   5.997   4.793   0.612 -0.5934  0.7082 -0.5353
13496TIP3    H161903   5.966   4.779   0.523  0.6066 -0.5937 -0.7854
13496TIP3    H261904   5.962   4.879   0.636 -1.8832  0.5952 -1.8251
13497TIP3   OH261905   5.389   4.149  12.444 -0.0716  0.1253 -0.0976
13497TIP3    H161906   5.459   4.178  12.385 -0.5876  0.0494 -0.7569
13497TIP3    H261907   5.428   4.154  12.531  0.0926  2.0978 -0.2446
13498TIP3   OH261908   3.789   3.499  14.597  0.0173 -0.4064  0.8422
13498TIP3    H161909   3.710   3.551  14.613  0.9384  1.2238  0.2502
13498TIP3    H261910   3.799   3.498  14.502  1.9859  1.4542  0.9609
13499TIP3   OH261911   2.795   0.221   5.076  0.1273  0.3084 -0.2176
13499TIP3    H161912   2.878   0.227   5.123  1.4688 -2.1582 -2.0649
13499TIP3    H261913   2.769   0.312   5.062  0.4160  1.1938  3.7803
13500TIP3   OH261914   2.573   1.332  15.539  0.1032  0.4986  0.1537
13500TIP3    H161915   2.580   1.241  15.511  0.9903  0.6002  0.0303
13500TIP3    H261916   2.533   1.327  15.627  2.2797 -0.1823  1.1681
13501TIP3   OH261917   1.535   2.645   0.046  0.4083  0.3739 -0.1650
13501TIP3    H161918   1.463   2.701   0.019  0.6165  0.4237 -0.6356
13501TIP3    H261919   1.537   2.652   0.142 -0.4310  0.0885 -0.1207
13502TIP3   OH261920   1.047   3.572  11.064  0.3900  0.4584  0.0623
13502TIP3    H161921   1.107   3.535  10.999 -1.4088  0.2052 -1.5689
13502TIP3    H261922   0.960   3.555  11.028 -0.8028 -1.0301  3.2824
13503TIP3   OH261923   6.537   0.075   5.874  0.4656  0.0113  0.2016
13503TIP3    H161924   6.501   0.142   5.933  0.7828  1.3677 -1.0700
13503TIP3    H261925   6.464   0.051   5.818  0.7507  0.5348 -0.4110
13504TIP3   OH261926   4.807   3.071  16.527  0.0496 -0.1259  0.4584
13504TIP3    H161927   4.723   3.100  16.564 -0.2301 -0.8724  0.4314
13504TIP3    H261928   4.809   2.977  16.544  0.1898 -0.3857 -0.8739
13505TIP3   OH261929   0.763   4.696   6.295  0.1320  0.3760 -0.0337
13505TIP3    H161930   0.835   4.718   6.355  0.3368 -1.7966  0.5878
13505TIP3    H261931   0.699   4.766   6.307  1.9314  2.1541 -0.3070
13506TIP3   OH261932   4.246   3.196   4.104 -0.3847  0.4779  0.3438
13506TIP3    H161933   4.193   3.255   4.050 -2.7676 -0.7570  1.1504
13506TIP3    H261934   4.216   3.108   4.079  0.7605 -0.2397  1.4017
13507TIP3   OH261935   3.041   0.898  12.478  0.0308 -0.1568  0.0194
13507TIP3    H161936   3.111   0.918  12.540 -0.3828 -1.2366  0.8580
13507TIP3    H261937   3.017   0.984  12.442  0.5092  0.4576  1.0914
13508TIP3   OH261938   5.360   2.616   5.481 -0.6974 -0.1863  0.4721
13508TIP3    H161939   5.316   2.690   5.522 -0.2895  1.5664 -2.0182
13508TIP3    H261940   5.291   2.552   5.467 -1.7808  1.1006 -0.2982
13509TIP3   OH261941   4.127   5.291  17.221 -0.2563 -0.2717 -0.0501
13509TIP3    H161942   4.188   5.287  17.295  1.8262  2.7300 -1.4268
13509TIP3    H261943   4.183   5.285  17.144 -2.1757 -1.2775 -1.4557
13510TIP3   OH261944   5.271   0.522   5.093 -0.5427 -0.0734  0.6087
13510TIP3    H161945   5.185   0.562   5.107 -1.0880 -0.2721 -1.6545
13510TIP3    H261946   5.333   0.580   5.136 -1.6998  0.7440  1.2232
13511TIP3   OH261947   0.990   0.939   0.331  0.5223 -0.6657 -0.0804
13511TIP3    H161948   1.081   0.930   0.303  0.2013 -1.2482 -0.9655
13511TIP3    H261949   0.958   1.016   0.284  0.0126 -1.5876 -1.2939
13512TIP3   OH261950   4.173   0.730  12.823 -0.4741 -0.0914  0.2795
13512TIP3    H161951   4.146   0.640  12.841  0.0628 -0.1008  1.0782
13512TIP3    H261952   4.257   0.722  12.779 -0.6262  0.0140 -0.0367
13513TIP3   OH261953   3.940   5.836   1.583  0.1091  0.8177  0.4474
13513TIP3    H161954   3.918   5.745   1.604 -0.3325  0.9362  0.5252
13513TIP3    H261955   3.891   5.855   1.503  2.5204  0.0787 -1.3109
13514TIP3   OH261956   0.696   3.488  13.772  0.7286 -0.2614  0.2388
13514TIP3    H161957   0.720   3.576  13.800 -1.3700  1.7610 -3.5147
13514TIP3    H261958   0.608   3.474  13.807  1.2788 -1.1481  1.3025
13515TIP3   OH261959   5.306   0.969  12.434 -0.2663 -0.1085 -0.0214
13515TIP3    H161960   5.379   0.915  12.405 -0.6462 -0.4794 -0.2944
13515TIP3    H261961   5.229   0.930  12.393 -0.5991  0.3755  0.1312
13516TIP3   OH261962   2.602   1.087   4.739 -0.2406 -0.0429  0.5321
13516TIP3    H161963   2.689   1.121   4.720 -0.2485 -0.7306 -0.9279
13516TIP3    H261964   2.543   1.157   4.712 -0.2214 -0.7529 -1.5013
13517TIP3   OH261965   0.029   0.338  11.061  0.3198 -0.2456  0.4274
13517TIP3    H161966   0.006   0.292  10.981  0.1122 -1.1816  1.0129
13517TIP3    H261967   0.095   0.402  11.034  1.3632 -1.5526 -0.2376
13518TIP3   OH261968   3.372   0.877  11.930  0.2279  0.1779  0.7591
13518TIP3    H161969   3.460   0.911  11.945  0.3156 -0.0762  0.8263
13518TIP3    H261970   3.386   0.802  11.871  0.0744  0.0394  0.8991
13519TIP3   OH261971   0.076   4.245   1.079  0.3185 -0.3488  0.1078
13519TIP3    H161972   0.017   4.253   1.004 -2.3989 -1.5328  1.9622
13519TIP3    H261973   0.146   4.186   1.048 -0.8775 -1.0483 -1.4151
13520TIP3   OH261974   2.382   5.434  12.547 -0.5761 -0.0835  0.2375
13520TIP3    H161975   2.468   5.467  12.522 -0.3923 -1.5731 -1.2795
13520TIP3    H261976   2.395   5.393  12.632  0.0532  0.2869  0.3220
13521TIP3   OH261977   6.466   5.235   6.002 -0.5319  0.1666 -0.0497
13521TIP3    H161978   6.437   5.148   5.973 -1.5065  0.1146  0.9796
13521TIP3    H261979   6.484   5.223   6.096  1.1417  0.6470 -0.2891
13522TIP3   OH261980   4.038   1.673  13.538 -0.5412  0.3560  0.3306
13522TIP3    H161981   4.023   1.693  13.446  0.6833 -1.0171 -0.2091
13522TIP3    H261982   3.951   1.674  13.577 -0.8607  4.1973 -0.0600
13523TIP3   OH261983   0.605   6.005   2.705  0.0066 -0.0601  0.3869
13523TIP3    H161984   0.519   6.045   2.708  0.1580  0.2882  0.1441
13523TIP3    H261985   0.602   5.937   2.772 -0.7934 -0.7377 -0.3285
13524TIP3   OH261986   1.504   5.518  12.578 -0.7496  0.3460  0.0373
13524TIP3    H161987   1.587   5.565  12.572 -0.5528  0.1571  1.1449
13524TIP3    H261988   1.524   5.429  12.549 -0.7942  0.5481 -0.6365
13525TIP3   OH261989   0.696   5.731  15.412  0.0464 -0.7184 -1.1440
13525TIP3    H161990   0.677   5.637  15.406 -0.2860 -0.6875 -0.6664
13525TIP3    H261991   0.622   5.773  15.368 -0.0003 -0.6700 -1.0211
13526TIP3   OH261992   6.158   1.770  16.328  0.2969 -0.3818  0.2292
13526TIP3    H161993   6.212   1.802  16.256  1.5967 -2.5408  0.1323
13526TIP3    H261994   6.205   1.795  16.407 -0.7991  1.4252  0.3491
13527TIP3   OH261995   0.937   1.820   1.038  0.0887 -0.4003  0.2614
13527TIP3    H161996   0.868   1.782   0.984 -0.0383 -0.7420  0.6559
13527TIP3    H261997   0.919   1.914   1.038  0.6395 -0.2748 -1.0515
13528TIP3   OH261998   0.279   4.631   3.961  0.2974  0.0586 -0.3966
13528TIP3    H161999   0.236   4.715   3.942  0.9486  0.8188  1.3285
13528TIP3    H262000   0.372   4.652   3.965  0.5033 -0.8363 -0.2837
13529TIP3   OH262001   0.290   0.612   2.589 -0.4707  0.2106  0.4823
13529TIP3    H162002   0.233   0.585   2.518  2.3501 -1.0613 -1.4801
13529TIP3    H262003   0.268   0.554   2.662 -0.8591 -1.0936 -0.6397
13530TIP3   OH262004   2.413   6.121  16.254  0.3883  0.1857  0.5533
13530TIP3    H162005   2.375   6.050  16.202  2.4167 -0.8473  0.4104
13530TIP3    H262006   2.339   6.155  16.305 -1.2351 -0.1086 -1.4482
13531TIP3   OH262007   0.772   1.977   4.673 -0.2250  0.2673 -0.2909
13531TIP3    H162008   0.689   2.024   4.663 -1.2001 -1.3854 -0.2575
13531TIP3    H262009   0.766   1.905   4.610  1.1955  0.1179 -0.2794
13532TIP3   OH262010   6.632   0.694   0.442 -0.7845  0.5234 -0.1099
13532TIP3    H162011   6.645   0.769   0.501 -0.9323  0.9607 -0.6213
13532TIP3    H262012   6.628   0.618   0.500 -0.8775  0.9417  0.4418
13533TIP3   OH262013   5.763   2.310  15.385 -0.2223  0.4302  0.1896
13533TIP3    H162014   5.822   2.384  15.396  0.0117  0.6501 -1.9926
13533TIP3    H262015   5.776   2.283  15.294 -0.0821 -2.5024  0.9790
13534TIP3   OH262016   1.130   4.074  14.030 -0.0134 -0.0057  0.5120
13534TIP3    H162017   1.177   3.999  13.995 -0.6647  0.4176 -1.4249
13534TIP3    H262018   1.113   4.129  13.953 -0.5936  1.5340  1.6968
13535TIP3   OH262019   3.358   0.481  12.148  0.2168 -0.1716  0.2254
13535TIP3    H162020   3.357   0.385  12.138 -3.8120 -0.4008  0.9982
13535TIP3    H262021   3.313   0.513  12.070  2.0801  1.2395 -0.3345
13536TIP3   OH262022   3.884   1.385   4.287  0.1985 -0.4132 -0.4279
13536TIP3    H162023   3.839   1.411   4.367 -2.4123 -2.3904 -1.0936
13536TIP3    H262024   3.818   1.397   4.218  1.2639 -1.8791 -1.7689
13537TIP3   OH262025   6.665   6.695  15.007  0.0012  0.3731  0.4935
13537TIP3    H162026   6.703   6.740  14.931 -1.3625 -0.7342 -0.9082
13537TIP3    H262027   6.587   6.747  15.028 -0.1495  0.1360  0.5200
13538TIP3   OH262028   1.424   5.260   5.385 -0.2250  0.2388  0.3929
13538TIP3    H162029   1.354   5.318   5.413 -0.4132 -0.3419  1.1371
13538TIP3    H262030   1.380   5.179   5.360  0.0831  0.2409 -0.1784
13539TIP3   OH262031   4.091   3.895  16.868 -0.0938  0.1066  0.7444
13539TIP3    H162032   4.063   3.822  16.924 -4.2146  1.7336  1.1318
13539TIP3    H262033   4.088   3.971  16.925  1.1880  1.0609 -0.3959
13540TIP3   OH262034   0.187   6.719  13.996  0.3717  0.2463  0.0570
13540TIP3    H162035   0.095   6.733  14.020  0.5953  2.0688  0.0338
13540TIP3    H262036   0.190   6.738  13.902  0.6822 -0.3057 -0.0468
13541TIP3   OH262037   3.893   4.093  11.912 -0.0852  0.1528  0.2963
13541TIP3    H162038   3.872   4.116  11.821  0.0068  0.2134  0.2898
13541TIP3    H262039   3.915   4.000  11.908  1.2992  0.4603  0.0080
13542TIP3   OH262040   3.377   3.199   3.269 -0.3133 -0.3118  0.0205
13542TIP3    H162041   3.318   3.176   3.197 -1.4981  1.0352  0.5074
13542TIP3    H262042   3.425   3.276   3.236  0.5880 -0.8982 -0.0587
13543TIP3   OH262043   5.347   0.013  15.671  0.1971 -0.0200 -0.4050
13543TIP3    H162044   5.416  -0.050  15.653  0.7231  0.1049  1.0201
13543TIP3    H262045   5.377   0.094  15.628  0.3317 -0.2901 -0.8241
13544TIP3   OH262046   3.737   3.394  15.735  0.4087  0.0256  0.6391
13544TIP3    H162047   3.736   3.476  15.784 -1.4710  0.8065 -0.5938
13544TIP3    H262048   3.751   3.326  15.801  0.6608  1.2304  1.8552
13545TIP3   OH262049   2.486   4.449  14.849  0.1894 -0.5281 -0.0618
13545TIP3    H162050   2.508   4.390  14.921  2.8636  0.0814 -0.2553
13545TIP3    H262051   2.501   4.537  14.884 -0.5505 -0.1237 -0.7263
13546TIP3   OH262052   4.758   6.726   0.358 -0.6188 -0.2317 -0.7046
13546TIP3    H162053   4.712   6.757   0.436 -1.5072 -1.4362 -0.7182
13546TIP3    H262054   4.759   6.802   0.300 -0.1326  0.6156  0.3811
13547TIP3   OH262055   2.182   0.345  15.084  0.1045  0.5279 -0.2578
13547TIP3    H162056   2.180   0.253  15.057  0.6790  0.1083  1.0534
13547TIP3    H262057   2.107   0.355  15.141 -0.0220  0.9054 -0.4893
13548TIP3   OH262058   1.369   5.692   6.756  0.0022 -0.4440 -0.2545
13548TIP3    H162059   1.431   5.752   6.714  1.7434 -2.0395 -0.1092
13548TIP3    H262060   1.423   5.638   6.814 -1.5170 -1.9979 -0.1932
13549TIP3   OH262061   1.006   1.802  16.193  0.3161  0.5288  0.3205
13549TIP3    H162062   0.993   1.708  16.182  0.5889  0.3210  1.5493
13549TIP3    H262063   0.936   1.843  16.143 -0.5020 -0.3585  0.7202
13550TIP3   OH262064   5.683   4.486  11.893 -0.1080 -0.0620  0.0496
13550TIP3    H162065   5.778   4.478  11.890 -0.0593  0.5450 -0.1998
13550TIP3    H262066   5.655   4.420  11.956  0.3774 -1.0437 -0.7324
13551TIP3   OH262067   1.370   1.097   4.079 -0.1185 -0.5484 -0.1340
13551TIP3    H162068   1.318   1.030   4.122  0.0825 -0.1720  0.7182
13551TIP3    H262069   1.371   1.072   3.987 -0.4302 -1.4564  0.1042
13552TIP3   OH262070   6.495   6.568  11.533 -0.0618 -0.1532  0.2153
13552TIP3    H162071   6.459   6.603  11.451 -0.1035 -1.5022 -0.3593
13552TIP3    H262072   6.467   6.631  11.600 -3.2175 -0.9215 -0.2298
13553TIP3   OH262073   5.179   6.487  15.874 -0.2150 -0.5677  0.3081
13553TIP3    H162074   5.231   6.407  15.860 -0.7341 -0.7595 -0.6382
13553TIP3    H262075   5.120   6.490  15.798  0.5402  1.2921 -0.2621
13554TIP3   OH262076   0.671   2.550   4.682 -0.4272  0.4138 -0.2069
13554TIP3    H162077   0.696   2.499   4.759 -1.8405 -0.3899 -0.2344
13554TIP3    H262078   0.657   2.484   4.613  0.8860  1.1263 -1.1954
13555TIP3   OH262079   6.651   1.106  13.713 -0.4706  0.3574 -0.5957
13555TIP3    H162080   6.625   1.133  13.801 -0.3101  1.5714 -0.9025
13555TIP3    H262081   6.573   1.064  13.677  0.1837 -2.5349  0.9860
13556TIP3   OH262082   2.064   4.161   5.712  0.0797 -0.3862 -0.5877
13556TIP3    H162083   2.006   4.177   5.637  0.4389  0.4860 -0.6904
13556TIP3    H262084   2.024   4.210   5.784  0.1553 -0.5941 -0.4034
13557TIP3   OH262085   4.983   2.836   2.008 -0.2293  0.0484  0.0642
13557TIP3    H162086   5.017   2.913   2.053  0.0585 -1.3513  2.3961
13557TIP3    H262087   5.045   2.822   1.936  0.5119  1.1820  0.4508
13558TIP3   OH262088   0.216   1.392   2.803  0.4141  0.2108 -0.2253
13558TIP3    H162089   0.155   1.334   2.848  1.2568 -0.2850  0.2970
13558TIP3    H262090   0.291   1.337   2.783 -0.0130  0.3655 -2.4563
13559TIP3   OH262091   1.915   4.226  14.963 -0.1876 -0.8795 -0.0904
13559TIP3    H162092   1.936   4.136  14.939 -0.7493 -0.6790 -1.4308
13559TIP3    H262093   1.907   4.224  15.058  0.0257 -2.1976 -0.0783
13560TIP3   OH262094   0.151   4.305  12.937 -0.1137  0.3150  0.2703
13560TIP3    H162095   0.141   4.288  13.030 -1.1314 -0.5401  0.0191
13560TIP3    H262096   0.191   4.226  12.902 -0.4980  0.2991 -0.1451
13561TIP3   OH262097   6.320   1.488   4.015  0.7832 -0.6156  0.2197
13561TIP3    H162098   6.266   1.435   4.074  2.6769 -1.0465  1.6551
13561TIP3    H262099   6.390   1.522   4.070  0.5427  2.1295 -1.0019
13562TIP3   OH262100   3.801   1.448  14.134  0.8158  0.6598 -0.4469
13562TIP3    H162101   3.725   1.497  14.163 -0.0370 -0.7804 -0.1633
13562TIP3    H262102   3.791   1.442  14.039 -1.1578 -2.1346 -0.1884
13563TIP3   OH262103   1.245   6.274  14.848  0.4555  0.5632  0.0390
13563TIP3    H162104   1.302   6.316  14.912  1.1831 -0.8510  0.3696
13563TIP3    H262105   1.162   6.263  14.895  1.0863 -0.7859  0.9394
13564TIP3   OH262106   4.132   4.860   1.434 -0.7713  0.2628 -0.4206
13564TIP3    H162107   4.128   4.928   1.367  0.5042  1.1300  0.3310
13564TIP3    H262108   4.121   4.907   1.517  1.3897 -0.2088  0.1974
13565TIP3   OH262109   5.477   4.394   5.768 -0.5265  0.1890 -0.0243
13565TIP3    H162110   5.464   4.336   5.694 -0.0198  0.7938 -0.5980
13565TIP3    H262111   5.490   4.336   5.843  0.5335 -0.4452 -0.6845
13566TIP3   OH262112   1.715   2.980   4.126  0.7496  0.2065 -0.3563
13566TIP3    H162113   1.622   2.959   4.112 -0.0700  1.7957  2.0712
13566TIP3    H262114   1.725   2.980   4.221  3.1064  0.7083 -0.5603
13567TIP3   OH262115   6.260   0.663   1.406 -0.8281  0.0431  0.1881
13567TIP3    H162116   6.225   0.674   1.318  0.0794  0.1244 -0.1646
13567TIP3    H262117   6.245   0.570   1.426 -3.1990  0.4953  0.9113
13568TIP3   OH262118   0.763   5.043  15.481 -0.1309 -0.1932  0.0803
13568TIP3    H162119   0.794   5.016  15.568 -1.0234 -0.8599  0.1979
13568TIP3    H262120   0.696   4.980  15.458 -0.9467  0.8367 -0.4663
13569TIP3   OH262121   5.249   3.274   3.135  0.2126  0.3052  0.0189
13569TIP3    H162122   5.234   3.194   3.085  0.4065 -0.5067  1.2076
13569TIP3    H262123   5.162   3.297   3.168  0.4005 -0.3715  1.0362
13570TIP3   OH262124   2.697   1.634  11.571  0.1442 -0.0097  0.5675
13570TIP3    H162125   2.672   1.613  11.661 -1.7109  1.2639  0.4083
13570TIP3    H262126   2.629   1.694  11.541  0.8464 -0.2370 -1.6269
13571TIP3   OH262127   1.863   1.375  13.734 -0.5417  0.3526  0.0705
13571TIP3    H162128   1.878   1.374  13.829  0.8243  1.0970 -0.1114
13571TIP3    H262129   1.849   1.283  13.711  0.8613 -0.0683  0.7640
13572TIP3   OH262130   2.846   5.765   5.339  0.7437  0.0690 -0.5845
13572TIP3    H162131   2.908   5.693   5.324 -2.3336 -2.6965 -1.2333
13572TIP3    H262132   2.801   5.774   5.256 -0.1811  1.5351  0.0517
13573TIP3   OH262133   2.870   3.993   5.943 -0.2258  0.5910 -0.1013
13573TIP3    H162134   2.946   3.950   5.982 -1.2957 -0.8990  0.4304
13573TIP3    H262135   2.907   4.050   5.875  1.4359  0.8378  0.9430
13574TIP3   OH262136   2.182   4.666  15.120  0.2152 -0.5893 -0.0224
13574TIP3    H162137   2.161   4.573  15.114 -2.1559 -0.0330 -1.4584
13574TIP3    H262138   2.110   4.710  15.076  1.6074  1.9185  0.0277
13575TIP3   OH262139   3.381   5.461  13.203  0.0098  0.3784  0.1464
13575TIP3    H162140   3.370   5.542  13.253 -0.5992 -0.2162  1.0058
13575TIP3    H262141   3.313   5.465  13.136 -1.1690 -0.1987  1.2725
13576TIP3   OH262142   6.412   1.793  11.038 -0.3471  0.2416 -0.0160
13576TIP3    H162143   6.432   1.804  10.945  0.3487  0.0815  0.1080
13576TIP3    H262144   6.393   1.881  11.069  0.7860  0.4998 -0.0137
13577TIP3   OH262145   5.516   0.001  17.012  0.1475 -0.2676  0.3773
13577TIP3    H162146   5.431   0.005  16.969  0.7692  0.6263 -0.8173
13577TIP3    H262147   5.501   0.036  17.100 -0.1849  2.6152 -0.7561
13578TIP3   OH262148   6.007   3.179  15.701 -0.2093  0.0753 -0.4660
13578TIP3    H162149   6.080   3.168  15.640 -1.0934 -1.1601 -1.3442
13578TIP3    H262150   6.009   3.272  15.723  2.3896 -0.1308  0.5517
13579TIP3   OH262151   6.215   4.221   3.615 -0.0230  0.3502  0.1072
13579TIP3    H162152   6.307   4.247   3.610 -0.0654  0.6963  0.9405
13579TIP3    H262153   6.168   4.302   3.633 -0.2556 -0.1221  1.8199
13580TIP3   OH262154   5.397   3.767  13.340 -0.2600  0.3515  0.2882
13580TIP3    H162155   5.337   3.694  13.353 -1.0745  0.9188 -0.1589
13580TIP3    H262156   5.483   3.727  13.331 -0.9569 -0.7670 -2.2135
13581TIP3   OH262157   0.245   0.642  13.776  0.0694  0.1619  0.2044
13581TIP3    H162158   0.286   0.575  13.723 -2.3310 -2.5445  1.4969
13581TIP3    H262159   0.217   0.709  13.713 -1.4408 -2.2501 -1.8633
13582TIP3   OH262160   2.254   6.275  16.423  0.4920  0.4520 -0.3067
13582TIP3    H162161   2.166   6.308  16.407  1.0155  2.1860  0.1998
13582TIP3    H262162   2.292   6.337  16.485  1.7094 -0.8702  0.3263
13583TIP3   OH262163   2.931   0.389   4.040 -0.2926  0.0676 -0.7155
13583TIP3    H162164   2.870   0.451   4.000  0.1247  0.8987 -0.1207
13583TIP3    H262165   3.017   0.428   4.023 -0.0138 -0.4411 -0.4690
13584TIP3   OH262166   2.178   6.238  12.040 -0.4790 -0.2746  0.1903
13584TIP3    H162167   2.211   6.265  12.125 -0.5349  0.6176 -0.0661
13584TIP3    H262168   2.116   6.306  12.015 -0.4880 -0.5429 -0.5451
13585TIP3   OH262169   4.713   1.445   1.200 -0.1633  0.3362  0.3209
13585TIP3    H162170   4.802   1.480   1.200 -0.1234  0.2421  0.0262
13585TIP3    H262171   4.683   1.458   1.110  0.0316 -0.8230  0.0761
13586TIP3   OH262172   4.672   5.254  16.437  0.6122 -0.0480 -0.3079
13586TIP3    H162173   4.696   5.165  16.463 -2.5964 -1.4950 -1.6822
13586TIP3    H262174   4.660   5.301  16.520  2.0104 -0.9745  0.4548
13587TIP3   OH262175   5.896   1.183  12.112  0.1567 -0.3658 -0.8475
13587TIP3    H162176   5.821   1.221  12.066 -1.7808  0.1534  2.4191
13587TIP3    H262177   5.951   1.258  12.135  0.7210 -0.5444 -1.5584
13588TIP3   OH262178   5.943   5.031  13.686 -0.4774 -0.7659  0.0140
13588TIP3    H162179   5.982   5.090  13.622 -0.2165 -2.1643 -1.1787
13588TIP3    H262180   5.849   5.031  13.666 -0.6223 -0.0347  0.6480
13589TIP3   OH262181   5.151   5.545  15.740  0.1204 -0.8179 -0.3040
13589TIP3    H162182   5.142   5.517  15.649  0.8818  1.4829 -1.1699
13589TIP3    H262183   5.073   5.599  15.756  1.1871  0.8832 -0.5075
13590TIP3   OH262184   4.607   4.245   3.103  0.3401  0.4712 -0.4916
13590TIP3    H162185   4.689   4.208   3.136 -0.6728 -0.8209  0.7481
13590TIP3    H262186   4.556   4.261   3.182 -0.1652  2.4211 -1.1610
13591TIP3   OH262187   0.195   4.870  13.094  0.4702  0.0180 -0.5658
13591TIP3    H162188   0.235   4.941  13.043  0.5226 -0.3040 -0.9846
13591TIP3    H262189   0.259   4.850  13.162  0.5283  0.2626 -0.5487
13592TIP3   OH262190   6.713   5.687   0.475 -0.8529 -0.5877 -0.5744
13592TIP3    H162191   6.736   5.774   0.443 -1.7578 -0.4085 -0.7490
13592TIP3    H262192   6.760   5.679   0.558  1.5107 -1.0453 -1.8429
13593TIP3   OH262193   4.121   5.626  11.829 -0.1549 -0.3169 -0.0852
13593TIP3    H162194   4.112   5.532  11.812 -0.1989 -0.1123 -1.2836
13593TIP3    H262195   4.215   5.644  11.818 -0.2941 -0.0433 -0.8598
13594TIP3   OH262196   6.453   2.621  16.568 -0.1193 -0.7786 -0.7144
13594TIP3    H162197   6.429   2.531  16.587 -0.6389 -0.3451  0.8019
13594TIP3    H262198   6.378   2.673  16.597  0.7022  0.2320 -0.3171
13595TIP3   OH262199   1.238   3.888   3.478  0.2879  0.2550 -0.0976
13595TIP3    H162200   1.278   3.902   3.393 -0.3463  1.2960 -0.2398
13595TIP3    H262201   1.194   3.971   3.498 -1.8594 -0.8212 -0.0135
13596TIP3   OH262202   1.260   2.608   4.892  0.1714  0.5176 -0.0554
13596TIP3    H162203   1.300   2.530   4.930  0.8715  0.4560 -0.8682
13596TIP3    H262204   1.180   2.576   4.850 -0.6876  0.6157  1.4572
13597TIP3   OH262205   1.773   3.173   4.914 -0.0427 -0.5420  0.4096
13597TIP3    H162206   1.680   3.154   4.901 -0.1797  0.3845 -0.0769
13597TIP3    H262207   1.778   3.269   4.909  0.9885 -0.6079  0.1131
13598TIP3   OH262208   6.094   6.151  17.346 -0.0609  0.4658  0.3576
13598TIP3    H162209   6.153   6.202  17.403 -0.4601 -1.6728  2.8652
13598TIP3    H262210   6.142   6.070  17.329 -1.3035 -0.3028  0.4518
13599TIP3   OH262211   2.822   5.186  12.891 -0.0553  0.5828 -0.8537
13599TIP3    H162212   2.841   5.133  12.968 -0.6226  0.8990 -0.4886
13599TIP3    H262213   2.902   5.183  12.839 -0.3065 -1.2231 -1.1939
13600TIP3   OH262214   3.860   1.112  14.019  0.8071  0.1804  0.0381
13600TIP3    H162215   3.898   1.050  13.957  2.6160  0.9408  0.3256
13600TIP3    H262216   3.816   1.178  13.965 -1.1235 -1.2800 -0.2708
13601TIP3   OH262217   6.298   6.002  11.800  0.0056  0.1199 -0.1072
13601TIP3    H162218   6.311   6.021  11.707 -0.4524  0.8436 -0.0329
13601TIP3    H262219   6.265   5.913  11.801  0.7586 -0.1776 -0.5821
13602TIP3   OH262220   2.447   5.686   3.438  0.0662  0.0866 -0.0739
13602TIP3    H162221   2.372   5.657   3.387  1.2590  0.4490 -2.2026
13602TIP3    H262222   2.472   5.770   3.398  0.5684  0.8450  1.7096
13603TIP3   OH262223   0.671   5.768  15.093 -0.1307 -0.1335  0.2572
13603TIP3    H162224   0.755   5.736  15.128  0.5343  2.5368  1.3502
13603TIP3    H262225   0.616   5.690  15.088  1.6119 -1.5757  1.9116
13604TIP3   OH262226   6.220   2.454   5.010  0.0459  0.1147  0.0960
13604TIP3    H162227   6.206   2.451   5.105 -0.8810  1.6501  0.0445
13604TIP3    H262228   6.133   2.446   4.972  0.4622 -1.0627 -0.6724
13605TIP3   OH262229   3.082   6.546  12.026 -0.0367 -0.0379  0.0692
13605TIP3    H162230   3.057   6.498  12.105 -2.0499  0.4517 -0.2319
13605TIP3    H262231   3.094   6.636  12.055  0.6661 -0.1130  0.0505
13606TIP3   OH262232   0.231   1.945  14.963  0.0478  0.5497 -0.0042
13606TIP3    H162233   0.302   2.007  14.978  1.1338 -0.2229 -1.7372
13606TIP3    H262234   0.271   1.859  14.973 -0.4505  0.0945 -1.6954
13607TIP3   OH262235   6.021   3.596   4.935  0.6748 -0.1983  0.4418
13607TIP3    H162236   6.058   3.685   4.930 -0.4515  0.2180 -2.7283
13607TIP3    H262237   6.076   3.551   4.999  2.6014  2.1853  0.6149
13608TIP3   OH262238   2.282   1.424   5.326  0.5413  0.5889 -0.3253
13608TIP3    H162239   2.320   1.366   5.261 -0.4944  1.6638 -1.9728
13608TIP3    H262240   2.223   1.369   5.376  1.9391 -0.4254  0.2709
13609TIP3   OH262241   4.904   4.454  11.246  0.3107 -0.3585 -0.6930
13609TIP3    H162242   4.882   4.480  11.157 -1.1006 -0.0763 -0.2889
13609TIP3    H262243   4.961   4.377  11.235  1.2364  0.4609 -1.8326
13610TIP3   OH262244   0.565   4.111  13.909  0.1023  0.4328  0.3248
13610TIP3    H162245   0.581   4.061  13.829  1.8756  0.4847  0.5884
13610TIP3    H262246   0.487   4.163  13.890  0.3403  0.2676 -1.2810
13611TIP3   OH262247   2.342   3.204  10.906 -0.4395  0.2536  0.1268
13611TIP3    H162248   2.384   3.139  10.964 -1.4825 -1.8391 -1.3376
13611TIP3    H262249   2.404   3.214  10.833 -1.1600 -0.6623 -0.6325
13612TIP3   OH262250   3.238   5.666  12.394 -0.2342 -0.3434 -0.2732
13612TIP3    H162251   3.209   5.755  12.378 -0.2044 -0.1584  0.6618
13612TIP3    H262252   3.271   5.636  12.309  1.4480  1.1596 -0.2222
13613TIP3   OH262253   0.380   5.491   6.042  0.2859 -0.4072  0.2164
13613TIP3    H162254   0.375   5.586   6.050  2.5830  0.1802 -3.1578
13613TIP3    H262255   0.341   5.472   5.956  0.7837 -2.3836  0.3800
13614TIP3   OH262256   3.657   5.786   6.583  0.0776 -0.6967 -0.5533
13614TIP3    H162257   3.610   5.782   6.665 -1.1730  1.2635 -1.1175
13614TIP3    H262258   3.591   5.770   6.516  0.7984 -0.8696 -1.2435
13615TIP3   OH262259   2.959   0.820   5.792  0.2218  0.1021 -0.0479
13615TIP3    H162260   2.869   0.838   5.762  0.2374  0.8183  0.3150
13615TIP3    H262261   2.975   0.885   5.860  1.0497  0.0315 -0.1657
13616TIP3   OH262262   3.150   3.719   0.624  0.4193  1.0414  0.0655
13616TIP3    H162263   3.219   3.784   0.613 -0.4069  1.8454 -0.4471
13616TIP3    H262264   3.086   3.739   0.556  0.6008 -0.9195 -0.7455
13617TIP3   OH262265   2.468   6.120   0.199  0.1643 -0.1907 -0.1599
13617TIP3    H162266   2.490   6.123   0.105 -0.1741  0.3274 -0.2256
13617TIP3    H262267   2.545   6.155   0.243  0.8323 -1.5961 -0.1461
13618TIP3   OH262268   4.371   5.450   3.588 -0.2699 -0.3105 -0.3437
13618TIP3    H162269   4.319   5.430   3.666  0.3403  2.2307  0.8436
13618TIP3    H262270   4.317   5.511   3.538 -1.2516 -2.9464 -2.7594
13619TIP3   OH262271   0.145   6.302  13.296  0.0650 -0.7260  0.2134
13619TIP3    H162272   0.108   6.373  13.243 -1.6812 -0.8243  1.2134
13619TIP3    H262273   0.069   6.264  13.341  0.9804 -3.0734 -0.0780
13620TIP3   OH262274   6.674   4.099  12.013  0.0192 -0.4351  0.3247
13620TIP3    H162275   6.670   4.192  12.037  1.4313 -0.3618  0.3854
13620TIP3    H262276   6.596   4.085  11.961  0.3933  1.1216 -0.7460
13621TIP3   OH262277   1.670   0.062  14.091  0.1753  0.2073 -0.0835
13621TIP3    H162278   1.583   0.027  14.073 -1.0359  2.7684  0.3372
13621TIP3    H262279   1.686   0.041  14.183 -1.8863  3.1175  1.1063
13622TIP3   OH262280   2.260   3.610   5.911 -0.4873  0.1574 -0.0829
13622TIP3    H162281   2.242   3.557   5.834 -1.2492  0.4993 -0.1479
13622TIP3    H262282   2.206   3.688   5.900 -0.7611  0.1236  0.8796
13623TIP3   OH262283   2.026   0.044   5.183 -0.0286 -0.2122 -0.2230
13623TIP3    H162284   2.006  -0.041   5.144 -2.3696  0.2055 -0.0714
13623TIP3    H262285   1.941   0.079   5.209  1.0885  1.0362  2.1297
13624TIP3   OH262286   1.289   0.330   2.423  0.6583 -0.2152 -0.0955
13624TIP3    H162287   1.324   0.300   2.338  0.3300  2.5411 -1.3171
13624TIP3    H262288   1.357   0.306   2.486  0.5937 -2.9874 -0.9471
13625TIP3   OH262289   5.712   1.269  11.838  0.6760 -0.0843 -0.1630
13625TIP3    H162290   5.723   1.325  11.915  0.1361 -0.7491  0.4079
13625TIP3    H262291   5.801   1.243  11.815  0.9711  1.3099 -0.6751
13626TIP3   OH262292   1.607   5.506   3.688 -0.0901  0.2894  0.4444
13626TIP3    H162293   1.525   5.554   3.693 -0.2101  0.0588  0.7082
13626TIP3    H262294   1.649   5.520   3.773  0.2457  0.5864  0.2333
13627TIP3   OH262295   2.251   1.268   0.561 -0.0906  0.0195  0.1622
13627TIP3    H162296   2.188   1.333   0.531  0.3372  0.0753 -0.6419
13627TIP3    H262297   2.263   1.287   0.655 -0.7288  0.4482  0.1613
13628TIP3   OH262298   1.982   0.572   0.098  0.1010 -0.5207  0.4657
13628TIP3    H162299   2.000   0.481   0.123 -1.3327 -0.1305  3.3535
13628TIP3    H262300   2.056   0.621   0.133  0.2069 -0.4085  0.0900
13629TIP3   OH262301   2.922   6.528  12.697  0.0281  0.1719 -0.0010
13629TIP3    H162302   3.000   6.520  12.751 -0.4460 -0.3287  0.6181
13629TIP3    H262303   2.875   6.446  12.710 -1.1791  0.9242  0.5511
13630TIP3   OH262304   0.515   1.323   1.202  0.4020 -0.5530  0.1697
13630TIP3    H162305   0.450   1.343   1.135  1.1826 -0.1072 -0.4683
13630TIP3    H262306   0.476   1.252   1.253 -0.0646 -1.1397 -0.9730
13631TIP3   OH262307   1.954   6.511   2.600  0.2619  0.0824  0.0317
13631TIP3    H162308   1.940   6.569   2.525 -0.0332  0.1717  0.1517
13631TIP3    H262309   1.942   6.423   2.565 -1.0354  0.1666  0.2058
13632TIP3   OH262310   2.925   0.528  13.255  0.0179  0.2114  0.2707
13632TIP3    H162311   2.883   0.579  13.186  0.0146 -1.0432 -0.6974
13632TIP3    H262312   2.855   0.474  13.291  0.4983 -0.9999 -0.5237
13633TIP3   OH262313   4.036   0.762  13.340 -0.1190 -0.0771 -0.4994
13633TIP3    H162314   4.053   0.813  13.261 -1.7518 -0.0620 -0.8712
13633TIP3    H262315   4.022   0.673  13.309 -0.4897 -0.1291 -0.1921
13634TIP3   OH262316   5.306   2.630   3.025 -0.3587  0.2148  0.1549
13634TIP3    H162317   5.269   2.718   3.040 -2.5552 -0.3369 -1.5415
13634TIP3    H262318   5.233   2.579   2.992  1.1866 -1.9548 -0.0876
13635TIP3   OH262319   2.284   4.038   3.959  0.2957  0.1583  0.1849
13635TIP3    H162320   2.200   4.031   3.914  2.0075  1.1641 -3.5484
13635TIP3    H262321   2.316   3.948   3.963 -0.2821 -0.0508  0.2392
13636TIP3   OH262322   0.460   1.975   2.753  0.3016 -0.0829 -0.4068
13636TIP3    H162323   0.458   1.882   2.729  0.7192 -0.9816  2.5524
13636TIP3    H262324   0.441   1.975   2.847  2.1518  2.6886  0.0714
13637TIP3   OH262325   0.045   4.005   1.396  0.2593 -0.1000  1.2073
13637TIP3    H162326   0.020   3.934   1.336  0.7614 -1.7978  2.9131
13637TIP3    H262327  -0.038   4.047   1.418 -0.2351 -1.0413  1.2184
13638TIP3   OH262328   2.932   2.978  12.976 -0.2636  0.0853 -0.0296
13638TIP3    H162329   2.879   3.054  12.996  1.7879  1.5386  0.2487
13638TIP3    H262330   2.985   3.004  12.900 -0.8957 -1.7910 -1.1837
13639TIP3   OH262331   3.416   2.580   5.361  0.2931  0.3888  0.2518
13639TIP3    H162332   3.395   2.499   5.408 -0.6600 -0.3587 -1.3731
13639TIP3    H262333   3.463   2.633   5.425 -2.6484  0.2913  2.7241
13640TIP3   OH262334   3.432   3.277   5.037  0.4682  0.3145 -0.2611
13640TIP3    H162335   3.422   3.210   4.969 -0.9073 -0.2616  0.4561
13640TIP3    H262336   3.507   3.248   5.089  0.7867  0.1223 -0.8195
13641TIP3   OH262337   2.705   0.529   5.083  0.3102 -0.8558 -0.0119
13641TIP3    H162338   2.759   0.577   5.020 -0.3214  0.0811  0.1494
13641TIP3    H262339   2.615   0.545   5.055  0.0848 -2.7236 -0.5045
13642TIP3   OH262340   2.079   3.204  15.757 -0.2863 -0.1897  0.3099
13642TIP3    H162341   2.108   3.224  15.668 -1.8052  1.0741  0.0484
13642TIP3    H262342   2.048   3.288  15.792  0.3028 -0.6463  2.0527
13643TIP3   OH262343   0.373   5.415   3.483  0.4021  0.0886 -0.0556
13643TIP3    H162344   0.405   5.338   3.435 -1.3040 -1.5525  1.2741
13643TIP3    H262345   0.371   5.485   3.418  5.8285  0.2911 -0.5018
13644TIP3   OH262346   5.128   2.399  15.266 -0.1657 -0.6598  0.0266
13644TIP3    H162347   5.195   2.332  15.260  1.0793  0.4954  0.4944
13644TIP3    H262348   5.133   2.446  15.182 -1.6085 -1.6349 -0.6454
13645TIP3   OH262349   5.436   4.573   3.298  0.0396  0.3527 -0.1432
13645TIP3    H162350   5.380   4.495   3.292 -0.9576  1.0425 -0.1840
13645TIP3    H262351   5.518   4.541   3.333 -1.0386 -0.3974  1.8601
13646TIP3   OH262352   3.620   1.587  14.357 -0.3001 -0.8022 -0.1504
13646TIP3    H162353   3.618   1.679  14.332  2.4310 -0.3752  0.8346
13646TIP3    H262354   3.696   1.579  14.415  0.2216 -3.8534 -1.0274
13647TIP3   OH262355   2.286   6.640  17.163  0.2588  0.1213  0.8313
13647TIP3    H162356   2.256   6.661  17.251 -0.4493 -1.6793  1.0550
13647TIP3    H262357   2.231   6.567  17.135 -0.2225  1.2451 -1.5016
13648TIP3   OH262358   2.526   1.584   3.155  0.4012 -0.2650 -0.2568
13648TIP3    H162359   2.457   1.527   3.121  0.5816 -1.5155  1.3609
13648TIP3    H262360   2.497   1.673   3.133 -2.5268 -0.6200  1.6028
13649TIP3   OH262361   1.998   4.112  12.827 -0.1363 -0.0277 -0.0701
13649TIP3    H162362   1.990   4.080  12.737 -0.1349  1.7246 -0.7259
13649TIP3    H262363   2.059   4.050  12.869 -1.1950 -1.6643 -0.8481
13650TIP3   OH262364   0.134   0.768   5.409  0.1157  0.6047 -0.3743
13650TIP3    H162365   0.176   0.686   5.434 -0.2080  0.6450  0.3347
13650TIP3    H262366   0.137   0.821   5.489  0.7752  1.4770 -0.9588
13651TIP3   OH262367   1.164   6.469  13.590 -0.4759  0.6857 -0.2191
13651TIP3    H162368   1.088   6.411  13.585 -0.7946  0.9202  1.2933
13651TIP3    H262369   1.229   6.418  13.638 -0.0725  0.8859 -0.5540
13652TIP3   OH262370   2.623   1.843   1.473  0.6255  0.0691 -0.1124
13652TIP3    H162371   2.549   1.902   1.465  2.0219  2.0065  0.5368
13652TIP3    H262372   2.682   1.868   1.402  0.7898 -1.3102 -0.5026
13653TIP3   OH262373   2.987   6.214   5.546 -0.3125 -0.0254  0.3678
13653TIP3    H162374   2.967   6.179   5.633  0.3094 -0.7171  0.2471
13653TIP3    H262375   3.081   6.233   5.549 -0.1683 -0.5930 -0.3349
13654TIP3   OH262376   5.196   4.265  14.283  0.0083  0.3537  0.4747
13654TIP3    H162377   5.215   4.314  14.203 -0.6897  1.1616  0.7861
13654TIP3    H262378   5.159   4.182  14.253  2.0324 -0.4082 -0.0859
13655TIP3   OH262379   4.494   6.269  16.482  0.0993 -0.2692 -0.6205
13655TIP3    H162380   4.517   6.316  16.562 -0.4352  0.6649 -0.9941
13655TIP3    H262381   4.399   6.280  16.474  0.0761 -0.7763 -1.1209
13656TIP3   OH262382   0.480   2.891  13.191  0.5974  0.0785  0.1611
13656TIP3    H162383   0.475   2.818  13.252  1.8634  0.5969  0.9108
13656TIP3    H262384   0.393   2.895  13.152  0.6394 -2.1479 -0.2961
13657TIP3   OH262385   5.100   6.628   5.771 -0.5817 -0.6394 -0.1597
13657TIP3    H162386   5.071   6.633   5.862  0.3556  0.6975  0.1024
13657TIP3    H262387   5.189   6.664   5.772 -0.0339 -1.8879 -1.3980
13658TIP3   OH262388   2.986   0.338   1.938 -0.1026  0.2361 -0.7564
13658TIP3    H162389   2.983   0.245   1.960 -1.8056  0.5754  0.6578
13658TIP3    H262390   3.076   0.364   1.957 -0.4076 -0.4447  2.0912
13659TIP3   OH262391   3.937   3.882  10.521 -0.0108 -0.5721 -0.0960
13659TIP3    H162392   3.881   3.814  10.482  1.8340 -1.2920 -1.6756
13659TIP3    H262393   3.911   3.963  10.477  1.4762 -1.2375 -2.3902
13660TIP3   OH262394   0.212   0.395   0.789 -0.2423  0.4130 -0.1467
13660TIP3    H162395   0.301   0.374   0.815 -0.6575 -0.6894  0.4535
13660TIP3    H262396   0.210   0.379   0.695  0.1043  0.0979 -0.1045
13661TIP3   OH262397   2.539   1.952  11.686 -0.0096  0.0609 -0.2488
13661TIP3    H162398   2.542   2.044  11.659 -1.1830 -0.0426 -0.7765
13661TIP3    H262399   2.578   1.952  11.774  0.6238  0.9508 -0.5103
13662TIP3   OH262400   1.962   3.457   6.739  0.2120  0.2906  0.4011
13662TIP3    H162401   1.871   3.456   6.767  0.8484  0.1300  2.6053
13662TIP3    H262402   1.982   3.366   6.718 -0.3465  0.4556 -0.9889
13663TIP3   OH262403   1.895   2.640  13.396  0.1477  0.0205  0.6255
13663TIP3    H162404   1.881   2.687  13.479  0.8867 -0.1097  0.8307
13663TIP3    H262405   1.906   2.710  13.331 -1.6232  0.1402  0.3975
13664TIP3   OH262406   2.055   3.300  10.631  0.0035  0.6179  0.1776
13664TIP3    H162407   2.046   3.343  10.716  1.6230 -0.5203  0.9922
13664TIP3    H262408   1.997   3.349  10.572  1.6619  3.8931  1.0218
13665TIP3   OH262409   5.116   6.457   2.312  0.5387 -0.3652 -0.3669
13665TIP3    H162410   5.135   6.528   2.250 -3.0489 -0.5869 -1.9366
13665TIP3    H262411   5.031   6.479   2.349 -0.3182 -3.4074 -0.2901
13666TIP3   OH262412   4.131   1.718   4.083  0.2814  0.0072  0.6593
13666TIP3    H162413   4.054   1.702   4.028  0.2240  3.9900 -0.7376
13666TIP3    H262414   4.192   1.648   4.060 -1.1215 -0.5135 -1.8429
13667TIP3   OH262415   1.790   5.366  11.211  0.1704  0.1213  0.0403
13667TIP3    H162416   1.803   5.333  11.300 -0.3860  0.0842  0.1108
13667TIP3    H262417   1.795   5.288  11.156 -0.7349 -0.0368  0.1667
13668TIP3   OH262418   4.855   3.721   0.925  0.2555 -0.4548  0.1344
13668TIP3    H162419   4.864   3.816   0.921  1.4417 -0.2873  3.5097
13668TIP3    H262420   4.772   3.707   0.970  0.2016 -1.0321 -0.1365
13669TIP3   OH262421   0.236   3.724  13.117  0.0430  0.0094  0.7240
13669TIP3    H162422   0.251   3.646  13.170  1.0977  0.5387  1.2318
13669TIP3    H262423   0.146   3.751  13.139 -1.3878 -2.5012 -1.4132
13670TIP3   OH262424   3.132   6.267   1.394 -0.1175 -0.2744 -0.4490
13670TIP3    H162425   3.071   6.263   1.321  1.0840 -1.9386 -1.4203
13670TIP3    H262426   3.202   6.325   1.364 -0.4931  0.5206  0.1393
13671TIP3   OH262427   0.028   3.877   4.488  0.2801 -0.3198  0.7332
13671TIP3    H162428   0.078   3.801   4.457  1.7192  1.2761 -1.0534
13671TIP3    H262429   0.064   3.895   4.575  1.1494 -0.6252  0.4489
13672TIP3   OH262430   4.773   2.886   6.086 -0.3527 -0.3008  0.1252
13672TIP3    H162431   4.686   2.875   6.124  0.1817 -0.0316  1.5325
13672TIP3    H262432   4.829   2.825   6.135  0.2797 -0.3509 -0.6365
13673TIP3   OH262433   3.047   4.198   0.576  0.2145 -0.3968  0.4527
13673TIP3    H162434   2.998   4.226   0.499  0.0431  1.0070  1.0291
13673TIP3    H262435   3.139   4.206   0.551  0.2294  2.2675  1.0393
13674TIP3   OH262436   3.654   0.219  11.006 -0.1322  0.7925 -0.2236
13674TIP3    H162437   3.670   0.214  10.912  0.3730 -0.2279 -0.0955
13674TIP3    H262438   3.692   0.303  11.032  1.0941  0.4075 -0.6867
13675TIP3   OH262439   0.907   4.835  17.245  0.8004  0.1741 -0.3748
13675TIP3    H162440   0.865   4.890  17.311  1.8367  2.1484 -1.2573
13675TIP3    H262441   0.947   4.764  17.294  0.7699  1.0783  1.0090
13676TIP3   OH262442   6.410   0.388  16.268 -0.4175 -0.0133  0.0141
13676TIP3    H162443   6.333   0.437  16.241  0.4067  1.1002 -0.3861
13676TIP3    H262444   6.464   0.452  16.315  1.3805 -0.0828 -1.8134
13677TIP3   OH262445   2.044   4.072   0.491  0.0108  0.2155  0.3249
13677TIP3    H162446   2.021   3.984   0.461  1.7925 -0.2756  0.2937
13677TIP3    H262447   1.971   4.098   0.547  0.0586 -1.8374  1.4442
13678TIP3   OH262448   6.539   2.609   1.388  0.8206 -0.7517  0.1536
13678TIP3    H162449   6.577   2.542   1.330  2.1340 -1.6273  1.9370
13678TIP3    H262450   6.483   2.561   1.448 -0.7526  0.1859 -0.5033
13679TIP3   OH262451   3.828   4.697  15.947  0.3838 -0.4367  0.4381
13679TIP3    H162452   3.793   4.719  16.033  0.1969 -1.2376  0.5722
13679TIP3    H262453   3.921   4.679  15.963  0.8219  1.3177  0.1409
13680TIP3   OH262454   0.301   5.061  12.961 -0.0823  0.4521  0.6999
13680TIP3    H162455   0.303   5.070  12.865 -2.2079 -1.7238  0.3415
13680TIP3    H262456   0.258   5.141  12.991  2.0624  1.9343  0.0630
13681TIP3   OH262457   2.142   6.147  14.418  0.2838 -0.4310  0.2487
13681TIP3    H162458   2.199   6.070  14.422  0.7079 -0.3291 -2.1613
13681TIP3    H262459   2.162   6.187  14.333 -2.2427  0.5201  0.0141
13682TIP3   OH262460   5.028   0.307  14.789  0.1142  0.7705 -0.2543
13682TIP3    H162461   5.062   0.395  14.804  0.8561  0.4421  0.0413
13682TIP3    H262462   5.104   0.250  14.802 -0.6516 -0.0258  0.9044
13683TIP3   OH262463   4.847   4.696  12.939  0.1413  0.2774  0.4473
13683TIP3    H162464   4.802   4.702  13.023 -0.7754 -0.8587  0.0703
13683TIP3    H262465   4.776   4.693  12.875  0.7743 -0.7270 -0.2261
13684TIP3   OH262466   2.881   0.250  13.560 -0.4758 -0.1658  0.2843
13684TIP3    H162467   2.847   0.272  13.473 -0.5127  0.1688  0.3820
13684TIP3    H262468   2.951   0.187  13.543 -0.1897  0.2277 -0.0227
13685TIP3   OH262469   5.317   5.792  17.339 -0.4076 -0.2868  0.5086
13685TIP3    H162470   5.396   5.840  17.316  0.3844 -1.6019  0.3478
13685TIP3    H262471   5.259   5.805  17.264  0.1187 -0.2565  0.1008
13686TIP3   OH262472   0.839   2.277  12.815 -0.7060 -0.1428 -0.5313
13686TIP3    H162473   0.853   2.313  12.728  0.1811 -0.3276 -0.4775
13686TIP3    H262474   0.853   2.183  12.805 -0.0030 -0.0926 -0.0817
13687TIP3   OH262475   3.675   3.632   2.786 -0.4794 -0.5709 -0.0933
13687TIP3    H162476   3.618   3.559   2.763 -1.4018  0.5013 -1.3283
13687TIP3    H262477   3.670   3.691   2.712 -1.8589  2.0258  1.9053
13688TIP3   OH262478   4.732   3.829   3.062 -0.3823 -0.3571 -0.1992
13688TIP3    H162479   4.706   3.820   2.971 -0.3526  4.1499 -0.9221
13688TIP3    H262480   4.797   3.761   3.076 -1.1694 -1.8722 -3.1871
13689TIP3   OH262481   0.638   1.075  16.821 -0.0345  0.5402 -0.3727
13689TIP3    H162482   0.648   1.013  16.749  0.9871 -2.1918  1.9216
13689TIP3    H262483   0.719   1.126  16.821  1.7477 -2.0612  0.9992
13690TIP3   OH262484   5.064   3.781   0.371  0.0435 -0.8484  0.2643
13690TIP3    H162485   5.095   3.795   0.281 -1.8360  0.6631 -0.2088
13690TIP3    H262486   4.972   3.755   0.361  0.2136 -2.1370  1.7243
13691TIP3   OH262487   0.236   5.522   1.013  0.2071  0.2293  0.1689
13691TIP3    H162488   0.301   5.562   0.955  0.2227  1.1514  0.7904
13691TIP3    H262489   0.154   5.529   0.965  0.6466 -1.5912 -0.9303
13692TIP3   OH262490   1.910   4.432  14.684  0.0913 -0.3221  0.5758
13692TIP3    H162491   1.980   4.394  14.737  0.9005  0.0599 -0.2085
13692TIP3    H262492   1.955   4.483  14.617 -0.9475  0.7863  0.6859
13693TIP3   OH262493   5.164   2.617  14.452  0.0026 -0.8210  1.0660
13693TIP3    H162494   5.147   2.526  14.429  0.9695 -0.2379 -2.5232
13693TIP3    H262495   5.251   2.615  14.493  1.7239 -1.2752 -2.2665
13694TIP3   OH262496   6.387   6.691   4.957 -0.7091 -0.1857  0.0024
13694TIP3    H162497   6.369   6.651   5.042 -1.2526 -0.4322 -0.2231
13694TIP3    H262498   6.305   6.683   4.909 -0.7887  1.0943 -0.0952
13695TIP3   OH262499   1.255   4.074  13.747  0.8241 -0.1693  0.8167
13695TIP3    H162500   1.208   3.994  13.773 -0.5385 -0.6334 -2.5429
13695TIP3    H262501   1.343   4.044  13.727  1.2571 -0.1876  2.6340
13696TIP3   OH262502   6.390   1.965  12.768 -1.0405 -0.1915 -0.0668
13696TIP3    H162503   6.389   2.055  12.735 -0.4955  0.4184  1.4919
13696TIP3    H262504   6.472   1.928  12.734 -1.0413  0.0545 -0.3389
13697TIP3   OH262505   0.985   4.356  16.741 -0.1777  0.0487  0.2267
13697TIP3    H162506   1.081   4.361  16.737 -0.2626  1.8479 -0.4052
13697TIP3    H262507   0.964   4.273  16.699  1.0644  0.0964 -0.5576
13698TIP3   OH262508   0.295   4.730   6.193 -0.6653  0.1407 -0.0094
13698TIP3    H162509   0.334   4.708   6.278 -0.9783 -3.2542 -0.6182
13698TIP3    H262510   0.211   4.769   6.215  1.2705  4.2104  1.2290
13699TIP3   OH262511   5.106   5.838   6.475  0.0830 -0.2016  0.0387
13699TIP3    H162512   5.056   5.917   6.495 -0.2909 -1.1118  3.3100
13699TIP3    H262513   5.198   5.866   6.477 -0.0993  0.5673 -1.2981
13700TIP3   OH262514   2.023   3.447  10.837  0.3211 -0.1096 -0.2095
13700TIP3    H162515   1.981   3.528  10.808 -0.8780 -0.2792  0.9231
13700TIP3    H262516   2.032   3.458  10.932  1.3229 -0.7838 -0.2166
13701TIP3   OH262517   2.795   5.480  16.570 -0.1405 -0.1319  0.4221
13701TIP3    H162518   2.707   5.449  16.550 -0.6900 -0.6629  3.2378
13701TIP3    H262519   2.781   5.556  16.627  1.2295  0.0139  0.5978
13702TIP3   OH262520   0.956   2.965  11.885 -0.2981  0.3435  0.0557
13702TIP3    H162521   0.910   3.043  11.854  1.1041  0.5853 -1.5429
13702TIP3    H262522   0.942   2.900  11.817 -1.3172 -0.8071  1.3021
13703TIP3   OH262523   0.700   4.127   2.814 -0.3546  0.6510 -0.3425
13703TIP3    H162524   0.756   4.204   2.827  0.1290  0.3511 -0.6039
13703TIP3    H262525   0.672   4.133   2.722  1.2864 -0.5044 -0.9728
13704TIP3   OH262526   1.281   1.687   2.407  0.5054 -0.0634 -0.5911
13704TIP3    H162527   1.244   1.600   2.394  3.3199 -1.5340  0.3443
13704TIP3    H262528   1.319   1.684   2.495  2.2353  1.4633 -1.2131
13705TIP3   OH262529   0.509   5.340   3.061 -0.7935  0.0445 -0.9819
13705TIP3    H162530   0.598   5.306   3.052 -0.3190  0.9077  0.1880
13705TIP3    H262531   0.508   5.419   3.006  0.5030  2.3709  2.0300
13706TIP3   OH262532   3.711   0.599  14.877 -0.3168 -0.3213 -0.7658
13706TIP3    H162533   3.708   0.504  14.867 -0.9052 -0.2300 -1.5704
13706TIP3    H262534   3.800   0.617  14.906 -0.5367 -1.2171  0.5737
13707TIP3   OH262535   4.756   0.554   2.565 -0.0037 -0.1735  0.6267
13707TIP3    H162536   4.843   0.593   2.552 -1.3110  2.1748 -2.1802
13707TIP3    H262537   4.745   0.495   2.491 -0.2393 -1.7086  1.8439
13708TIP3   OH262538   6.572   4.432  16.274 -0.3418 -0.4583 -0.0523
13708TIP3    H162539   6.635   4.374  16.318  0.3148  0.8852  0.8386
13708TIP3    H262540   6.491   4.380  16.269 -0.2991 -0.8618  2.3458
13709TIP3   OH262541   0.071   0.162  13.354 -0.4626  0.3135  0.9052
13709TIP3    H162542   0.010   0.230  13.383  0.7359  1.5790  0.5845
13709TIP3    H262543   0.086   0.108  13.431  0.2015  1.7063  1.7931
13710TIP3   OH262544   0.291   5.945  16.736 -0.1705 -0.4098 -0.5331
13710TIP3    H162545   0.239   6.018  16.704 -2.5101 -1.1171  1.3232
13710TIP3    H262546   0.309   5.967  16.828 -0.3545 -1.8290 -0.1339
13711TIP3   OH262547   0.088   0.926  16.174  0.1160  0.2418  0.1889
13711TIP3    H162548   0.108   1.005  16.124  0.3649  0.3105  0.3985
13711TIP3    H262549   0.150   0.926  16.246 -0.1809  0.0917  0.4483
13712TIP3   OH262550   5.060   0.585  12.789  0.1688  0.0408 -0.2383
13712TIP3    H162551   5.100   0.622  12.868  0.6585  1.8496 -1.2945
13712TIP3    H262552   4.968   0.610  12.795  0.0045 -0.6301  0.1917
13713TIP3   OH262553   6.749   5.797  12.047 -0.2679 -0.1888  0.0634
13713TIP3    H162554   6.695   5.850  12.105  1.6866  0.7453  1.1578
13713TIP3    H262555   6.821   5.855  12.022  0.3674 -1.4222 -1.1358
13714TIP3   OH262556   2.326   1.363  11.976  0.3340  0.4482  0.0202
13714TIP3    H162557   2.288   1.340  12.061 -0.6934 -0.7919 -0.7522
13714TIP3    H262558   2.317   1.284  11.923 -0.0174  1.5362 -1.6022
13715TIP3   OH262559   2.945   3.989  16.049 -0.4426  0.0867 -0.1583
13715TIP3    H162560   3.028   3.993  16.002 -0.7455  5.0426 -0.8726
13715TIP3    H262561   2.879   3.984  15.980 -0.8095 -0.9499  0.2532
13716TIP3   OH262562   2.397   5.631   1.016 -0.1788 -0.0410 -0.2915
13716TIP3    H162563   2.468   5.687   1.046 -1.4407  1.1371  0.6249
13716TIP3    H262564   2.333   5.691   0.978 -0.8142 -1.0364 -0.8399
13717TIP3   OH262565   3.947   0.933  12.299  0.2710  0.2785 -0.2806
13717TIP3    H162566   3.983   1.017  12.272  0.7257  0.0957 -0.2458
13717TIP3    H262567   3.918   0.947  12.389  0.0665  0.4823 -0.3771
13718TIP3   OH262568   2.268   4.429   3.682  0.4387  0.4015  0.0318
13718TIP3    H162569   2.344   4.371   3.686  0.2437 -0.4076 -4.0847
13718TIP3    H262570   2.192   4.372   3.694  0.3381  0.5718  0.2327
13719TIP3   OH262571   6.006   3.444  11.257  0.0096  0.0550  0.5808
13719TIP3    H162572   5.948   3.509  11.295 -0.3994 -0.2512  0.4836
13719TIP3    H262573   6.044   3.486  11.180 -3.0824 -1.0283 -1.7141
13720TIP3   OH262574   1.953   2.392   5.895  0.0573  0.3911 -0.1452
13720TIP3    H162575   1.872   2.427   5.931 -0.0861 -0.1950  0.1150
13720TIP3    H262576   2.021   2.423   5.956 -0.0978  0.0248  0.2228
13721TIP3   OH262577   3.705   5.628  12.875  0.0611  0.5100 -0.4712
13721TIP3    H162578   3.740   5.601  12.960 -0.6451 -1.3044 -0.6959
13721TIP3    H262579   3.611   5.638  12.890 -0.5703 -2.6100 -1.5471
13722TIP3   OH262580   2.880   1.254   4.758 -0.7276 -0.1118 -0.3904
13722TIP3    H162581   2.901   1.283   4.669 -0.1409  0.1076 -0.1801
13722TIP3    H262582   2.925   1.170   4.767 -0.0066  0.3149  0.0279
13723TIP3   OH262583   3.020   1.622   3.222 -0.0629 -0.7137  0.3242
13723TIP3    H162584   2.932   1.631   3.185  0.2031  1.0597  0.0095
13723TIP3    H262585   3.005   1.614   3.316 -0.5421  2.3143  0.5949
13724TIP3   OH262586   0.714   5.098  15.764 -0.0300  0.1695  0.1283
13724TIP3    H162587   0.765   5.094  15.845 -1.4514  1.6749  1.1693
13724TIP3    H262588   0.722   5.189  15.735  0.0040 -0.2164 -1.1411
13725TIP3   OH262589   0.094   2.479   2.597 -0.2960 -0.0626  0.4837
13725TIP3    H162590   0.049   2.512   2.519  0.0216  1.0466  0.7529
13725TIP3    H262591   0.033   2.415   2.634 -0.0731 -1.2834 -1.1424
13726TIP3   OH262592   2.201   3.891   2.617 -0.2362  0.4530 -0.0478
13726TIP3    H162593   2.158   3.809   2.641  0.7608  0.2663  1.2367
13726TIP3    H262594   2.295   3.872   2.624  0.0484  1.3189 -1.1327
13727TIP3   OH262595   4.030   2.703  13.373 -0.0693  0.5509 -0.5688
13727TIP3    H162596   3.980   2.685  13.452  1.6899 -0.4507  0.3888
13727TIP3    H262597   4.088   2.627  13.364  1.5723  1.8186 -1.3321
13728TIP3   OH262598   5.840   3.523   3.828 -0.3396  0.2913 -0.6250
13728TIP3    H162599   5.834   3.568   3.744  0.2812  0.8405 -0.3855
13728TIP3    H262600   5.849   3.593   3.893 -1.3207 -0.1052 -0.0430
13729TIP3   OH262601   6.050   3.316  17.265 -0.0935 -0.1119 -0.3440
13729TIP3    H162602   6.058   3.294  17.358 -2.7745 -2.0568 -0.4473
13729TIP3    H262603   6.069   3.233  17.219 -0.2499  0.4494 -1.4505
13730TIP3   OH262604   1.587   2.958  14.080 -0.1493  0.3856  0.1420
13730TIP3    H162605   1.676   2.936  14.106 -0.3370 -1.0364 -0.3140
13730TIP3    H262606   1.597   3.029  14.017  0.3984  2.8047  2.7672
13731TIP3   OH262607   2.549   4.290  11.607 -0.0251 -0.1482 -0.0716
13731TIP3    H162608   2.487   4.282  11.680 -0.6868 -0.4640 -0.6481
13731TIP3    H262609   2.513   4.361  11.553  1.2794  1.1232  0.6742
13732TIP3   OH262610   3.821   6.370  13.013 -0.7188  0.2200 -0.0995
13732TIP3    H162611   3.873   6.296  12.982  0.0538  1.4077 -1.7638
13732TIP3    H262612   3.878   6.413  13.077 -0.7870 -0.0362  0.1412
13733TIP3   OH262613   2.871   1.121   4.145  0.0179 -0.2226  0.2947
13733TIP3    H162614   2.869   1.027   4.129 -3.2399 -0.2074 -0.0743
13733TIP3    H262615   2.882   1.129   4.240  1.9828 -0.8617  0.1629
13734TIP3   OH262616   2.408   4.210  13.701 -0.3965  0.1782  0.8384
13734TIP3    H162617   2.492   4.211  13.747 -0.2933 -1.1059  0.7044
13734TIP3    H262618   2.430   4.198  13.609 -0.6675  1.5634  0.5635
13735TIP3   OH262619   4.746   3.735  15.682  0.1032 -0.2856 -0.8150
13735TIP3    H162620   4.840   3.747  15.693  0.3243 -0.3110 -2.3846
13735TIP3    H262621   4.712   3.824  15.673 -0.0866 -0.2580  0.0848
13736TIP3   OH262622   0.083   0.542  12.719  0.4040 -0.4718 -0.0094
13736TIP3    H162623   0.066   0.582  12.634  1.4643  1.3395  0.5586
13736TIP3    H262624   0.019   0.582  12.778  1.0954 -0.0092  0.4526
13737TIP3   OH262625   1.769   4.550  14.316 -0.2797  0.2150 -0.9744
13737TIP3    H162626   1.844   4.490  14.319  0.0391  0.6195 -0.7770
13737TIP3    H262627   1.754   4.575  14.407  0.4040  1.4303 -1.1774
13738TIP3   OH262628   0.625   1.496  15.712 -0.4398  0.3099  0.1323
13738TIP3    H162629   0.579   1.516  15.794 -0.2030  0.3452  0.2574
13738TIP3    H262630   0.557   1.462  15.655 -0.5685  0.0794  0.4187
13739TIP3   OH262631   6.348   4.114  14.870  0.2519  0.0474 -0.0347
13739TIP3    H162632   6.269   4.155  14.834  1.0734  0.7132 -1.1925
13739TIP3    H262633   6.338   4.120  14.965 -0.5603  1.1912 -0.1705
13740TIP3   OH262634   4.561   6.697  13.667  0.1093 -0.5370 -0.7376
13740TIP3    H162635   4.483   6.663  13.711 -0.5730  1.6937 -0.1485
13740TIP3    H262636   4.633   6.681  13.728 -0.3828  0.0469  0.0058
13741TIP3   OH262637   5.254   1.759   1.495 -0.0765  0.1240 -0.0582
13741TIP3    H162638   5.238   1.774   1.588  0.7574 -0.2133  0.1488
13741TIP3    H262639   5.235   1.666   1.482 -1.1165  0.3749 -0.4362
13742TIP3   OH262640   2.312   3.559  14.871  0.0741  0.4734  0.9176
13742TIP3    H162641   2.398   3.530  14.901  0.3575  0.9481  0.5700
13742TIP3    H262642   2.308   3.652  14.895  0.3179  0.8772 -0.5210
13743TIP3   OH262643   5.938   5.213  17.375  0.3305  0.1195  0.2393
13743TIP3    H162644   5.941   5.303  17.341  1.0969  0.5277  1.3373
13743TIP3    H262645   5.844   5.194  17.382  0.1450  1.0627  0.5563
13744TIP3   OH262646   0.031   4.605  15.827  0.3933 -0.0424 -0.0426
13744TIP3    H162647   0.002   4.515  15.842 -2.9067  1.0055  0.5691
13744TIP3    H262648   0.044   4.611  15.733 -0.8970 -0.7810 -0.2845
13745TIP3   OH262649   0.737   4.795  14.573 -0.2364  0.2946 -0.3262
13745TIP3    H162650   0.809   4.817  14.513 -0.5770  0.8142 -0.5495
13745TIP3    H262651   0.685   4.731  14.526 -0.5414  0.7519 -0.6228
13746TIP3   OH262652   0.749   2.708   4.449 -0.0307 -0.0922  0.4445
13746TIP3    H162653   0.694   2.641   4.489  0.4849 -0.2606  0.8809
13746TIP3    H262654   0.838   2.682   4.470  0.3134 -0.6223 -1.4784
13747TIP3   OH262655   6.147   2.396   1.108 -0.4729  0.4664 -0.1842
13747TIP3    H162656   6.201   2.472   1.132 -0.8031  0.9857 -1.0489
13747TIP3    H262657   6.154   2.338   1.184  0.0524  1.2101  0.3606
13748TIP3   OH262658   1.798   2.229  17.299  0.2578  0.1314  0.4351
13748TIP3    H162659   1.779   2.135  17.300 -0.7514  0.3014 -0.4947
13748TIP3    H262660   1.720   2.270  17.336 -0.4340  0.7223 -1.5094
13749TIP3   OH262661   4.169   2.537   2.184 -0.2068 -0.6581 -0.2456
13749TIP3    H162662   4.149   2.447   2.159 -1.1703 -0.6586  0.4824
13749TIP3    H262663   4.248   2.530   2.237 -0.7222 -1.1791  0.4691
13750TIP3   OH262664   0.073   5.813   0.094 -0.3312  0.3800  0.2764
13750TIP3    H162665   0.133   5.765   0.037 -0.8646 -2.2320  1.7740
13750TIP3    H262666  -0.014   5.791   0.062 -0.5777  1.0265  0.4936
13751TIP3   OH262667   0.816   3.916   3.207  0.0546 -0.3899 -0.2168
13751TIP3    H162668   0.873   3.984   3.243  0.3745 -1.1798  0.8286
13751TIP3    H262669   0.730   3.957   3.200 -0.2389 -0.4002  2.2857
13752TIP3   OH262670   1.685   0.003  14.925 -0.2101  0.0438  0.2220
13752TIP3    H162671   1.780  -0.008  14.930 -0.1714 -0.6106 -1.2349
13752TIP3    H262672   1.652  -0.032  15.008  0.6769 -1.9944 -0.2143
13753TIP3   OH262673   4.213   5.362   3.818  0.5783  0.0402 -0.5002
13753TIP3    H162674   4.239   5.436   3.872 -0.3684 -0.7589  1.1247
13753TIP3    H262675   4.120   5.349   3.837  0.7894 -1.7568 -0.4763
13754TIP3   OH262676   4.005   4.956  11.152 -0.4205  0.3074 -0.2269
13754TIP3    H162677   3.983   4.908  11.073  0.2039  0.3380 -0.4296
13754TIP3    H262678   4.097   4.981  11.140 -0.6395  1.2929 -0.0014
13755TIP3   OH262679   3.673   1.912   3.633 -0.1693 -0.4668 -0.0039
13755TIP3    H162680   3.705   1.938   3.547  1.3926 -0.5263  0.5400
13755TIP3    H262681   3.727   1.837   3.658 -1.2491 -1.0766  0.6349
13756TIP3   OH262682   4.696   4.237   2.594 -0.0120 -0.0236  0.0121
13756TIP3    H162683   4.683   4.265   2.685  1.1790  1.8913 -0.3468
13756TIP3    H262684   4.776   4.185   2.596 -0.4384 -0.6872  0.1672
13757TIP3   OH262685   4.749   1.756  15.166 -0.1130 -0.3706 -0.3451
13757TIP3    H162686   4.710   1.823  15.221 -1.6293 -0.8922 -0.7366
13757TIP3    H262687   4.751   1.795  15.078  1.3187  0.0653 -0.1421
13758TIP3   OH262688   1.090   5.577   5.889 -0.2818  0.1584 -0.0836
13758TIP3    H162689   1.039   5.588   5.809 -0.9939  2.0640  0.5886
13758TIP3    H262690   1.080   5.484   5.910 -1.9548  0.0882 -0.9743
13759TIP3   OH262691   0.699   3.531   4.511 -0.1311 -0.3690 -0.6686
13759TIP3    H162692   0.783   3.509   4.552 -0.2942 -1.1620 -0.7419
13759TIP3    H262693   0.691   3.625   4.522  0.0709 -0.4841  0.6607
13760TIP3   OH262694   1.401   0.588   5.689  0.0529  0.2178 -0.2815
13760TIP3    H162695   1.436   0.527   5.754  0.0317  0.2075 -0.2801
13760TIP3    H262696   1.431   0.554   5.605  0.9939  0.8131 -0.2086
13761TIP3   OH262697   4.256   1.178   6.238  0.6559 -0.5033 -0.4295
13761TIP3    H162698   4.211   1.136   6.311  0.0503  1.5932  0.4902
13761TIP3    H262699   4.316   1.240   6.279  0.9348  0.1161 -1.7150
13762TIP3   OH262700   3.149   6.171   1.837  0.2000  0.6101  0.2191
13762TIP3    H162701   3.190   6.235   1.895  0.7276  2.0118 -1.6092
13762TIP3    H262702   3.055   6.188   1.845  0.1797  0.0341  1.4544
13763TIP3   OH262703   4.209   2.201   5.403 -0.2685  0.2677  0.1688
13763TIP3    H162704   4.223   2.257   5.479  0.9496  0.2609 -0.0244
13763TIP3    H262705   4.284   2.220   5.346 -0.6120 -0.4961 -0.5477
13764TIP3   OH262706   0.221   0.015  15.463  0.1145  0.0576  0.1205
13764TIP3    H162707   0.253  -0.060  15.413 -0.2249  1.0238 -1.6160
13764TIP3    H262708   0.221  -0.015  15.554  1.8920 -1.3632 -0.2959
13765TIP3   OH262709   3.393   1.256  16.232 -0.1144  0.3988 -0.1585
13765TIP3    H162710   3.392   1.312  16.310 -0.0528 -0.1996  0.2814
13765TIP3    H262711   3.373   1.169  16.265 -0.9392  0.2835 -0.9451
13766TIP3   OH262712   5.939   1.937  16.518 -0.4002  1.0215 -0.3940
13766TIP3    H162713   5.968   1.859  16.565  0.6437  1.2247 -0.6684
13766TIP3    H262714   5.876   1.979  16.576  0.4486  0.9746  0.5783
13767TIP3   OH262715   6.176   4.711  14.013  0.4341  0.1968  0.6342
13767TIP3    H162716   6.231   4.654  14.066  1.1639  1.2072  1.0105
13767TIP3    H262717   6.211   4.799  14.029 -0.8188  0.7875  0.2972
13768TIP3   OH262718   0.310   2.332   1.888  0.1664 -0.3475 -0.1437
13768TIP3    H162719   0.345   2.245   1.906 -1.9843 -1.2597 -0.0819
13768TIP3    H262720   0.349   2.389   1.954  2.1973 -1.0874 -0.6579
13769TIP3   OH262721   5.743   3.901  10.679 -0.2187 -0.2178  0.6663
13769TIP3    H162722   5.715   3.971  10.737  0.6104  1.2955 -0.6824
13769TIP3    H262723   5.742   3.940  10.592 -0.4294 -2.1166 -0.2297
13770TIP3   OH262724   2.223   2.320  16.225 -0.2453  0.8189 -0.1727
13770TIP3    H162725   2.316   2.339  16.211  0.2777 -1.5530 -0.3278
13770TIP3    H262726   2.191   2.293  16.139 -0.2848 -1.2129  0.4239
13771TIP3   OH262727   6.027   2.575  14.521 -0.0994  0.2360  0.1824
13771TIP3    H162728   6.038   2.610  14.432 -1.8375 -0.3707 -0.3044
13771TIP3    H262729   6.023   2.480  14.509  0.0734  0.1224  0.9719
13772TIP3   OH262730   0.031   6.005  13.259 -0.4110 -0.0382  0.6427
13772TIP3    H162731   0.120   6.021  13.290  0.3713 -0.5176 -1.1583
13772TIP3    H262732   0.021   5.910  13.264 -0.9602  0.0522  1.2014
13773TIP3   OH262733   0.659   0.522   5.050  0.3154 -0.3164 -0.3152
13773TIP3    H162734   0.579   0.526   4.998  0.5040 -0.3651 -0.6105
13773TIP3    H262735   0.729   0.540   4.988  0.4036  1.6745  0.2993
13774TIP3   OH262736   2.227   3.347  14.716 -0.2569 -0.5377 -0.6013
13774TIP3    H162737   2.304   3.295  14.693  0.2473  0.0656 -0.3153
13774TIP3    H262738   2.261   3.416  14.772 -0.8242  0.4438 -1.4405
13775TIP3   OH262739   3.788   4.885   0.171  0.1538 -0.1317 -0.2108
13775TIP3    H162740   3.771   4.974   0.140 -0.3055 -0.3062 -0.4640
13775TIP3    H262741   3.741   4.879   0.253 -0.6334 -0.4579 -0.6762
13776TIP3   OH262742   2.724   3.876   1.852  0.3237 -0.2122  0.0949
13776TIP3    H162743   2.771   3.942   1.801  0.6900 -0.6696 -0.1547
13776TIP3    H262744   2.663   3.928   1.905  1.3297  0.4213  0.6793
13777TIP3   OH262745   2.780   4.119  14.037 -0.0885  0.2620 -0.1629
13777TIP3    H162746   2.698   4.116  13.989  0.1323 -0.0011 -0.5293
13777TIP3    H262747   2.845   4.147  13.973  0.3852 -1.0553 -0.2877
13778TIP3   OH262748   1.953   5.523  16.133  0.6749 -0.0437 -0.7311
13778TIP3    H162749   1.925   5.445  16.180  1.7820  0.2679  0.5040
13778TIP3    H262750   1.872   5.570  16.113  0.0209 -1.3680 -1.2793
13779TIP3   OH262751   1.049   2.118   3.135 -0.6414  0.2671 -0.1412
13779TIP3    H162752   1.040   2.192   3.195 -1.0562  0.5386 -0.5337
13779TIP3    H262753   1.139   2.124   3.104 -0.0108 -0.5985  1.3773
13780TIP3   OH262754   3.719   1.090   2.067  0.2738  0.1863 -0.3229
13780TIP3    H162755   3.728   1.181   2.094  1.6663  0.4255 -1.4543
13780TIP3    H262756   3.809   1.061   2.049  0.0739 -1.9725  1.7050
13781TIP3   OH262757   0.729   3.617  12.662  0.0923 -0.0517  0.5626
13781TIP3    H162758   0.696   3.536  12.700  0.2626  0.2199  1.3003
13781TIP3    H262759   0.688   3.686  12.714  2.9717  0.3198  2.5996
13782TIP3   OH262760   0.918   3.326  12.851 -0.3989 -0.2249 -0.2233
13782TIP3    H162761   0.861   3.379  12.907  1.9072 -0.1473  2.2481
13782TIP3    H262762   0.881   3.337  12.763 -2.3465  2.2583  0.7528
13783TIP3   OH262763   1.954   4.905   0.727 -0.9206 -0.0911 -0.0420
13783TIP3    H162764   1.972   4.899   0.821  0.5006  1.8359 -0.1314
13783TIP3    H262765   2.040   4.898   0.686 -1.3644  0.5431 -1.1149
13784TIP3   OH262766   0.646   0.342   0.018 -0.9606  0.6510  0.2338
13784TIP3    H162767   0.558   0.349   0.055 -1.3154 -2.0454  0.0792
13784TIP3    H262768   0.632   0.323  -0.074 -0.1662  0.9689  0.0363
13785TIP3   OH262769   4.982   1.339  12.882 -0.1281 -0.8008 -0.5979
13785TIP3    H162770   4.893   1.306  12.892  0.1914 -1.0385  2.2991
13785TIP3    H262771   4.974   1.415  12.825 -2.1323 -0.9678 -0.6024
13786TIP3   OH262772   1.824   0.564  15.550 -0.4676  0.2054  0.5031
13786TIP3    H162773   1.772   0.592  15.475  0.0755  2.4072  0.8616
13786TIP3    H262774   1.915   0.565  15.519 -0.4269 -1.5194  0.4765
13787TIP3   OH262775   1.511   2.046  13.544 -0.0640 -0.0894  0.2569
13787TIP3    H162776   1.420   2.050  13.574 -0.3739  3.9166 -0.6482
13787TIP3    H262777   1.562   2.038  13.624 -1.1317 -1.5241  0.8443
13788TIP3   OH262778   2.022   4.812  12.791  0.4177 -0.2398  0.1170
13788TIP3    H162779   1.990   4.822  12.881  1.8322 -1.1974  0.7528
13788TIP3    H262780   2.115   4.791  12.800  0.2833 -1.7333 -1.5137
13789TIP3   OH262781   6.604   5.424   6.646 -0.5819 -0.5329 -0.5659
13789TIP3    H162782   6.547   5.426   6.722  0.6342  0.4497  0.3604
13789TIP3    H262783   6.684   5.381   6.676  0.3180  0.7958 -0.9434
13790TIP3   OH262784   3.657   2.529   0.270  0.2766 -0.1809 -0.0385
13790TIP3    H162785   3.565   2.551   0.285  0.7536  1.1400  1.1959
13790TIP3    H262786   3.670   2.542   0.176 -0.2842  1.8038  0.1114
13791TIP3   OH262787   4.502   4.314   5.292 -0.0789  0.5349  0.4907
13791TIP3    H162788   4.504   4.406   5.318 -2.5253  0.7843  0.0600
13791TIP3    H262789   4.526   4.315   5.199  1.0088  0.5826  0.7635
13792TIP3   OH262790   5.843   6.440  16.890  0.1242 -0.2200 -0.4207
13792TIP3    H162791   5.930   6.461  16.924  0.2336  1.0726 -1.4248
13792TIP3    H262792   5.860   6.387  16.812 -0.1076 -2.5526  1.0161
13793TIP3   OH262793   5.452   4.771   5.260 -0.2025 -0.2183  0.0408
13793TIP3    H162794   5.371   4.756   5.309 -1.5320  0.2626 -1.8844
13793TIP3    H262795   5.431   4.842   5.199  2.0276  0.7004  0.2321
13794TIP3   OH262796   1.805   3.577   5.210  0.0364  0.5800  0.1986
13794TIP3    H162797   1.867   3.572   5.137 -0.1905  1.5167 -0.0823
13794TIP3    H262798   1.848   3.532   5.282  0.7235  0.5722 -0.2110
13795TIP3   OH262799   5.368   6.494  17.283  0.3958  0.0146 -0.0643
13795TIP3    H162800   5.388   6.451  17.200  0.3325 -1.8543  0.8373
13795TIP3    H262801   5.387   6.587  17.267  2.7766 -0.6213 -1.4116
13796TIP3   OH262802   1.313   3.988  11.745 -0.4480 -0.1756  0.5337
13796TIP3    H162803   1.271   3.948  11.821  1.5755 -0.2701  1.6711
13796TIP3    H262804   1.340   4.075  11.776  0.9283 -0.4414  0.1616
13797TIP3   OH262805   6.239   1.578   1.201 -0.2277 -0.4883  0.8454
13797TIP3    H162806   6.195   1.535   1.128 -0.8421 -0.6969  1.3364
13797TIP3    H262807   6.311   1.627   1.160 -1.2354  0.3014 -0.0270
13798TIP3   OH262808   0.579   0.234   3.768  1.1319 -0.3585 -0.1751
13798TIP3    H162809   0.490   0.209   3.745  1.8742 -3.6585  0.1009
13798TIP3    H262810   0.609   0.287   3.694 -0.9875  0.7791 -0.2823
13799TIP3   OH262811   4.653   0.407   2.779 -0.2682  0.0216 -0.3793
13799TIP3    H162812   4.678   0.463   2.706 -0.3778  0.7709  0.1467
13799TIP3    H262813   4.647   0.319   2.742  1.7707  0.0312 -0.8371
13800TIP3   OH262814   5.542   5.200   1.351  0.0136  0.7143 -0.3542
13800TIP3    H162815   5.466   5.143   1.365  0.9509 -0.0771  2.2042
13800TIP3    H262816   5.530   5.272   1.412  1.2405  0.6058  0.0579
13801TIP3   OH262817   1.673   5.323  13.947  0.5589  0.3816 -0.0863
13801TIP3    H162818   1.589   5.277  13.940  0.7733  0.0950 -0.8751
13801TIP3    H262819   1.650   5.408  13.984  0.0388 -0.0278  0.5479
13802TIP3   OH262820   3.774   5.927   1.134  0.6490  0.0710 -0.5481
13802TIP3    H162821   3.703   5.886   1.084  0.0016 -0.7763  0.9949
13802TIP3    H262822   3.762   6.021   1.119  0.5190 -0.1440 -2.0051
13803TIP3   OH262823   0.763   3.076   2.911  0.9696  0.1203 -0.8982
13803TIP3    H162824   0.811   3.011   2.963  0.9608  1.1790  0.4826
13803TIP3    H262825   0.696   3.025   2.866  1.1271 -0.8709 -0.0544
13804TIP3   OH262826   3.482   3.027  12.819  0.2563  0.3822 -0.2913
13804TIP3    H162827   3.467   3.101  12.761  1.4636  0.6605 -0.2750
13804TIP3    H262828   3.576   3.029  12.838  0.1776 -0.6822  0.3463
13805TIP3   OH262829   3.707   3.779   3.052  0.1015  0.5738 -0.4781
13805TIP3    H162830   3.686   3.855   2.998 -3.1953  1.6588  2.0253
13805TIP3    H262831   3.682   3.703   2.998  0.2421  1.4054 -1.7478
13806TIP3   OH262832   1.043   0.809  13.474  0.1659  0.3341  0.4146
13806TIP3    H162833   1.128   0.848  13.493  0.1288 -0.4911  2.6030
13806TIP3    H262834   1.006   0.864  13.405  2.5080  0.6097 -0.7397
13807TIP3   OH262835   2.478   2.272   6.604  0.3269  0.0967  0.0822
13807TIP3    H162836   2.542   2.233   6.544  0.9858 -0.4178  1.0773
13807TIP3    H262837   2.398   2.223   6.590  0.3137  0.3556 -0.7702
13808TIP3   OH262838   5.324   5.455  13.834  0.5143  0.2945 -0.2356
13808TIP3    H162839   5.308   5.523  13.768 -0.4571 -0.5102 -0.8547
13808TIP3    H262840   5.362   5.382  13.786  2.7386  0.7974  0.6300
13809TIP3   OH262841   1.777   5.773   6.032  0.0711 -0.0075 -0.4747
13809TIP3    H162842   1.754   5.778   6.125  1.5116 -1.5262  0.0097
13809TIP3    H262843   1.829   5.851   6.015 -0.7697  0.6303 -0.2129
13810TIP3   OH262844   1.141   4.304  11.352  0.0507  0.0343 -0.4356
13810TIP3    H162845   1.123   4.307  11.258  0.8566  0.1649 -0.5927
13810TIP3    H262846   1.055   4.291  11.393 -0.7093  2.6868 -1.0138
13811TIP3   OH262847   4.216   6.386  16.430  0.2575  0.0255 -0.2539
13811TIP3    H162848   4.215   6.471  16.474 -0.6574 -0.1495  0.0745
13811TIP3    H262849   4.141   6.338  16.466  1.3275 -1.3028  0.2884
13812TIP3   OH262850   1.332   4.592   6.019  0.7168 -0.3189 -0.0214
13812TIP3    H162851   1.355   4.532   6.090 -1.8099 -1.0179  0.2811
13812TIP3    H262852   1.283   4.662   6.062  1.2849  0.5610 -0.7659
13813TIP3   OH262853   0.822   4.776   3.684  0.1741  0.9236  0.1840
13813TIP3    H162854   0.889   4.723   3.640 -0.3479 -0.0010  0.4640
13813TIP3    H262855   0.837   4.762   3.777 -2.1311 -1.6761  0.3073
13814TIP3   OH262856   1.184   1.352  12.930 -0.3343  0.5685 -0.1362
13814TIP3    H162857   1.261   1.371  12.983 -0.4916  1.1521 -0.1182
13814TIP3    H262858   1.115   1.331  12.993  0.4745 -2.7767 -0.1442
13815TIP3   OH262859   2.413   4.803   5.431 -0.2484  0.3163  0.7656
13815TIP3    H162860   2.386   4.775   5.519 -0.2496 -0.0256  0.6591
13815TIP3    H262861   2.459   4.885   5.445  0.4403 -0.1300  1.1822
13816TIP3   OH262862   3.805   3.622  13.675  0.1285  0.2383  0.8925
13816TIP3    H162863   3.863   3.679  13.725  0.6559 -1.5486  2.4309
13816TIP3    H262864   3.836   3.629  13.585  1.3596  0.9574  1.3552
13817TIP3   OH262865   3.000   2.640  11.400 -0.1700  0.0624  0.3929
13817TIP3    H162866   2.906   2.655  11.389 -0.0281  1.5175  0.8746
13817TIP3    H262867   3.025   2.591  11.321 -1.1361  0.6151 -0.2929
13818TIP3   OH262868   3.705   4.505  16.631 -0.0455 -0.2145 -0.3678
13818TIP3    H162869   3.642   4.495  16.560  0.5419 -0.2229 -0.8861
13818TIP3    H262870   3.653   4.492  16.711 -0.8196  0.3520 -0.7692
13819TIP3   OH262871   1.792   6.096  10.980 -0.1478  0.3439 -0.3461
13819TIP3    H162872   1.753   6.164  10.924 -0.8509  1.2691  1.1868
13819TIP3    H262873   1.885   6.118  10.983 -0.0411  0.0797 -1.4053
13820TIP3   OH262874   2.037   1.331  10.818  0.0478 -0.0452 -0.0082
13820TIP3    H162875   2.081   1.373  10.892  0.7085 -0.5802 -0.0887
13820TIP3    H262876   1.979   1.399  10.783  0.8347  0.6833  0.0797
13821TIP3   OH262877   2.151   0.961   1.098  0.0209 -0.1312 -0.0046
13821TIP3    H162878   2.090   0.922   1.161 -1.6193  0.7849 -0.9539
13821TIP3    H262879   2.094   1.001   1.032  1.6510  1.6509 -0.4089
13822TIP3   OH262880   1.486   2.175   4.697 -0.1444  0.1038 -0.4726
13822TIP3    H162881   1.578   2.163   4.721  0.0767  0.7803 -0.9405
13822TIP3    H262882   1.450   2.087   4.692  0.0640 -0.1217  1.2637
13823TIP3   OH262883   3.184   1.701   2.709  1.0153  0.0729 -0.4680
13823TIP3    H162884   3.221   1.622   2.671  0.7507 -0.3188  0.0622
13823TIP3    H262885   3.104   1.671   2.754  0.6688  0.7126 -0.6428
13824TIP3   OH262886   1.430   1.441   3.334  0.3218  0.2964 -0.1456
13824TIP3    H162887   1.346   1.414   3.297  0.3612 -0.0188 -0.0048
13824TIP3    H262888   1.466   1.500   3.268  0.7172 -0.8251 -0.9677
13825TIP3   OH262889   0.640   6.587  14.390 -0.2077 -1.0069  0.5778
13825TIP3    H162890   0.716   6.547  14.432  1.4468  1.4734  0.1829
13825TIP3    H262891   0.607   6.520  14.331  1.2068 -2.4225  1.3160
13826TIP3   OH262892   5.884   5.064  16.545 -0.1908 -0.0092 -0.4365
13826TIP3    H162893   5.941   5.050  16.621  1.2447  2.8938 -0.8691
13826TIP3    H262894   5.925   5.011  16.475  1.1208  0.8048 -0.3254
13827TIP3   OH262895   4.943   3.283   3.650  0.2866  0.2784  0.1205
13827TIP3    H162896   4.849   3.274   3.636  0.4046  0.3721 -0.7999
13827TIP3    H262897   4.966   3.365   3.606  0.5004  1.2224  1.9075
13828TIP3   OH262898   4.222   6.089   0.243  0.3855  0.3412  0.1903
13828TIP3    H162899   4.302   6.104   0.192 -0.3232  0.5947 -0.8852
13828TIP3    H262900   4.171   6.027   0.191 -0.3829  0.6440  0.5603
13829TIP3   OH262901   5.421   4.408   2.387 -0.6470 -0.0908 -0.1597
13829TIP3    H162902   5.423   4.312   2.388  1.5421 -0.1134  0.5965
13829TIP3    H262903   5.444   4.431   2.297 -0.1476 -0.3079 -0.0950
13830TIP3   OH262904   2.024   0.566  13.469 -0.4868 -0.1432 -0.1558
13830TIP3    H162905   1.980   0.582  13.386 -1.3713 -0.7126  0.1892
13830TIP3    H262906   1.965   0.603  13.535  0.0419 -0.0027  0.2493
13831TIP3   OH262907   5.275   1.589   4.162 -0.1257  0.1688  0.3998
13831TIP3    H162908   5.328   1.652   4.210  2.5997 -1.0098 -0.8340
13831TIP3    H262909   5.238   1.531   4.229  1.9013 -0.2157  1.2436
13832TIP3   OH262910   6.253   4.594   3.516  0.2438 -0.3594  0.0899
13832TIP3    H162911   6.294   4.525   3.569 -0.7146  0.6921  2.3219
13832TIP3    H262912   6.252   4.558   3.428  1.8062 -2.2721  0.7723
13833TIP3   OH262913   2.064   0.933  12.448  0.0673  0.4593  0.5651
13833TIP3    H162914   2.007   0.957  12.375  1.3264 -3.1303 -1.8413
13833TIP3    H262915   2.074   1.015  12.498 -1.2271  3.0473 -2.9899
13834TIP3   OH262916   1.342   5.192  15.169 -0.3995  0.0499 -0.4278
13834TIP3    H162917   1.386   5.248  15.105 -0.3367  2.2281  1.3959
13834TIP3    H262918   1.251   5.223  15.169 -0.9815 -1.5465 -1.1124
13835TIP3   OH262919   0.048   2.791  11.135 -0.0165 -0.2610  0.0313
13835TIP3    H162920   0.079   2.865  11.083 -0.2283 -0.2646 -0.1012
13835TIP3    H262921   0.031   2.722  11.071 -0.2107 -0.2887  0.1127
13836TIP3   OH262922   5.161   5.644   1.109  0.0240  0.0509 -0.4701
13836TIP3    H162923   5.241   5.606   1.145  0.5372  0.6328 -0.9699
13836TIP3    H262924   5.121   5.573   1.059 -0.7320 -0.7947  1.2247
13837TIP3   OH262925   5.218   5.704  11.382  0.5822 -0.2253 -0.0407
13837TIP3    H162926   5.224   5.610  11.396  0.9318 -0.4001 -1.2519
13837TIP3    H262927   5.205   5.713  11.288 -0.7206  0.8929  0.2178
13838TIP3   OH262928   4.105   1.923   0.343 -0.2279  0.0740  0.1424
13838TIP3    H162929   4.099   1.830   0.366 -0.3002  0.1354  0.3818
13838TIP3    H262930   4.142   1.964   0.421 -2.2943  0.5738  0.9144
13839TIP3   OH262931   1.931   1.712  16.809 -0.2065  0.2679 -0.6590
13839TIP3    H162932   1.939   1.649  16.737 -2.4495 -1.5647  0.5420
13839TIP3    H262933   2.009   1.698  16.862  0.5343  0.2995 -1.6937
13840TIP3   OH262934   3.113   6.670  14.417 -0.4603  0.7221 -0.3372
13840TIP3    H162935   3.090   6.736  14.483  2.1188  0.0307  1.4030
13840TIP3    H262936   3.132   6.591  14.468  2.9967  0.5404 -1.6747
13841TIP3   OH262937   6.746   0.744  13.212  0.0341 -0.0134  1.1754
13841TIP3    H162938   6.676   0.694  13.172 -0.1961 -0.7598  2.4529
13841TIP3    H262939   6.812   0.679  13.235  0.7862  0.5737  0.7564
13842TIP3   OH262940   5.400   1.197  11.915  0.2813  0.4455  0.0604
13842TIP3    H162941   5.491   1.188  11.885 -0.1224 -0.5333 -0.9503
13842TIP3    H262942   5.348   1.178  11.838 -0.8100 -1.7473  1.2448
13843TIP3   OH262943   3.355   5.139   1.453 -0.1305  0.1184 -0.1662
13843TIP3    H162944   3.386   5.133   1.362 -0.0319 -1.4698 -0.0666
13843TIP3    H262945   3.290   5.069   1.460 -1.9272  1.7701  0.3413
13844TIP3   OH262946   6.239   2.375   1.945  0.1981 -0.1009  0.1877
13844TIP3    H162947   6.210   2.287   1.967  3.7848 -1.1140  1.6060
13844TIP3    H262948   6.330   2.364   1.918  1.1218  3.2288  1.4524
13845TIP3   OH262949   6.474   4.508  14.386  0.0076 -0.5636 -0.6299
13845TIP3    H162950   6.479   4.427  14.336 -2.8167 -0.7155 -0.8211
13845TIP3    H262951   6.413   4.489  14.457  1.6796  0.5301  1.2057
13846TIP3   OH262952   1.692   2.479   6.045 -0.0758  0.3303 -0.2776
13846TIP3    H162953   1.665   2.448   5.959  1.3193 -0.0435 -0.5994
13846TIP3    H262954   1.623   2.539   6.072 -1.5351 -1.0346 -0.7875
13847TIP3   OH262955   2.615   6.554   5.483 -0.2675  0.6025  0.0312
13847TIP3    H162956   2.637   6.646   5.494  3.0466 -0.1261  0.5393
13847TIP3    H262957   2.678   6.521   5.419 -0.1350 -1.6895  1.2171
13848TIP3   OH262958   1.436   5.238  12.924 -0.1683  0.2206 -0.3389
13848TIP3    H162959   1.463   5.147  12.936 -0.7269  0.0961  0.0008
13848TIP3    H262960   1.359   5.248  12.979 -0.0468  0.9344 -0.2837
13849TIP3   OH262961   1.471   1.840   1.424 -0.0676 -0.0118 -0.0263
13849TIP3    H162962   1.408   1.864   1.492  0.4835  0.0673  0.4660
13849TIP3    H262963   1.500   1.924   1.388 -0.1451 -0.0429 -0.1600
13850TIP3   OH262964   3.362   3.595   5.519  0.4659 -0.1416  0.4040
13850TIP3    H162965   3.382   3.582   5.611 -0.2791 -3.2103  0.2274
13850TIP3    H262966   3.398   3.518   5.475 -1.5613 -0.1389 -1.4480
13851TIP3   OH262967   6.551   4.498  15.204 -0.1633 -0.5963 -0.4994
13851TIP3    H162968   6.529   4.582  15.163 -1.8131 -1.2395 -1.0082
13851TIP3    H262969   6.556   4.518  15.297  3.9683  0.9609 -0.8393
13852TIP3   OH262970   3.657   1.540   5.087  0.2419 -0.3014  0.1888
13852TIP3    H162971   3.654   1.612   5.025  2.8048 -0.5218 -0.2650
13852TIP3    H262972   3.686   1.581   5.169 -0.7113 -0.4388  0.6124
13853TIP3   OH262973   4.209   3.629   1.584  0.6800 -0.0513 -0.4104
13853TIP3    H162974   4.249   3.631   1.671  0.6171 -0.6391 -0.3634
13853TIP3    H262975   4.251   3.556   1.540  1.6540  1.0264 -1.3514
13854TIP3   OH262976   3.922   2.128  13.639  0.5710 -0.0863 -0.0092
13854TIP3    H162977   3.835   2.167  13.647  1.4859  1.7381  2.5266
13854TIP3    H262978   3.928   2.068  13.714  1.0086 -1.2986 -0.9873
13855TIP3   OH262979   3.192   4.523   0.245 -0.0937  0.4424  0.3837
13855TIP3    H162980   3.131   4.593   0.269 -0.5652 -0.0404  0.6211
13855TIP3    H262981   3.275   4.550   0.284 -0.1211  1.1558 -0.0257
13856TIP3   OH262982   5.848   4.648  13.524  0.5583  0.2876  0.2180
13856TIP3    H162983   5.932   4.635  13.480  0.3876 -0.6100  0.1296
13856TIP3    H262984   5.861   4.612  13.612  0.4311  0.6655  0.3954
13857TIP3   OH262985   2.087   0.665  11.661 -0.1268  0.3675  0.0690
13857TIP3    H162986   2.053   0.736  11.606 -0.0384  1.0333  0.8556
13857TIP3    H262987   2.008   0.621  11.693 -0.2251  0.8774  0.5546
13858TIP3   OH262988   3.923   2.295  14.168 -0.8846  0.3752  0.5426
13858TIP3    H162989   3.943   2.255  14.252 -1.8586 -1.8733 -0.2072
13858TIP3    H262990   3.854   2.239  14.131  0.5870  0.3413 -2.4112
13859TIP3   OH262991   1.902   5.604   4.503  0.8919  0.3497  0.0528
13859TIP3    H162992   1.861   5.579   4.586 -1.4558  0.2373 -1.0507
13859TIP3    H262993   1.990   5.566   4.506  0.0868 -1.5383  1.5798
13860TIP3   OH262994   5.328   3.363  17.059 -0.2508  0.5919  0.2639
13860TIP3    H162995   5.368   3.376  16.973  0.7855  0.5493  0.7207
13860TIP3    H262996   5.285   3.278  17.053 -0.5143  0.7623 -0.3316
13861TIP3   OH262997   2.832   1.193   0.926 -0.4244 -0.1034 -0.2475
13861TIP3    H162998   2.789   1.126   0.979 -2.8699  3.6139  2.9996
13861TIP3    H262999   2.925   1.186   0.949 -0.7804 -1.5985  0.8648
13862TIP3   OH263000   1.595   3.409  17.254 -0.3617  0.1728  0.0676
13862TIP3    H163001   1.507   3.444  17.235 -0.3662  0.2366  0.2097
13862TIP3    H263002   1.607   3.340  17.188 -0.2243  0.6496 -0.4164
13863TIP3   OH263003   2.099   6.637   1.203  0.0709 -0.1798  0.3240
13863TIP3    H163004   2.018   6.642   1.253  0.2762  0.5981  0.6001
13863TIP3    H263005   2.071   6.631   1.112 -0.2984 -0.6513  0.4653
13864TIP3   OH263006   3.868   3.804  16.442  0.1522  0.0039  0.2091
13864TIP3    H163007   3.841   3.879  16.495 -0.8936  0.3217 -0.7546
13864TIP3    H263008   3.941   3.836  16.389 -1.7002  1.0655 -1.8510
13865TIP3   OH263009   2.075   5.613  16.546  0.2651  0.7488 -0.1846
13865TIP3    H163010   1.986   5.623  16.579 -0.1484  0.7467 -1.2665
13865TIP3    H263011   2.084   5.519  16.530  0.9384  0.5534  1.1729
13866TIP3   OH263012   3.096   5.280   3.598  0.3444  0.2795 -0.4333
13866TIP3    H163013   3.131   5.232   3.522 -3.2259 -1.0619 -1.4061
13866TIP3    H263014   3.087   5.370   3.567 -1.0705 -0.2535 -1.6547
13867TIP3   OH263015   4.618   2.200   1.064 -0.2007  0.2294  0.3385
13867TIP3    H163016   4.638   2.272   1.123 -0.1460  0.5381 -0.0543
13867TIP3    H263017   4.601   2.241   0.979 -2.3024 -0.0328  0.5850
13868TIP3   OH263018   2.544   1.144   2.177 -0.2214 -0.5039  0.6552
13868TIP3    H163019   2.584   1.057   2.185  0.0487 -0.3959  0.5187
13868TIP3    H263020   2.515   1.165   2.266 -1.0439 -1.0818  0.5325
13869TIP3   OH263021   5.201   5.468   0.600 -0.4531 -0.4570  0.1054
13869TIP3    H163022   5.287   5.458   0.640 -0.3558  0.0806  0.0433
13869TIP3    H263023   5.143   5.491   0.672  0.3192  3.8774 -0.3655
13870TIP3   OH263024   2.581   5.818   1.152 -0.4110 -0.3470 -0.4751
13870TIP3    H163025   2.594   5.907   1.186 -1.5852 -0.0991 -0.6020
13870TIP3    H263026   2.520   5.778   1.214 -0.8061 -0.6527 -1.0502
13871TIP3   OH263027   5.679   3.090   4.740 -0.0014 -0.5345  0.1592
13871TIP3    H163028   5.686   3.158   4.673  1.3400  1.1100  1.8501
13871TIP3    H263029   5.761   3.096   4.789 -0.5120 -2.3406  1.3448
13872TIP3   OH263030   0.026   0.536  12.183  0.2337 -0.2539  0.0026
13872TIP3    H163031  -0.002   0.573  12.267 -1.8825 -2.3293  0.2929
13872TIP3    H263032  -0.038   0.569  12.120  2.7245  2.6690 -1.3098
13873TIP3   OH263033   4.112   0.795  15.684 -0.4070 -0.2559 -0.3267
13873TIP3    H163034   4.020   0.784  15.708 -0.5224  0.7935 -0.2307
13873TIP3    H263035   4.110   0.831  15.595 -0.0766 -0.6627 -0.5031
13874TIP3   OH263036   6.095   2.466   2.860 -0.2732 -0.4983  0.2262
13874TIP3    H163037   6.050   2.513   2.930 -0.0122 -0.8355  0.6201
13874TIP3    H263038   6.136   2.534   2.807 -1.5732 -0.1388 -0.3837
13875TIP3   OH263039   0.757   5.752   4.803  0.0566 -0.4169  0.5899
13875TIP3    H163040   0.781   5.769   4.711 -0.9971  1.5051  0.6316
13875TIP3    H263041   0.762   5.657   4.811  0.4853 -0.6092 -1.3784
13876TIP3   OH263042   1.057   3.737   0.238 -0.1275  0.5167 -0.6292
13876TIP3    H163043   1.062   3.692   0.154 -0.6664 -0.4094 -0.1855
13876TIP3    H263044   1.135   3.793   0.240  0.3465 -0.0933 -1.3683
13877TIP3   OH263045   4.978   6.678  13.105  0.0552 -0.0032  0.1404
13877TIP3    H163046   4.976   6.683  13.009  1.3184 -1.3188 -0.0024
13877TIP3    H263047   5.028   6.755  13.132  0.8129 -0.2950 -0.3792
13878TIP3   OH263048   0.302   5.725   6.821  0.0701  0.3460 -0.1199
13878TIP3    H163049   0.209   5.742   6.833 -0.3774 -0.9782 -1.4930
13878TIP3    H263050   0.311   5.702   6.729  1.6849 -0.0730  0.1095
13879TIP3   OH263051   6.161   0.125  13.524 -0.2399  0.2131  0.3157
13879TIP3    H163052   6.128   0.121  13.614 -1.5921  0.6781 -0.1337
13879TIP3    H263053   6.241   0.176  13.531 -0.4833  0.4959  1.2234
13880TIP3   OH263054   4.465   5.875   3.591 -0.5868 -0.0208 -0.2142
13880TIP3    H163055   4.561   5.878   3.600 -0.5230 -0.2107 -0.7661
13880TIP3    H263056   4.437   5.966   3.595 -0.5060 -0.0370  1.1299
13881TIP3   OH263057   3.992   1.059   1.928 -0.0271 -0.2454  0.0059
13881TIP3    H163058   4.070   1.099   1.967 -0.5810  1.8465 -0.8668
13881TIP3    H263059   4.014   1.048   1.836 -0.2055 -1.1941  0.0691
13882TIP3   OH263060   3.879   0.635   2.360 -0.6775  0.4366  0.2401
13882TIP3    H163061   3.868   0.540   2.355  0.7081  0.3061 -0.8995
13882TIP3    H263062   3.814   0.671   2.300 -0.1795  0.1145 -0.4999
13883TIP3   OH263063   1.223   3.033  16.528 -0.2613 -0.1636  0.4122
13883TIP3    H163064   1.263   3.104  16.577  2.5643 -1.5386  0.2987
13883TIP3    H263065   1.211   3.068  16.439  1.2365  0.1787  0.3140
13884TIP3   OH263066   4.472   5.812  13.604  0.4717  0.0148  0.2922
13884TIP3    H163067   4.432   5.742  13.553  1.3324 -0.4848  0.2798
13884TIP3    H263068   4.414   5.887  13.591  0.5592 -0.1501 -1.2783
13885TIP3   OH263069   4.992   6.625   6.043  0.7928 -0.2146 -0.0323
13885TIP3    H163070   5.080   6.636   6.079  1.4260  1.4198 -1.9191
13885TIP3    H263071   4.934   6.657   6.112  1.8010  0.6195  0.4491
13886TIP3   OH263072   1.573   2.468  12.333  0.1584  0.1439  0.1226
13886TIP3    H163073   1.528   2.418  12.402 -1.1497 -2.3346 -2.3444
13886TIP3    H263074   1.648   2.414  12.310  0.5198  0.8839 -0.4616
13887TIP3   OH263075   3.916   2.553   2.428 -0.1303  0.1201  0.2799
13887TIP3    H163076   3.924   2.625   2.365  3.0921 -0.1865  0.1543
13887TIP3    H263077   3.948   2.590   2.511 -0.6261 -0.5542  0.7891
13888TIP3   OH263078   3.072   0.044  12.958  0.1350 -0.1339 -0.1562
13888TIP3    H163079   3.057   0.138  12.966  0.5927  0.4783 -4.4338
13888TIP3    H263080   3.154   0.037  12.910  0.1059 -2.7726  0.0478
13889TIP3   OH263081   1.482   2.225   2.851  0.0470 -0.2217 -0.4486
13889TIP3    H163082   1.474   2.267   2.937 -0.6978 -0.6592 -0.2957
13889TIP3    H263083   1.393   2.198   2.829  0.1612  0.2624 -1.5648
13890TIP3   OH263084   2.719   1.906  10.917  0.4698 -0.1885  0.5258
13890TIP3    H163085   2.640   1.855  10.896  1.3815 -0.7970 -1.8043
13890TIP3    H263086   2.704   1.991  10.876  0.3032  0.3269  1.6303
13891TIP3   OH263087   0.239   0.881  16.942  0.3286  0.3098  0.1439
13891TIP3    H163088   0.143   0.881  16.944  0.3316  1.0891  1.6879
13891TIP3    H263089   0.263   0.812  17.004  0.7571  1.0659  0.8251
13892TIP3   OH263090   3.286   4.832  14.099 -0.3519 -0.3053  0.6944
13892TIP3    H163091   3.230   4.787  14.035  1.7343  0.2788 -1.6937
13892TIP3    H263092   3.368   4.784  14.098  0.2643  0.6618  1.8123
13893TIP3   OH263093   5.136   6.021   0.750 -0.3432 -0.2989  0.2880
13893TIP3    H163094   5.119   5.997   0.842 -0.0151  1.7275  0.9217
13893TIP3    H263095   5.230   6.039   0.748 -0.7575  2.2778  0.2657
13894TIP3   OH263096   0.863   1.725   1.703 -0.2110  0.1583 -0.1914
13894TIP3    H163097   0.861   1.739   1.797 -1.3406  0.4467 -0.2384
13894TIP3    H263098   0.838   1.634   1.691  1.7963 -0.4303 -0.1404
13895TIP3   OH263099   3.369   4.317   5.160 -0.2832 -0.0376 -0.2372
13895TIP3    H163100   3.401   4.228   5.146  1.8940  0.6807 -0.2564
13895TIP3    H263101   3.372   4.329   5.255 -0.2442  0.1231 -0.2584
13896TIP3   OH263102   1.069   0.120  12.777  0.9661 -0.5323 -0.1968
13896TIP3    H163103   1.111   0.131  12.862 -1.4039 -0.8294  1.0884
13896TIP3    H263104   0.983   0.160  12.787  0.5882 -0.6620 -2.4427
13897TIP3   OH263105   5.053   3.162  15.660 -0.0237 -0.2295  0.6353
13897TIP3    H163106   4.986   3.195  15.720 -0.1470 -0.0421  0.3968
13897TIP3    H263107   5.008   3.156  15.576 -0.3812 -2.2119  0.9163
13898TIP3   OH263108   2.072   3.693  15.608  0.0183 -0.8125 -0.6363
13898TIP3    H163109   2.166   3.696  15.588  0.3714  1.3518  0.9798
13898TIP3    H263110   2.068   3.698  15.704 -1.7588 -2.3672 -0.5705
13899TIP3   OH263111   0.902   4.342  14.196 -0.5546  0.2702  0.1207
13899TIP3    H163112   0.867   4.290  14.124 -0.6012  0.0497  0.3026
13899TIP3    H263113   0.883   4.433  14.171 -0.8387  0.1791 -0.0043
13900TIP3   OH263114   3.003   3.492  14.354 -0.8833  0.5415 -0.5299
13900TIP3    H163115   2.910   3.506  14.336 -1.0892 -0.0436  0.0834
13900TIP3    H263116   3.036   3.580  14.373 -1.1835  0.8320 -1.2815
13901TIP3   OH263117   0.363   0.333   5.892 -0.2978 -0.4070 -0.3747
13901TIP3    H163118   0.305   0.263   5.861 -0.3361 -0.1477 -0.9053
13901TIP3    H263119   0.307   0.410   5.898 -0.7614 -0.8626  2.2671
13902TIP3   OH263120   3.616   5.574  13.582 -1.0024  0.0100  0.3357
13902TIP3    H163121   3.603   5.508  13.650 -1.6041 -2.1426 -1.7219
13902TIP3    H263122   3.529   5.593  13.548 -0.6000 -0.2368 -0.9187
13903TIP3   OH263123   4.940   2.942  16.113  0.3231 -0.7564  0.1010
13903TIP3    H163124   4.900   2.863  16.075 -1.1378  0.2748 -0.5887
13903TIP3    H263125   4.893   3.015  16.072  2.8698  0.5522 -0.6703
13904TIP3   OH263126   0.988   3.014  13.089 -0.2920  0.5156  0.6502
13904TIP3    H163127   1.056   2.946  13.091 -0.4062  0.3273 -0.6256
13904TIP3    H263128   0.962   3.025  13.180 -0.3053 -1.2014  0.8885
13905TIP3   OH263129   5.771   4.057  11.580  0.3803 -0.4354 -0.0583
13905TIP3    H163130   5.686   4.018  11.562  0.0128 -1.0778  2.5830
13905TIP3    H263131   5.751   4.138  11.627  1.2264  0.5506 -1.3261
13906TIP3   OH263132   2.118   1.581   1.747 -0.0382  0.6517 -0.1419
13906TIP3    H163133   2.027   1.554   1.736  0.1117  0.5849 -1.3254
13906TIP3    H263134   2.166   1.500   1.762 -0.0236  0.5618 -0.6469
13907TIP3   OH263135   1.513   2.648   4.346  0.2137  0.7788  0.6963
13907TIP3    H163136   1.500   2.650   4.441 -1.3235  1.2359  0.5009
13907TIP3    H263137   1.564   2.727   4.328 -1.1394  1.7542  0.9545
13908TIP3   OH263138   2.247   0.173  15.454  0.5068  0.3442 -0.1676
13908TIP3    H163139   2.201   0.089  15.463 -0.0832  0.5406 -1.2217
13908TIP3    H263140   2.200   0.219  15.385  0.9022  1.5071  0.3198
13909TIP3   OH263141   6.265   5.907   5.895  0.1795 -0.2133 -1.0833
13909TIP3    H163142   6.221   5.984   5.860  0.1941 -0.2210 -1.1185
13909TIP3    H263143   6.273   5.924   5.989  1.1409  0.3025 -1.2510
13910TIP3   OH263144   1.216   3.482  13.477  0.3844 -0.1107 -0.2084
13910TIP3    H163145   1.143   3.439  13.433 -1.0311  0.0128  1.8701
13910TIP3    H263146   1.219   3.441  13.564  2.5207  0.2184 -0.0728
13911TIP3   OH263147   3.773   0.064  16.556 -0.4891  0.1490  0.1486
13911TIP3    H163148   3.740   0.062  16.466  0.5417  1.0913 -0.2719
13911TIP3    H263149   3.694   0.078  16.609 -1.0175  0.4498 -0.6763
13912TIP3   OH263150   0.012   1.796   6.388 -0.0644 -0.1356 -0.1780
13912TIP3    H163151   0.016   1.776   6.482  1.6615 -0.1325 -0.2170
13912TIP3    H263152  -0.062   1.744   6.356 -0.0326 -0.9570  0.9991
13913TIP3   OH263153   1.285   5.472   1.131 -0.5335  0.1085 -0.3708
13913TIP3    H163154   1.319   5.409   1.195  1.5927 -0.1919 -1.6946
13913TIP3    H263155   1.200   5.499   1.167  0.3694 -0.3458  2.3488
13914TIP3   OH263156   0.292   2.103   3.465 -0.3236 -0.4205  0.0684
13914TIP3    H163157   0.248   2.029   3.507  0.8309 -0.7969  0.6600
13914TIP3    H263158   0.265   2.179   3.516 -0.4520 -0.6174  0.2963
13915TIP3   OH263159   5.772   5.834   1.548  0.2004  0.2081  0.5415
13915TIP3    H163160   5.677   5.832   1.536  0.1078  0.1806  1.2456
13915TIP3    H263161   5.789   5.765   1.611  0.6792  0.2841  0.4955
13916TIP3   OH263162   3.047   1.771  14.788  0.6272  0.0076  0.3112
13916TIP3    H163163   2.964   1.795  14.831  1.4798 -0.0967  2.1090
13916TIP3    H263164   3.096   1.853  14.784  0.9293 -0.1707  0.3899
13917TIP3   OH263165   3.176   2.935   0.637 -0.0331 -0.2339  0.1792
13917TIP3    H163166   3.265   2.947   0.671  0.3347  0.2442 -0.9086
13917TIP3    H263167   3.188   2.884   0.557 -0.9708 -2.1363  1.1863
13918TIP3   OH263168   2.727   2.260   3.989  0.0678  0.2231  0.6055
13918TIP3    H163169   2.818   2.243   3.963  0.2454  1.0966  0.6093
13918TIP3    H263170   2.719   2.223   4.077  1.1342  2.1659  1.5946
13919TIP3   OH263171   6.279   0.405  14.382  0.4587 -0.5177 -0.1975
13919TIP3    H163172   6.367   0.416  14.346  0.3747 -1.3996 -0.6893
13919TIP3    H263173   6.278   0.316  14.416 -0.3273 -0.6085 -0.4377
13920TIP3   OH263174   1.015   2.809   6.196 -0.0480 -0.3667  0.0677
13920TIP3    H163175   0.924   2.788   6.216 -0.2814 -0.3619 -0.9439
13920TIP3    H263176   1.053   2.834   6.280 -0.0794 -3.5077  1.1324
13921TIP3   OH263177   4.197   6.359   0.213 -0.2137  0.1402  0.1093
13921TIP3    H163178   4.201   6.266   0.233  0.1582  0.6061  2.4125
13921TIP3    H263179   4.259   6.371   0.141 -0.3345 -1.3725 -0.2814
13922TIP3   OH263180   6.247   2.843  14.292 -0.2668  0.3369 -0.4663
13922TIP3    H163181   6.317   2.778  14.295 -0.9666 -0.4592 -0.8509
13922TIP3    H263182   6.225   2.859  14.384 -2.5561 -2.7782 -0.2927
13923TIP3   OH263183   3.730   3.878   4.360 -0.0048  0.0158  0.0789
13923TIP3    H163184   3.685   3.811   4.309 -0.7464 -0.4578  1.3172
13923TIP3    H263185   3.776   3.931   4.294  0.3975 -1.5433 -0.9457
13924TIP3   OH263186   3.028   0.300  15.594 -0.6381  0.5633  0.1829
13924TIP3    H163187   3.031   0.396  15.585 -2.4403  0.5122 -1.5502
13924TIP3    H263188   2.934   0.280  15.602 -0.3001 -1.0805  0.2788
13925TIP3   OH263189   1.500   0.194  13.821  0.2286  0.0213 -0.0388
13925TIP3    H163190   1.439   0.211  13.893 -0.6783  2.8337 -1.2997
13925TIP3    H263191   1.584   0.229  13.852  0.1995 -0.1177  0.1960
13926TIP3   OH263192   5.531   1.499  15.418 -0.1763 -0.5315  0.5566
13926TIP3    H163193   5.447   1.510  15.463  0.4300 -0.0582  1.6170
13926TIP3    H263194   5.545   1.404  15.417 -0.6408 -0.6014  0.5419
13927TIP3   OH263195   3.823   0.815   1.568 -0.0070  0.2407 -0.0820
13927TIP3    H163196   3.754   0.857   1.620 -0.7995  0.3585 -1.1701
13927TIP3    H263197   3.842   0.734   1.615 -1.9635 -0.5250 -0.4777
13928TIP3   OH263198   2.274   3.972   4.552 -0.3114  0.3466  0.1115
13928TIP3    H163199   2.330   3.982   4.475 -0.7386  0.4551 -0.1835
13928TIP3    H263200   2.335   3.953   4.623 -0.0904 -3.2656 -0.8452
13929TIP3   OH263201   6.717   3.562  13.602  0.1994 -0.6106  0.0527
13929TIP3    H163202   6.759   3.479  13.623 -0.7831 -1.1851 -0.2267
13929TIP3    H263203   6.649   3.540  13.539  0.1901  0.4649 -0.3353
13930TIP3   OH263204   2.077   1.844   3.180  0.1202  0.1692 -0.0363
13930TIP3    H163205   2.112   1.794   3.254  1.6573  1.2992  0.0324
13930TIP3    H263206   2.001   1.890   3.216  0.0518 -0.3347  0.4847
13931TIP3   OH263207   5.866   5.283  14.822  0.1325 -0.0403 -0.3636
13931TIP3    H163208   5.880   5.240  14.738  0.8376 -0.1403 -0.1997
13931TIP3    H263209   5.944   5.262  14.874  0.0633  0.6576  0.0445
13932TIP3   OH263210   5.870   5.618  14.634 -0.0563 -0.2303 -0.0510
13932TIP3    H163211   5.950   5.586  14.675  0.6014  0.3591 -0.8443
13932TIP3    H263212   5.802   5.606  14.701  1.0001  0.8129  1.2629
13933TIP3   OH263213   0.764   4.188   5.993 -0.0932 -0.3490  0.3533
13933TIP3    H163214   0.799   4.275   5.974  0.4221 -0.5191  0.4978
13933TIP3    H263215   0.723   4.198   6.079  0.0114 -0.2599  0.3939
13934TIP3   OH263216   1.913   6.702   3.278  0.0061  0.2369 -0.1193
13934TIP3    H163217   1.983   6.744   3.229  0.3922  1.4274  1.3799
13934TIP3    H263218   1.840   6.696   3.216  0.2549  2.2628 -0.6704
13935TIP3   OH263219   4.758   1.953  12.437 -0.6178 -0.1163  0.4783
13935TIP3    H163220   4.711   2.035  12.424 -0.9138  0.0927  2.5681
13935TIP3    H263221   4.694   1.894  12.475  0.3364 -0.3668  1.7551
13936TIP3   OH263222   0.230   0.709   5.088 -0.2055 -0.2669 -0.1508
13936TIP3    H163223   0.304   0.707   5.028 -0.0734 -0.8941  0.0228
13936TIP3    H263224   0.243   0.632   5.144  0.5222  1.1161  1.6898
13937TIP3   OH263225   4.263   0.170  14.546  0.2002 -0.2266  0.0728
13937TIP3    H163226   4.302   0.097  14.498  0.6451 -0.5621  0.9357
13937TIP3    H263227   4.197   0.129  14.602 -0.3527  0.1700 -0.2815
13938TIP3   OH263228   6.667   1.702   5.866 -0.1936 -0.2797 -0.8392
13938TIP3    H163229   6.660   1.649   5.945  0.3813  0.2404 -0.4215
13938TIP3    H263230   6.741   1.761   5.884  0.6543 -0.8815 -2.1906
13939TIP3   OH263231   3.115   1.575   1.151 -0.1224  0.4306  0.1148
13939TIP3    H163232   3.185   1.518   1.182  0.9600  0.1766 -2.5045
13939TIP3    H263233   3.146   1.664   1.166 -0.0248  0.3316  0.5153
13940TIP3   OH263234   3.120   3.637  11.245  0.3782 -0.2459  0.3428
13940TIP3    H163235   3.027   3.616  11.256  0.0146 -0.0825 -1.8906
13940TIP3    H263236   3.161   3.552  11.226  0.4568 -0.1336  0.0137
13941TIP3   OH263237   3.411   6.705  12.781 -0.0160  0.0220 -0.2905
13941TIP3    H163238   3.357   6.669  12.710  0.6075  0.9078 -1.2325
13941TIP3    H263239   3.494   6.658  12.774  0.1698  0.3632 -0.3711
13942TIP3   OH263240   1.624   4.213   3.232 -0.0337  0.5415 -0.4188
13942TIP3    H163241   1.566   4.274   3.186  1.3588  2.3596  0.0930
13942TIP3    H263242   1.701   4.265   3.253  1.2848 -1.4621 -0.0056
13943TIP3   OH263243   6.313   0.917   2.057 -0.3966  0.2543  0.6547
13943TIP3    H163244   6.361   0.983   2.006 -1.2419  0.0070 -0.4973
13943TIP3    H263245   6.221   0.944   2.050 -0.5770 -0.0767  1.6428
13944TIP3   OH263246   3.450   1.793   2.464 -0.0741  0.1761 -0.1137
13944TIP3    H163247   3.395   1.722   2.500 -1.4896  2.2836  2.2365
13944TIP3    H263248   3.395   1.834   2.398  0.8014 -0.9079 -1.5782
13945TIP3   OH263249   1.190   1.307   5.757  0.4562  0.2546  0.1970
13945TIP3    H163250   1.243   1.283   5.833 -0.6043 -0.8180  0.6284
13945TIP3    H263251   1.135   1.379   5.789  1.0680  0.8187 -0.0098
13946TIP3   OH263252   5.565   6.746  12.061  0.2012 -0.6364  0.0144
13946TIP3    H163253   5.570   6.727  12.155  0.3772 -1.3169 -0.1303
13946TIP3    H263254   5.649   6.785  12.040  0.0528 -0.2095  0.1940
13947TIP3   OH263255   6.533   4.719   1.356  0.3241  0.3185  0.1589
13947TIP3    H163256   6.544   4.789   1.420  1.9586  1.1226 -0.9266
13947TIP3    H263257   6.617   4.671   1.358 -0.8251 -1.8264  1.0561
13948TIP3   OH263258   3.854   1.346  16.064  0.5079 -0.4201  0.5271
13948TIP3    H163259   3.804   1.404  16.005 -0.9055  1.3176  3.2468
13948TIP3    H263260   3.826   1.258  16.039 -2.6149  0.4012  0.6764
13949TIP3   OH263261   5.870   3.560   4.707  0.2896  0.0524 -0.5622
13949TIP3    H163262   5.850   3.649   4.679 -1.3059 -0.3375 -0.7480
13949TIP3    H263263   5.930   3.571   4.781 -0.8452  1.3414  0.2195
13950TIP3   OH263264   6.029   5.461  12.924  0.2059 -0.7390  0.2980
13950TIP3    H163265   6.076   5.428  13.001 -1.2953 -1.0048  1.1409
13950TIP3    H263266   6.093   5.516  12.879  0.6130  0.9153  2.6993
13951TIP3   OH263267   0.944   2.853  10.747  0.0087 -0.2938  0.2692
13951TIP3    H163268   1.032   2.890  10.756 -0.6789  1.3273  0.7990
13951TIP3    H263269   0.896   2.918  10.695 -0.5675 -1.7287 -1.0662
13952TIP3   OH263270   0.118   5.767   1.321 -0.3409  0.2367 -0.3190
13952TIP3    H163271   0.192   5.783   1.380  0.5160 -0.5652 -1.1486
13952TIP3    H263272   0.135   5.824   1.246 -1.0580  0.7278 -0.1181
13953TIP3   OH263273   2.677   0.395  16.604 -0.7507  0.2017  0.5173
13953TIP3    H163274   2.621   0.452  16.657  0.1445  1.4448  0.1844
13953TIP3    H263275   2.663   0.425  16.515  1.8607  1.9389  0.5713
13954TIP3   OH263276   3.532   3.709   4.310 -0.7953  0.2890 -0.0729
13954TIP3    H163277   3.479   3.660   4.373  1.8588 -0.2942  1.8338
13954TIP3    H263278   3.529   3.656   4.230  0.3744 -1.9992  1.3253
13955TIP3   OH263279   5.924   5.924   2.011 -0.3794 -0.1673  0.6372
13955TIP3    H163280   5.984   5.864   1.967  0.0611  1.0461 -0.4833
13955TIP3    H263281   5.937   5.907   2.104 -0.8076 -2.3025  0.3595
13956TIP3   OH263282   0.000   0.488  13.985 -0.3735 -0.3169 -0.3553
13956TIP3    H163283   0.065   0.488  13.914  0.2904  0.5183  0.2431
13956TIP3    H263284   0.011   0.572  14.028 -1.5867 -0.3344  0.0197
13957TIP3   OH263285   2.766   0.833  12.363  0.4192  0.1975 -0.2895
13957TIP3    H163286   2.842   0.853  12.417  1.1490  0.1849 -1.2768
13957TIP3    H263287   2.800   0.776  12.294 -0.6345 -0.3927 -0.3446
13958TIP3   OH263288   1.256   2.682  11.613 -1.0738  0.0723 -0.4384
13958TIP3    H163289   1.244   2.739  11.689  0.6196  0.3784 -0.3708
13958TIP3    H263290   1.259   2.594  11.649 -1.3858  0.1199 -0.2911
13959TIP3   OH263291   5.549   2.861  15.442 -0.3815 -0.1999 -0.0276
13959TIP3    H163292   5.559   2.881  15.348 -0.7139 -1.1577 -0.2790
13959TIP3    H263293   5.454   2.866  15.457 -0.3326 -0.1118  0.2434
13960TIP3   OH263294   0.816   0.826  13.925  0.4750 -0.8799 -0.1137
13960TIP3    H163295   0.894   0.772  13.939  0.0717 -1.6217 -0.6285
13960TIP3    H263296   0.842   0.890  13.859  0.9291 -0.5010  0.4276
13961TIP3   OH263297   6.331   2.824  17.067 -0.3376  0.3363  0.6409
13961TIP3    H163298   6.298   2.825  17.157 -1.3778  2.1396  0.2801
13961TIP3    H263299   6.403   2.888  17.067  0.6595 -0.7437  0.4996
13962TIP3   OH263300   1.374   2.619   3.510  0.3053 -0.1146  0.1416
13962TIP3    H163301   1.290   2.664   3.508 -0.1432 -0.9401  0.0179
13962TIP3    H263302   1.386   2.595   3.601  0.0593 -0.6283  0.0415
13963TIP3   OH263303   0.986   5.001  15.094 -0.4526 -0.0316  0.3481
13963TIP3    H163304   0.897   5.013  15.129 -0.3302 -0.6349  0.8766
13963TIP3    H263305   1.041   5.054  15.151 -0.5829  1.1304 -0.5731
13964TIP3   OH263306   2.505   1.563  15.136  0.5036  0.3432 -0.5108
13964TIP3    H163307   2.537   1.517  15.214  3.4796  1.6300 -0.8274
13964TIP3    H263308   2.585   1.584  15.087 -1.1865  0.6943 -3.2905
13965TIP3   OH263309   3.382   5.639   4.693  0.1676 -0.5798  0.1058
13965TIP3    H163310   3.427   5.621   4.610 -2.4409  0.0591 -1.5637
13965TIP3    H263311   3.302   5.586   4.689 -1.0416  1.0573  1.2565
13966TIP3   OH263312   4.435   1.189   2.227  0.1851 -0.3813 -0.4018
13966TIP3    H163313   4.511   1.199   2.284 -0.1323  1.1958 -0.1947
13966TIP3    H263314   4.393   1.108   2.255  0.2874  0.1256  1.3061
13967TIP3   OH263315   5.783   2.646   5.408 -0.1153 -0.0914 -0.2917
13967TIP3    H163316   5.831   2.702   5.469 -0.8906 -0.5093  0.7385
13967TIP3    H263317   5.714   2.703   5.373 -0.4697 -0.2020  0.2188
13968TIP3   OH263318   2.069   6.508   3.402 -0.4179 -0.4217 -0.0016
13968TIP3    H163319   1.996   6.543   3.352 -2.1173 -2.9451  0.5367
13968TIP3    H263320   2.040   6.513   3.493  0.0510 -1.4261  0.2225
13969TIP3   OH263321   3.208   5.399   5.808  0.2636  0.3712 -0.5584
13969TIP3    H163322   3.123   5.422   5.847  0.2506  0.3530 -0.5768
13969TIP3    H263323   3.271   5.422   5.876  0.1359 -1.0818  0.0805
13970TIP3   OH263324   3.386   1.747  11.247 -0.2117 -0.4006 -0.3616
13970TIP3    H163325   3.350   1.698  11.174  0.2588  2.6597 -2.8674
13970TIP3    H263326   3.480   1.750  11.231  0.0587 -0.6124  1.0254
13971TIP3   OH263327   3.274   1.243  16.761  0.1372 -0.4264 -0.5321
13971TIP3    H163328   3.263   1.149  16.748 -1.6828 -0.6254  1.7410
13971TIP3    H263329   3.368   1.257  16.753  0.7028 -2.7929  0.8717
13972TIP3   OH263330   3.671   6.043   4.096  0.0639 -0.6532  0.3256
13972TIP3    H163331   3.653   6.036   4.002 -0.1271  0.8105  0.2332
13972TIP3    H263332   3.731   5.971   4.114  3.0076  1.1120 -1.6749
13973TIP3   OH263333   5.867   5.298   3.872  0.0677  0.2385 -0.5068
13973TIP3    H163334   5.817   5.221   3.900 -2.0215  1.0176 -1.8084
13973TIP3    H263335   5.827   5.323   3.789  0.3651  2.9704  0.0789
13974TIP3   OH263336   6.542   2.342   2.315 -0.0823 -0.2327 -0.1014
13974TIP3    H163337   6.619   2.295   2.348 -0.0762  0.5622  1.0521
13974TIP3    H263338   6.573   2.386   2.235  0.1558 -1.3941 -0.6774
13975TIP3   OH263339   2.631   0.572  13.477 -0.1361  0.1923  0.1595
13975TIP3    H163340   2.674   0.636  13.421 -0.7745 -0.5997 -1.3084
13975TIP3    H263341   2.537   0.587  13.462 -0.3770  0.8313  2.0554
13976TIP3   OH263342   1.110   1.274   1.860  0.1544 -0.1132 -0.4165
13976TIP3    H163343   1.115   1.190   1.813 -1.5462 -0.2316 -0.4427
13976TIP3    H263344   1.024   1.273   1.902  0.3370  1.3873  0.0493
13977TIP3   OH263345   2.288   6.296   5.314  0.1822 -0.2879  0.9520
13977TIP3    H163346   2.315   6.305   5.405  1.4326 -0.5174  0.6231
13977TIP3    H263347   2.362   6.329   5.264  0.0682 -1.4322 -0.0177
13978TIP3   OH263348   1.531   6.139   4.320 -0.7336 -0.8785 -0.4255
13978TIP3    H163349   1.571   6.194   4.253  0.6651 -3.3698 -1.7888
13978TIP3    H263350   1.604   6.101   4.368 -1.5525 -2.3723 -0.2735
13979TIP3   OH263351   4.257   6.700  13.744  0.3423  0.2799 -0.2302
13979TIP3    H163352   4.262   6.795  13.738 -1.7214  0.4840  0.3478
13979TIP3    H263353   4.309   6.678  13.821  0.7016  0.9635 -0.2729
13980TIP3   OH263354   0.729   2.471   5.151 -0.6701  0.1531 -0.3602
13980TIP3    H163355   0.754   2.516   5.070 -0.8222 -1.4729 -1.3551
13980TIP3    H263356   0.806   2.480   5.208  0.5918 -1.0442 -1.7650
13981TIP3   OH263357   1.569   1.658   5.315  0.1064 -0.6613 -0.5028
13981TIP3    H163358   1.547   1.649   5.408  0.3105 -0.8907 -0.4764
13981TIP3    H263359   1.514   1.730   5.285  1.9163  1.1986  0.4181
13982TIP3   OH263360   5.553   4.207  12.011  0.2385  0.0870  0.0821
13982TIP3    H163361   5.502   4.225  11.932 -1.0116 -1.2628  0.5554
13982TIP3    H263362   5.640   4.183  11.978  0.1038  0.7660 -0.8068
13983TIP3   OH263363   4.730   0.274   6.210  0.0106 -0.0831 -0.2616
13983TIP3    H163364   4.824   0.258   6.197  0.1086  0.8268 -0.7844
13983TIP3    H263365   4.689   0.240   6.130 -0.3774 -2.4160  0.8379
13984TIP3   OH263366   0.645   0.564  15.910 -0.0411  0.4212  0.1902
13984TIP3    H163367   0.707   0.527  15.847  0.5938  0.1385  0.9620
13984TIP3    H263368   0.563   0.570  15.861  0.7945  1.6807 -1.1300
13985TIP3   OH263369   5.205   4.314   5.797  0.0034  0.2832  0.3523
13985TIP3    H163370   5.250   4.229   5.793 -0.1737  0.2182 -2.8459
13985TIP3    H263371   5.274   4.379   5.784 -0.2779  0.3975 -0.6653
13986TIP3   OH263372   4.477   1.735  11.356 -0.1131  0.1615 -0.2158
13986TIP3    H163373   4.413   1.804  11.376 -0.4149 -0.1119 -0.2252
13986TIP3    H263374   4.454   1.664  11.415 -2.1915 -1.3909 -2.6867
13987TIP3   OH263375   2.072   3.597  12.760 -0.0602  0.3433 -0.2023
13987TIP3    H163376   2.106   3.546  12.687  0.4107  1.1518 -0.5585
13987TIP3    H263377   2.007   3.655  12.721 -1.7300 -1.0042  0.4339
13988TIP3   OH263378   5.982   4.250  13.290  0.1828 -0.2406 -0.2540
13988TIP3    H163379   5.921   4.182  13.263 -1.3728  0.3491  1.5557
13988TIP3    H263380   6.008   4.225  13.379  0.4654  0.9302  0.0044
13989TIP3   OH263381   1.504   5.225  12.641 -0.1231 -0.6838  0.0012
13989TIP3    H163382   1.558   5.150  12.665  4.1279  2.0524  0.0997
13989TIP3    H263383   1.470   5.258  12.724 -1.0459 -1.7176  0.0664
13990TIP3   OH263384   6.205   4.101   5.389  0.2760 -0.0965 -0.2588
13990TIP3    H163385   6.159   4.061   5.463  0.6665 -2.6318 -1.2783
13990TIP3    H263386   6.141   4.097   5.317  0.7955 -0.1380 -0.7227
13991TIP3   OH263387   4.601   5.764  11.073  0.6773  0.4901 -0.4336
13991TIP3    H163388   4.607   5.847  11.025 -0.2507  0.4496 -0.6398
13991TIP3    H263389   4.524   5.774  11.129 -0.7035 -0.9588 -1.9523
13992TIP3   OH263390   0.842   2.068   0.917  0.3338 -0.1261 -0.0795
13992TIP3    H163391   0.891   2.069   0.834 -0.7107  3.8985 -0.8674
13992TIP3    H263392   0.750   2.080   0.890 -0.3282 -0.9778  1.6359
13993TIP3   OH263393   2.252   2.992  13.751 -0.0340 -0.4783 -0.0428
13993TIP3    H163394   2.305   3.053  13.802  0.1851  0.2946 -1.1582
13993TIP3    H263395   2.276   3.010  13.660 -0.5648 -1.6792 -0.4374
13994TIP3   OH263396   4.438   1.011  12.374 -0.2043  0.1232 -0.2281
13994TIP3    H163397   4.367   1.066  12.407  0.6715  1.2227 -0.0860
13994TIP3    H263398   4.457   0.951  12.446  0.3539  1.1782  0.5367
13995TIP3   OH263399   4.609   1.118   1.136  0.2046  0.5977  0.4356
13995TIP3    H163400   4.568   1.204   1.140 -0.1663  0.4025  0.8617
13995TIP3    H263401   4.669   1.124   1.061 -1.4752  0.4968 -0.9717
13996TIP3   OH263402   5.126   5.600  11.745 -0.5653  0.2508  0.0275
13996TIP3    H163403   5.096   5.595  11.836  0.7501 -1.8723  0.4338
13996TIP3    H263404   5.078   5.673  11.707 -2.5469  0.0081  1.9091
13997TIP3   OH263405   2.760   3.260  13.749  0.2030  0.0225 -0.3700
13997TIP3    H163406   2.792   3.283  13.662  0.0296 -1.2670 -0.8012
13997TIP3    H263407   2.685   3.317  13.764 -1.0720 -1.1623 -1.9695
13998TIP3   OH263408   4.009   1.173  14.648 -0.5115 -0.2037  0.2515
13998TIP3    H163409   4.029   1.201  14.737  2.4824  0.0379 -0.3894
13998TIP3    H263410   4.086   1.123  14.620 -0.8074  0.7495 -2.5992
13999TIP3   OH263411   3.026   0.071   1.217  0.1213  0.1523 -0.2436
13999TIP3    H163412   3.100   0.084   1.276 -1.3291  2.4996  1.2221
13999TIP3    H263413   2.986   0.158   1.209 -1.0369 -0.5332 -2.9831
14000TIP3   OH263414   1.764   2.905   0.936 -0.7230 -0.7100  0.4165
14000TIP3    H163415   1.687   2.851   0.915  0.0832 -1.6959 -0.0813
14000TIP3    H263416   1.826   2.844   0.976  0.9189 -0.5950 -1.7726
14001TIP3   OH263417   0.182   1.427   4.106  0.0718  0.1325  0.0496
14001TIP3    H163418   0.205   1.450   4.016  0.8746  1.5355  0.5819
14001TIP3    H263419   0.262   1.445   4.156 -0.2645 -0.9255  1.0102
14002TIP3   OH263420   6.368   1.622  14.410  0.6283 -0.0641 -0.2100
14002TIP3    H163421   6.275   1.638  14.423  0.3146 -1.2939 -0.8130
14002TIP3    H263422   6.399   1.696  14.359 -0.4972 -0.6823 -1.8528
14003TIP3   OH263423   3.178   2.309  15.917  0.1497  0.3845 -0.3486
14003TIP3    H163424   3.261   2.356  15.930 -0.5554  1.7072 -0.4693
14003TIP3    H263425   3.112   2.367  15.956 -0.9616  0.3086 -2.0465
14004TIP3   OH263426   0.930   2.854   1.055 -0.5004 -0.4413  0.3085
14004TIP3    H163427   0.948   2.898   0.972  0.3196 -1.7987 -0.2726
14004TIP3    H263428   0.943   2.921   1.122 -0.0165  0.3769 -0.5882
14005TIP3   OH263429   2.951   3.404  14.635 -0.2230  0.1664  0.6530
14005TIP3    H163430   2.943   3.421  14.541 -0.3037 -0.6465  0.5090
14005TIP3    H263431   2.861   3.397  14.667 -0.2201 -1.8692  0.3449
14006TIP3   OH263432   2.732   5.932   1.816 -0.0362  0.2344  0.2144
14006TIP3    H163433   2.700   5.843   1.827  0.5401  0.1534  1.3052
14006TIP3    H263434   2.776   5.953   1.899 -1.3632  2.0150  0.5372
14007TIP3   OH263435   1.318   2.160  13.200  0.5112 -0.3045 -0.2171
14007TIP3    H163436   1.298   2.237  13.253  0.9758  0.4922 -1.1681
14007TIP3    H263437   1.406   2.135  13.225 -0.1440 -1.4053  1.1061
14008TIP3   OH263438   3.964   4.370   2.366  0.1543 -0.1626 -0.0969
14008TIP3    H163439   3.927   4.282   2.370  0.1333 -0.1404  0.2177
14008TIP3    H263440   4.051   4.361   2.405 -0.8728  0.4909  2.5542
14009TIP3   OH263441   3.558   0.472   2.735 -0.7094  0.1734 -0.4595
14009TIP3    H163442   3.640   0.426   2.754 -0.2505  0.6473 -1.2137
14009TIP3    H263443   3.585   0.545   2.679 -1.6152  0.4996 -0.4781
14010TIP3   OH263444   6.322   5.711  15.575 -0.3207 -0.0782  0.4621
14010TIP3    H163445   6.328   5.687  15.482 -0.1635 -0.0355  0.4615
14010TIP3    H263446   6.359   5.800  15.579 -0.5525  0.0156  0.5257
14011TIP3   OH263447   6.717   4.891   0.299  0.4193  0.1022 -0.9462
14011TIP3    H163448   6.735   4.889   0.205 -0.8572  0.5272 -1.2141
14011TIP3    H263449   6.803   4.906   0.339  0.7905  1.2351 -2.1087
14012TIP3   OH263450   6.372   5.305   4.952 -0.2711 -0.2969  0.3514
14012TIP3    H163451   6.303   5.316   5.018  1.0215  0.3752  1.6583
14012TIP3    H263452   6.449   5.279   5.002  0.5727 -0.5121 -1.0047
14013TIP3   OH263453   0.454   3.392   4.036 -0.1291  0.0922 -0.3522
14013TIP3    H163454   0.396   3.338   4.089  0.2396 -1.1219 -1.1478
14013TIP3    H263455   0.421   3.481   4.048 -0.2475 -0.1677  1.6454
14014TIP3   OH263456   1.250   4.235   1.652  0.1201 -0.0087  0.5358
14014TIP3    H163457   1.184   4.248   1.584 -0.4376 -1.0419  0.8499
14014TIP3    H263458   1.325   4.198   1.605  0.2222  0.5085  0.2868
14015TIP3   OH263459   2.186   5.795   4.640 -0.4353 -0.4778 -0.2263
14015TIP3    H163460   2.092   5.811   4.637 -0.4803 -0.6336  0.2762
14015TIP3    H263461   2.204   5.745   4.561 -0.6342  0.2537 -0.7469
14016TIP3   OH263462   1.590   5.930  11.106 -0.2917  0.0897 -0.5577
14016TIP3    H163463   1.676   5.955  11.071  0.0098  0.7345  0.5966
14016TIP3    H263464   1.571   5.846  11.063  1.6459 -0.8630  0.2811
14017TIP3   OH263465   5.939   3.950  13.107  0.3119 -0.4679 -0.1263
14017TIP3    H163466   6.009   4.001  13.067  0.0048 -0.0709 -0.1728
14017TIP3    H263467   5.861   4.004  13.095  0.0465 -0.7832  0.1558
14018TIP3   OH263468   0.828   4.515  11.845 -0.0616 -0.5672 -0.1743
14018TIP3    H163469   0.787   4.428  11.840 -1.7016  0.0825  1.1390
14018TIP3    H263470   0.763   4.569  11.889  0.4031  1.6592 -2.0510
14019TIP3   OH263471   5.857   2.229   4.174 -0.3638  0.1053  0.1337
14019TIP3    H163472   5.853   2.141   4.212  1.2088  1.0868  2.8142
14019TIP3    H263473   5.777   2.272   4.206  0.7547  0.7967  2.2081
14020TIP3   OH263474   4.830   3.729  14.254 -0.4861  0.1889 -0.0104
14020TIP3    H163475   4.847   3.636  14.239  2.3426  0.6370 -0.1800
14020TIP3    H263476   4.896   3.774  14.201 -1.0162  2.2442  0.9844
14021TIP3   OH263477   5.698   5.630   2.852  0.0810 -0.3311  0.4051
14021TIP3    H163478   5.661   5.710   2.814 -1.2630 -0.2188  1.8462
14021TIP3    H263479   5.676   5.636   2.945  0.4277 -2.1252  0.6303
14022TIP3   OH263480   3.936   3.521   2.657  0.4461  0.4284 -0.3542
14022TIP3    H163481   3.976   3.476   2.732 -0.2132  0.5148  0.0545
14022TIP3    H263482   3.843   3.503   2.665  0.4316 -0.1065 -1.5364
14023TIP3   OH263483   1.648   2.457   5.760  0.7849  0.4451 -0.1322
14023TIP3    H163484   1.656   2.546   5.794 -0.8373  1.1219 -1.4169
14023TIP3    H263485   1.708   2.455   5.685 -0.3344  1.0008 -1.0766
14024TIP3   OH263486   1.865   2.132   1.499 -0.0259  0.2211  0.4957
14024TIP3    H163487   1.873   2.047   1.542 -4.2089  0.3292  2.0354
14024TIP3    H263488   1.877   2.113   1.406  0.7138 -1.7285  0.9377
14025TIP3   OH263489   1.565   6.726  13.684 -0.5296 -0.1096 -0.3445
14025TIP3    H163490   1.527   6.801  13.730 -1.4622  1.0553 -2.8562
14025TIP3    H263491   1.644   6.705  13.734 -0.9783  1.6534  1.2066
14026TIP3   OH263492   4.722   4.494   4.127 -0.0028 -0.2326  0.2783
14026TIP3    H163493   4.716   4.461   4.037  0.5862  0.4346 -0.0133
14026TIP3    H263494   4.805   4.541   4.130 -0.8674  1.3424  0.6424
14027TIP3   OH263495   5.316   5.559  15.965  0.0440  0.4281  0.1614
14027TIP3    H163496   5.263   5.527  15.892  0.2600 -1.4847  0.7811
14027TIP3    H263497   5.253   5.593  16.028 -0.6155 -2.4123  1.1792
14028TIP3   OH263498   1.412   1.692  11.981 -0.0905 -0.1430 -0.0983
14028TIP3    H163499   1.484   1.682  12.044 -1.1673  2.2991  1.6587
14028TIP3    H263500   1.342   1.637  12.015  0.6696 -2.1843 -1.5838
14029TIP3   OH263501   5.126   4.761   0.170 -0.0720 -0.2833 -0.0541
14029TIP3    H163502   5.159   4.760   0.260  0.5375  0.4258 -0.2628
14029TIP3    H263503   5.057   4.826   0.170  0.6088  0.4571 -0.3215
14030TIP3   OH263504   1.600   2.109  13.170 -0.2946  0.1124 -0.5747
14030TIP3    H163505   1.667   2.132  13.105  1.6549 -0.3843  1.1313
14030TIP3    H263506   1.590   2.188  13.223  0.1619 -0.2876  0.1362
14031TIP3   OH263507   5.136   3.857   4.324  0.3105 -0.1312  0.2840
14031TIP3    H163508   5.062   3.910   4.295 -0.9000 -0.9224  1.7835
14031TIP3    H263509   5.150   3.883   4.415 -0.1311 -2.1423  0.9693
14032TIP3   OH263510   1.152   5.058   4.698 -0.0930  0.6771 -0.0451
14032TIP3    H163511   1.234   5.015   4.673 -0.2373  0.8375 -0.8338
14032TIP3    H263512   1.094   5.044   4.624 -1.0767 -0.1454  0.8536
14033TIP3   OH263513   3.497   3.717   0.717 -0.0076  0.1802  0.0999
14033TIP3    H163514   3.573   3.690   0.665  1.4162  0.1349  2.0879
14033TIP3    H263515   3.445   3.771   0.658 -0.0977 -2.3467 -2.3060
14034TIP3   OH263516   1.586   0.357  15.625 -0.1779  0.5573 -0.3501
14034TIP3    H163517   1.634   0.439  15.610 -3.2209  2.5039 -0.3164
14034TIP3    H263518   1.528   0.350  15.549 -0.4151 -1.2827 -0.0342
14035TIP3   OH263519   6.572   2.780  16.819  0.0670 -0.5282 -0.0406
14035TIP3    H163520   6.483   2.748  16.812  0.0612 -0.6495  0.5733
14035TIP3    H263521   6.580   2.845  16.749 -1.1744  1.0719  1.2249
14036TIP3   OH263522   1.330   0.289   0.487 -0.3856 -0.7357 -0.5277
14036TIP3    H163523   1.336   0.376   0.526 -2.0186 -1.2739  1.0731
14036TIP3    H263524   1.329   0.229   0.561  0.0997 -2.0923 -1.5767
14037TIP3   OH263525   2.562   2.539  13.702 -0.1654 -0.5502 -0.2036
14037TIP3    H163526   2.543   2.620  13.655 -0.6221 -0.3471  0.3243
14037TIP3    H263527   2.607   2.567  13.782 -1.3133 -0.7234  0.5192
14038TIP3   OH263528   2.926   4.657  13.858  0.2026  0.0246  0.0651
14038TIP3    H163529   2.852   4.597  13.857  1.1213 -1.2761 -3.2465
14038TIP3    H263530   2.890   4.741  13.829 -0.1544 -0.3434 -0.5599
14039TIP3   OH263531   6.036   3.248   5.577  0.3357  0.1742  0.1349
14039TIP3    H163532   5.973   3.301   5.627  1.6117 -0.2644  2.3434
14039TIP3    H263533   6.001   3.159   5.580 -0.8142  0.5090 -1.9085
14040TIP3   OH263534   0.760   4.466  13.040 -0.3195  1.0626  0.4057
14040TIP3    H163535   0.697   4.458  12.969  0.9130 -0.1233 -0.6244
14040TIP3    H263536   0.742   4.551  13.080 -1.1791  1.6569 -1.1833
14041TIP3   OH263537   0.127   2.814  13.900  0.6091  0.0099  0.5015
14041TIP3    H163538   0.179   2.772  13.969  0.5972 -0.4215  0.2484
14041TIP3    H263539   0.168   2.786  13.818  1.0556  1.0844  0.3446
14042TIP3   OH263540   4.741   0.386  15.856  0.0935  0.5131 -0.8041
14042TIP3    H163541   4.659   0.430  15.835  0.1273  0.5617 -0.8352
14042TIP3    H263542   4.730   0.298  15.821 -0.2146  0.3063 -0.1987
14043TIP3   OH263543   4.627   5.324  13.348 -0.7354 -0.9246  0.1070
14043TIP3    H163544   4.713   5.360  13.370 -0.8436  0.4931 -1.5670
14043TIP3    H263545   4.589   5.299  13.432  1.7651 -2.7659  0.8247
14044TIP3   OH263546   4.848   4.259   1.696 -0.6988  0.1201 -0.2095
14044TIP3    H163547   4.876   4.307   1.774 -1.6188 -0.7216  0.6577
14044TIP3    H263548   4.755   4.281   1.686 -0.9633 -0.9698 -0.1769
14045TIP3   OH263549   0.464   1.895  13.874  0.6636  0.1930 -0.0731
14045TIP3    H163550   0.426   1.979  13.900  0.5377 -0.3852  1.7295
14045TIP3    H263551   0.493   1.909  13.784 -4.1504  0.5709 -1.8181
14046TIP3   OH263552   0.758   0.297  16.686 -0.2474 -0.2338 -0.3439
14046TIP3    H163553   0.800   0.210  16.686  0.4751  0.1073 -0.2055
14046TIP3    H263554   0.739   0.313  16.593  2.7062  0.8833 -0.8575
14047TIP3   OH263555   0.112   3.206   5.937  0.4741 -0.4923 -0.6957
14047TIP3    H163556   0.115   3.115   5.966  2.4033  0.0381  0.9678
14047TIP3    H263557   0.117   3.202   5.841 -0.0073 -2.1138 -0.6747
14048TIP3   OH263558   1.001   4.084  16.603  0.5388  0.1925 -0.7737
14048TIP3    H163559   1.022   4.102  16.512  0.3137 -1.4651 -1.1827
14048TIP3    H263560   1.086   4.071  16.646  0.7021  1.9583 -0.4858
14049TIP3   OH263561   4.636   4.606   1.202 -0.0565  0.0424 -0.0034
14049TIP3    H163562   4.731   4.612   1.196  0.0794 -2.3260 -1.6108
14049TIP3    H263563   4.619   4.583   1.293  0.9492  0.0270  0.1918
14050TIP3   OH263564   6.618   5.704  12.367 -0.2590 -0.2346  0.1245
14050TIP3    H163565   6.605   5.631  12.427 -1.9956  0.3116  0.4886
14050TIP3    H263566   6.530   5.739  12.353  0.4126  1.1846 -0.7998
14051TIP3   OH263567   1.587   1.640   4.925  0.2953 -0.0104 -0.4797
14051TIP3    H163568   1.541   1.724   4.926 -1.0816 -0.7326  0.6048
14051TIP3    H263569   1.548   1.590   4.997  1.2594 -1.4832 -0.9293
14052TIP3   OH263570   0.559   5.094  13.902 -0.0360 -0.3893  0.2250
14052TIP3    H163571   0.515   5.126  13.981  0.5403 -1.8834  1.1924
14052TIP3    H263572   0.566   5.000  13.914  1.8645 -0.4235 -0.6807
14053TIP3   OH263573   4.315   5.598   0.408  0.0059  0.0264 -0.4469
14053TIP3    H163574   4.273   5.648   0.338 -0.1845  1.3490  0.5603
14053TIP3    H263575   4.281   5.637   0.489  2.8992  0.9868  0.4333
14054TIP3   OH263576   2.777   2.800  13.806 -0.3845  0.0919  0.6814
14054TIP3    H163577   2.792   2.894  13.797 -0.1923 -0.0416 -0.6053
14054TIP3    H263578   2.773   2.768  13.716 -0.7334 -1.0916  1.1001
14055TIP3   OH263579   3.861   6.371   5.395 -0.0438 -0.1033 -0.3663
14055TIP3    H163580   3.890   6.342   5.482 -2.6625  1.7959  1.3243
14055TIP3    H263581   3.936   6.418   5.359  0.6638  0.3745  1.5767
14056TIP3   OH263582   3.522   6.006   1.510  0.0798 -0.0851 -0.7367
14056TIP3    H163583   3.456   6.069   1.539  0.2165 -0.5233  0.5803
14056TIP3    H263584   3.601   6.058   1.495  0.4146 -0.0294  1.0971
14057TIP3   OH263585   3.717   2.885   5.403 -0.6384 -0.0933 -0.3914
14057TIP3    H163586   3.684   2.917   5.319 -2.0975  2.7771  1.1479
14057TIP3    H263587   3.808   2.859   5.385 -0.5034  1.6542 -2.6018
14058TIP3   OH263588   6.410   2.242  15.034  0.2247 -0.4737  0.0598
14058TIP3    H163589   6.394   2.314  15.096  1.5977  1.1472 -1.3773
14058TIP3    H263590   6.378   2.275  14.950  1.2143 -1.4015 -0.7009
14059TIP3   OH263591   3.620   0.955  15.235  0.1514 -0.3207  0.2679
14059TIP3    H163592   3.657   0.992  15.155  0.3148 -0.1456  0.4229
14059TIP3    H263593   3.545   1.011  15.255 -1.5615 -1.9509 -1.2493
14060TIP3   OH263594   1.675   2.366   4.098 -0.3233 -0.5740 -0.5595
14060TIP3    H163595   1.711   2.409   4.176 -1.0300  0.4461 -0.7761
14060TIP3    H263596   1.605   2.424   4.069  0.3742 -0.5869 -2.3623
14061TIP3   OH263597   1.410   4.743   0.288 -0.1412 -0.2970 -0.8363
14061TIP3    H163598   1.375   4.804   0.223 -0.0663 -0.3328 -0.9100
14061TIP3    H263599   1.437   4.799   0.361  0.5413 -0.1772 -1.1757
14062TIP3   OH263600   5.762   3.152  16.512  0.0622 -0.1273  0.3465
14062TIP3    H163601   5.855   3.137  16.531  0.6211  0.3150 -1.7995
14062TIP3    H263602   5.756   3.246  16.495 -0.8922 -0.0674  0.9237
14063TIP3   OH263603   4.160   0.424   6.196  0.3495 -0.1468 -0.6417
14063TIP3    H163604   4.112   0.423   6.279 -1.4136  0.9073 -1.5673
14063TIP3    H263605   4.212   0.344   6.197  0.7632  0.0782  1.6705
14064TIP3   OH263606   2.568   2.172  12.185 -0.1353  0.1240  0.7950
14064TIP3    H163607   2.494   2.163  12.125 -0.1979  1.6895  0.5964
14064TIP3    H263608   2.634   2.221  12.135  1.2762 -1.6858  0.7862
14065TIP3   OH263609   3.509   5.100   3.770 -0.7498 -0.3715 -0.7799
14065TIP3    H163610   3.559   5.162   3.823  1.2944 -2.2699 -0.3645
14065TIP3    H263611   3.559   5.091   3.689 -1.2172 -1.1817 -0.9883
14066TIP3   OH263612   0.862   2.178  15.264  0.2431  0.4032  0.4566
14066TIP3    H163613   0.922   2.181  15.338  0.4064  0.3255  0.3293
14066TIP3    H263614   0.846   2.084  15.250  1.6848  0.2960 -0.7727
14067TIP3   OH263615   6.736   4.004   0.952 -0.1290 -0.4052  0.0071
14067TIP3    H163616   6.774   4.036   0.871  0.4477  1.4831  0.9749
14067TIP3    H263617   6.642   4.016   0.941 -0.1651 -1.3599 -0.8473
14068TIP3   OH263618   1.957   3.945   5.878  0.3954 -0.2954  0.0359
14068TIP3    H163619   1.890   3.976   5.939  1.2056  0.0838  0.7547
14068TIP3    H263620   1.984   4.022   5.829  0.3639 -0.4318 -0.1985
14069TIP3   OH263621   6.278   0.315   3.924 -0.3838  0.1059 -0.1105
14069TIP3    H163622   6.289   0.409   3.907 -2.0158  0.1696 -0.9575
14069TIP3    H263623   6.237   0.311   4.010  0.1334  0.1354  0.1421
14070TIP3   OH263624   2.243   0.174   2.182  0.4652 -0.0354 -0.0492
14070TIP3    H163625   2.168   0.196   2.236 -0.6681 -0.1256 -1.5380
14070TIP3    H263626   2.209   0.117   2.114  2.4179 -2.4802  0.8445
14071TIP3   OH263627   4.153   6.566  12.214  0.5492  0.5020 -0.2057
14071TIP3    H163628   4.152   6.531  12.125 -0.8604 -2.2061  0.7655
14071TIP3    H263629   4.060   6.568  12.239  0.7827  2.8149  0.6785
14072TIP3   OH263630   2.821   6.104  15.292  0.2720 -0.2431  0.4596
14072TIP3    H163631   2.907   6.144  15.303  0.8246 -1.5861  1.2145
14072TIP3    H263632   2.760   6.173  15.320  0.9384  1.3484 -1.7261
14073TIP3   OH263633   4.023   3.236  11.452 -0.1575  0.4686  0.3565
14073TIP3    H163634   4.118   3.233  11.459 -0.1298  1.3782  0.5729
14073TIP3    H263635   4.001   3.164  11.393  0.6312  0.0379  0.5705
14074TIP3   OH263636   3.806   5.560  11.922  0.0492 -0.1432  0.1762
14074TIP3    H163637   3.901   5.570  11.920 -0.0875  1.3329 -2.0034
14074TIP3    H263638   3.786   5.507  11.846 -0.8193 -1.6043  1.3745
14075TIP3   OH263639   5.437   4.136  15.135 -0.3717 -0.8439 -0.3065
14075TIP3    H163640   5.510   4.149  15.195  1.0837 -1.8528 -1.7521
14075TIP3    H263641   5.390   4.060  15.169 -0.8039 -0.1723  0.6475
14076TIP3   OH263642   2.239   6.139   2.934 -0.2171 -0.2274 -0.1982
14076TIP3    H163643   2.225   6.212   2.995 -0.9439 -0.7866  0.3320
14076TIP3    H263644   2.289   6.177   2.862 -0.4518  0.7538  0.1374
14077TIP3   OH263645   4.207   0.888   2.670 -0.5509 -0.0883  0.3157
14077TIP3    H163646   4.293   0.926   2.651 -0.2435 -0.2396  1.3511
14077TIP3    H263647   4.164   0.882   2.584  0.8266 -0.9096 -0.3563
14078TIP3   OH263648   3.059   0.070   1.797 -0.3049 -0.6036 -0.0566
14078TIP3    H163649   3.057   0.087   1.891  2.4849 -3.0661  0.6078
14078TIP3    H263650   3.067  -0.026   1.790  0.2193 -0.4405 -2.7650
14079TIP3   OH263651   2.131   4.813   2.129 -0.1708 -1.0984 -0.5181
14079TIP3    H163652   2.212   4.778   2.092  0.2523 -0.2839 -0.3965
14079TIP3    H263653   2.158   4.857   2.210 -0.0739  2.3677 -2.2475
14080TIP3   OH263654   0.934   5.760   1.907 -0.2912 -0.4352 -0.1710
14080TIP3    H163655   0.849   5.766   1.951 -0.7758 -1.2446 -0.9690
14080TIP3    H263656   0.950   5.666   1.898 -0.2985 -0.2909 -1.8872
14081TIP3   OH263657   5.655   6.448   1.048  0.5503  0.1783 -0.3427
14081TIP3    H163658   5.717   6.432   1.119  0.2104  0.9311  0.1289
14081TIP3    H263659   5.620   6.361   1.027 -0.0413  0.0542  1.0505
14082TIP3   OH263660   1.353   5.431   2.266  0.0210  0.2887 -0.8173
14082TIP3    H163661   1.437   5.397   2.235  0.0773  0.9423 -1.4159
14082TIP3    H263662   1.299   5.354   2.279 -0.5289 -0.0141 -4.0387
14083TIP3   OH263663   2.463   2.473   5.163 -0.2816  0.9451 -0.1984
14083TIP3    H163664   2.534   2.474   5.098 -1.1748 -1.9624 -1.3912
14083TIP3    H263665   2.490   2.537   5.228  3.0824  0.5413 -0.9762
14084TIP3   OH263666   5.196   2.481  15.731  0.3649  0.3476  0.1115
14084TIP3    H163667   5.213   2.445  15.644 -0.3098 -1.4887  0.6868
14084TIP3    H263668   5.258   2.437  15.789  1.1249  1.8861  0.5439
14085TIP3   OH263669   4.416   0.532   6.073  0.0696 -0.2987 -1.1033
14085TIP3    H163670   4.456   0.571   6.150  0.8989  0.1643 -1.7497
14085TIP3    H263671   4.327   0.511   6.100  0.7902 -1.5638  0.4523
14086TIP3   OH263672   5.341   4.568   2.907  0.1010  0.0957  0.2604
14086TIP3    H163673   5.247   4.549   2.917 -0.2506  1.6467  0.0918
14086TIP3    H263674   5.384   4.484   2.926 -1.3974 -1.2193 -1.6109
14087TIP3   OH263675   6.150   1.907   1.158 -0.7724 -0.6158  0.2524
14087TIP3    H163676   6.147   1.957   1.240 -2.2425  0.2680 -0.2862
14087TIP3    H263677   6.080   1.842   1.167 -0.8426 -0.6099 -0.2347
14088TIP3   OH263678   6.514   4.204   5.320  0.3542 -0.2641  1.2122
14088TIP3    H163679   6.538   4.296   5.325  0.3150 -0.2611  1.3579
14088TIP3    H263680   6.440   4.202   5.260  1.3529 -0.4050 -0.0451
14089TIP3   OH263681   1.872   5.214   5.799  0.1242 -0.7363  0.3693
14089TIP3    H163682   1.938   5.272   5.761 -0.9131  0.0023 -0.3411
14089TIP3    H263683   1.818   5.272   5.853  0.1736 -1.3736  1.1123
14090TIP3   OH263684   0.123   4.578   6.480  0.2829  0.2150  0.9561
14090TIP3    H163685   0.207   4.620   6.496  1.0847 -1.5057  1.5907
14090TIP3    H263686   0.145   4.486   6.466 -1.5289 -0.3463  1.5283
14091TIP3   OH263687   2.652   4.207   2.051  0.3225 -0.1587  0.2226
14091TIP3    H163688   2.693   4.253   1.977  0.3111  1.8645  1.4274
14091TIP3    H263689   2.594   4.143   2.009  1.5034 -0.1812 -1.5094
14092TIP3   OH263690   2.146   6.558   1.690 -0.2357  0.4173  0.0605
14092TIP3    H163691   2.184   6.551   1.603  1.5723 -0.2720  0.8446
14092TIP3    H263692   2.107   6.645   1.692  0.3899  0.7476 -1.1832
14093TIP3   OH263693   3.246   3.511   2.952 -0.0019 -0.2327  0.0033
14093TIP3    H163694   3.228   3.604   2.936 -1.4332 -0.6545 -1.0682
14093TIP3    H263695   3.244   3.503   3.047  0.0216  0.8128  0.1088
14094TIP3   OH263696   6.226   6.045  13.243 -0.0648  0.4798  0.0498
14094TIP3    H163697   6.197   6.120  13.192  0.3390  0.9872  0.5536
14094TIP3    H263698   6.196   6.063  13.332 -1.1872 -0.6232 -0.0755
14095TIP3   OH263699   2.769   5.063   2.582 -0.4360  0.4861  0.2096
14095TIP3    H163700   2.789   5.113   2.503  0.6156 -0.7794 -0.3598
14095TIP3    H263701   2.680   5.030   2.567  0.2510 -0.8745 -1.0915
14096TIP3   OH263702   2.097   5.872   3.654 -0.1939 -0.7104 -0.4065
14096TIP3    H163703   2.115   5.778   3.653 -0.7441 -0.8356  0.3571
14096TIP3    H263704   2.055   5.887   3.739 -0.3523  0.1801 -0.6354
14097TIP3   OH263705   1.604   3.033   5.752  0.4496  0.4501 -0.1856
14097TIP3    H163706   1.584   3.089   5.827 -1.0773 -0.4477  0.1238
14097TIP3    H263707   1.623   3.094   5.680 -1.9439  1.4187 -0.0836
14098TIP3   OH263708   5.001   3.392   2.443 -0.7178  0.6611  0.7491
14098TIP3    H163709   5.032   3.302   2.441 -1.2288  0.4940 -0.0632
14098TIP3    H263710   5.080   3.445   2.447 -0.3972  0.1947  0.6785
14099TIP3   OH263711   3.492   2.644  11.242  0.8325 -0.3984  0.0776
14099TIP3    H163712   3.516   2.592  11.165 -0.8058 -1.7604  0.4187
14099TIP3    H263713   3.400   2.667  11.227  1.0396  0.9517  0.7582
14100TIP3   OH263714   0.061   4.400  15.109  0.2780  0.3982 -0.6661
14100TIP3    H163715   0.049   4.337  15.038  1.3842  0.6397 -1.0977
14100TIP3    H263716  -0.026   4.439  15.122  0.0173  0.2225 -1.7701
14101TIP3   OH263717   0.019   3.379  12.583 -0.0286  0.2064 -0.2003
14101TIP3    H163718   0.060   3.357  12.667 -1.8585 -0.5208  0.5805
14101TIP3    H263719  -0.062   3.424  12.607 -1.1459 -0.9807 -1.4883
14102TIP3   OH263720   3.375   4.550  10.726  0.9588  0.0356 -0.1066
14102TIP3    H163721   3.419   4.628  10.759 -0.9322  0.8620  0.6475
14102TIP3    H263722   3.296   4.585  10.684  1.4663 -1.2826 -2.3021
14103TIP3   OH263723   5.208   4.533   4.246  0.0081 -0.0043  0.2110
14103TIP3    H163724   5.259   4.467   4.295 -0.5798 -2.5127 -2.3164
14103TIP3    H263725   5.255   4.615   4.261  1.3194 -1.0984  2.7823
14104TIP3   OH263726   4.265   4.777   4.698 -0.3796 -0.4090 -0.3753
14104TIP3    H163727   4.279   4.716   4.626  1.9008 -0.5089  0.1022
14104TIP3    H263728   4.326   4.849   4.682 -2.3387  1.3379 -0.4029
14105TIP3   OH263729   2.432   3.999  16.090  0.2231  0.3794 -0.0143
14105TIP3    H163730   2.390   3.921  16.126  0.7452 -0.1473 -0.5171
14105TIP3    H263731   2.411   3.998  15.997  0.0914  0.9402  0.0015
14106TIP3   OH263732   5.180   4.444   3.319  0.4715 -0.1777  0.1315
14106TIP3    H163733   5.133   4.507   3.264  0.1292  1.3388  2.0545
14106TIP3    H263734   5.152   4.358   3.287 -0.6579  0.6635 -1.2390
14107TIP3   OH263735   5.176   3.939  15.508  0.0530  0.4680 -0.0839
14107TIP3    H163736   5.139   4.027  15.521 -0.0395  0.1155  2.8390
14107TIP3    H263737   5.102   3.885  15.481 -0.2303  0.9742 -0.3281
14108TIP3   OH263738   0.387   2.797   5.615  0.1089 -0.1939  0.2226
14108TIP3    H163739   0.298   2.772   5.637 -0.5271  0.7344 -1.1579
14108TIP3    H263740   0.384   2.819   5.522  1.3875  1.5342  0.5410
14109TIP3   OH263741   1.942   1.952   0.574  0.1905 -0.2544  0.1602
14109TIP3    H163742   1.979   2.000   0.648 -1.7668 -1.1507  1.7941
14109TIP3    H263743   1.889   2.016   0.527  0.0854 -0.0946  0.4986
14110TIP3   OH263744   2.698   6.252   5.538 -0.0252 -0.6250  0.1940
14110TIP3    H163745   2.709   6.158   5.522  2.6199 -0.1723 -1.0967
14110TIP3    H263746   2.672   6.288   5.453  1.3869  0.0979  0.0449
14111TIP3   OH263747   1.551   4.002  11.462 -0.5032 -0.5163 -0.5577
14111TIP3    H163748   1.485   3.949  11.416 -0.7903 -2.1034  1.5342
14111TIP3    H263749   1.501   4.076  11.498 -0.7972 -0.7182 -0.5447
14112TIP3   OH263750   2.151   0.615   0.528 -0.3466 -0.2475 -0.0905
14112TIP3    H163751   2.131   0.534   0.482  1.5775 -1.2355  0.6773
14112TIP3    H263752   2.187   0.586   0.612 -1.4714  1.4501  1.0399
14113TIP3   OH263753   6.755   5.569  10.802  0.0953 -0.4837 -0.8303
14113TIP3    H163754   6.836   5.616  10.824  0.2161 -1.7539  1.7824
14113TIP3    H263755   6.783   5.496  10.748  1.0434 -1.9447  1.5002
14114TIP3   OH263756   4.540   3.323  12.242  0.2629 -0.3991  0.2186
14114TIP3    H163757   4.551   3.254  12.307 -2.5403 -0.2925  0.9595
14114TIP3    H263758   4.517   3.276  12.161  0.9837 -0.4080  0.0093
14115TIP3   OH263759   0.249   3.650   3.236 -0.0133  0.0548  0.3464
14115TIP3    H163760   0.252   3.746   3.231 -1.8653  0.2210  1.4162
14115TIP3    H263761   0.336   3.624   3.265  0.2493  1.4790  0.9016
14116TIP3   OH263762   1.343   4.047   6.500  0.2937 -0.3609  0.4700
14116TIP3    H163763   1.277   3.988   6.462  1.5034 -0.4309 -1.6954
14116TIP3    H263764   1.310   4.135   6.482 -0.4911 -0.3392  1.8464
14117TIP3   OH263765   1.786   2.788  11.268 -0.1744  0.1673  0.4063
14117TIP3    H163766   1.736   2.870  11.265 -1.1140 -0.4031  0.3410
14117TIP3    H263767   1.834   2.786  11.186  1.9420  1.9355  1.5025
14118TIP3   OH263768   4.794   1.442   4.168 -0.2710  0.3079 -0.7122
14118TIP3    H163769   4.860   1.506   4.141  0.5096 -0.1359  0.1127
14118TIP3    H263770   4.838   1.357   4.162 -1.1256 -0.1071 -1.2549
14119TIP3   OH263771   6.027   0.302  14.290 -0.7655  0.4218 -0.2395
14119TIP3    H163772   6.109   0.350  14.304 -0.2824 -0.1495 -0.9810
14119TIP3    H263773   6.014   0.303  14.195 -1.1555 -0.2326 -0.2050
14120TIP3   OH263774   4.075   4.517  14.117  0.5340 -0.0067 -0.3594
14120TIP3    H163775   4.144   4.537  14.054  0.3065  2.2902  0.0215
14120TIP3    H263776   4.119   4.469  14.187  1.3656 -0.1508 -0.9639
14121TIP3   OH263777   0.839   4.016   0.441  0.5648 -0.1565  0.2877
14121TIP3    H163778   0.844   3.946   0.375 -1.2048 -0.0711  0.0213
14121TIP3    H263779   0.781   3.981   0.508 -1.4952  1.5186 -0.5169
14122TIP3   OH263780   0.883   4.679  12.773  0.1204 -0.4661  0.0142
14122TIP3    H163781   0.951   4.696  12.838 -0.6283 -0.5103  0.8316
14122TIP3    H263782   0.808   4.730  12.804 -0.5627 -1.2847 -0.2758
14123TIP3   OH263783   1.889   5.208   0.683 -0.1762 -0.5854  0.5619
14123TIP3    H163784   1.922   5.261   0.756  0.6808 -1.7175  1.0164
14123TIP3    H263785   1.901   5.117   0.711 -1.3070 -1.0454 -0.3458
14124TIP3   OH263786   2.918   0.536   5.858 -0.1726 -0.1668 -0.0752
14124TIP3    H163787   2.923   0.631   5.857 -0.0910  0.0098  3.4664
14124TIP3    H263788   3.008   0.507   5.844  0.2194  0.4046  1.1507
14125TIP3   OH263789   0.319   1.666  14.936 -0.9281 -0.4044  0.0096
14125TIP3    H163790   0.317   1.578  14.899  0.8106 -1.1708  1.5549
14125TIP3    H263791   0.412   1.686  14.945 -1.2271  2.4159 -2.0644
14126TIP3   OH263792   6.428   0.439  14.935  0.1522  0.6944  0.2049
14126TIP3    H163793   6.435   0.463  14.842 -1.0365 -1.7975 -0.6095
14126TIP3    H263794   6.336   0.416  14.947  0.9533 -2.5630  0.9765
14127TIP3   OH263795   2.325   6.269   4.140  0.5638 -0.4263 -0.3834
14127TIP3    H163796   2.336   6.205   4.210 -0.8943  0.4601  0.7035
14127TIP3    H263797   2.394   6.334   4.155 -0.1646  0.1212  0.6581
14128TIP3   OH263798   5.531   5.056  16.735 -0.4305 -0.9526 -0.6529
14128TIP3    H163799   5.595   4.993  16.767 -0.6509  0.0936  2.1661
14128TIP3    H263800   5.531   5.126  16.801 -2.7598  0.2302 -1.7717
14129TIP3   OH263801   3.592   6.513  13.986 -0.1352 -0.1979  0.0035
14129TIP3    H163802   3.520   6.573  14.005 -1.6101 -1.8438 -0.1310
14129TIP3    H263803   3.558   6.426  14.007  1.2135 -1.2185 -1.6889
14130TIP3   OH263804   0.282   0.921   1.048 -0.7358  0.3736  0.4911
14130TIP3    H163805   0.291   0.989   0.980 -0.0187  0.0513  0.2527
14130TIP3    H263806   0.266   0.841   0.999  1.6400 -0.2124  0.5503
14131TIP3   OH263807   0.969   4.264  11.622 -0.3105  0.4157 -0.7369
14131TIP3    H163808   0.906   4.192  11.619  0.1387 -0.0202  0.0965
14131TIP3    H263809   0.939   4.319  11.694  0.6306 -0.1492  0.1076
14132TIP3   OH263810   2.083   0.261  13.462 -0.0271  0.0394  0.3783
14132TIP3    H163811   2.016   0.308  13.510  0.9113  1.2487  0.5608
14132TIP3    H263812   2.131   0.329  13.414  0.9753 -0.7967  0.1495
14133TIP3   OH263813   4.031   3.211  14.268  0.0202  0.2098  0.4221
14133TIP3    H163814   4.126   3.199  14.268 -0.1172 -1.1394  0.0138
14133TIP3    H263815   4.006   3.199  14.360  0.0945 -1.0598  0.2939
14134TIP3   OH263816   1.280   0.482  12.797  0.5792 -0.1270 -0.5456
14134TIP3    H163817   1.207   0.543  12.793  0.4216 -0.1916  0.9362
14134TIP3    H263818   1.329   0.508  12.875  0.0703 -2.3690  0.5893
14135TIP3   OH263819   2.628   4.659  15.640  0.4239  0.4347  0.3305
14135TIP3    H163820   2.602   4.570  15.617 -0.6192  1.0333 -0.9618
14135TIP3    H263821   2.704   4.648  15.697  1.4372 -1.2593 -1.2240
14136TIP3   OH263822   5.391   2.313   2.836 -0.5517  0.2934 -0.4059
14136TIP3    H163823   5.419   2.278   2.751 -1.9238 -0.7629 -0.4549
14136TIP3    H263824   5.473   2.328   2.884  0.1638 -1.6088 -0.9486
14137TIP3   OH263825   0.148   0.041  16.309  0.0711 -0.5859  0.3162
14137TIP3    H163826   0.059   0.054  16.341 -0.1016 -1.7380  0.3298
14137TIP3    H263827   0.189   0.128  16.316 -0.9135 -0.1414  0.6983
14138TIP3   OH263828   4.029   0.976   2.194 -0.0816 -0.3090  0.8332
14138TIP3    H163829   4.061   1.063   2.219  0.2335 -1.1502  3.8079
14138TIP3    H263830   4.011   0.983   2.100 -0.0407  2.9266  0.9460
14139TIP3   OH263831   3.895   5.631   3.371 -0.1366 -0.3128  0.1021
14139TIP3    H163832   3.945   5.707   3.340 -0.8096  0.1425  0.1188
14139TIP3    H263833   3.804   5.652   3.351 -0.2674 -1.4794 -0.6479
14140TIP3   OH263834   0.706   5.269  17.262 -0.6200 -0.0155 -0.0884
14140TIP3    H163835   0.775   5.335  17.275  1.2276 -1.7050 -0.8728
14140TIP3    H263836   0.647   5.308  17.197 -0.4714  1.4893  0.6456
14141TIP3   OH263837   0.126   2.371   5.546  0.0391  0.5324 -0.4559
14141TIP3    H163838   0.048   2.337   5.590  0.5003 -1.2100 -0.8834
14141TIP3    H263839   0.098   2.453   5.505 -1.4215  0.1933 -0.1822
14142TIP3   OH263840   0.037   4.208   5.643  0.0319 -0.0685  0.4195
14142TIP3    H163841  -0.023   4.144   5.604 -0.1264  0.1559  0.2972
14142TIP3    H263842   0.117   4.158   5.661  0.3234 -0.0411 -0.7306
14143TIP3   OH263843   1.999   0.566  16.153  0.6890 -0.3282  0.3053
14143TIP3    H163844   1.915   0.553  16.110 -0.2719 -0.3434  2.0930
14143TIP3    H263845   1.984   0.640  16.213  1.8337 -0.5766  0.9302
14144TIP3   OH263846   1.574   5.046  16.556 -0.8676 -0.2168  0.1191
14144TIP3    H163847   1.597   5.086  16.472 -1.9720 -1.5177 -0.8628
14144TIP3    H263848   1.640   4.978  16.569 -0.2661  0.4621  0.6945
14145TIP3   OH263849   4.333   3.828  11.278  0.6950 -0.1677 -0.2429
14145TIP3    H163850   4.354   3.811  11.370  0.8048  0.6836 -0.1000
14145TIP3    H263851   4.339   3.743  11.235 -2.4798 -1.2268  1.1102
14146TIP3   OH263852   5.455   2.974   4.610  0.2109  0.5123  0.1868
14146TIP3    H163853   5.461   3.049   4.669  0.4911  3.2863 -3.0646
14146TIP3    H263854   5.535   2.979   4.557 -1.2095 -0.1291 -2.1847
14147TIP3   OH263855   0.704   2.789   3.904  0.3438  0.4098 -0.1908
14147TIP3    H163856   0.721   2.863   3.962  0.9561 -0.9588  1.4767
14147TIP3    H263857   0.609   2.780   3.903  0.3150  0.6310  0.3816
14148TIP3   OH263858   5.652   2.363   2.910  0.0731 -0.1601 -0.1088
14148TIP3    H163859   5.712   2.305   2.958 -0.2532 -0.2647  0.1796
14148TIP3    H263860   5.706   2.403   2.842  0.9303  1.1809  1.2954
14149TIP3   OH263861   0.337   4.231   0.712 -0.6742 -0.0216  0.3645
14149TIP3    H163862   0.330   4.257   0.621  2.0118 -0.0493  0.0640
14149TIP3    H263863   0.383   4.303   0.755 -2.7254  0.4359  1.9777
14150TIP3   OH263864   6.248   1.375   3.061 -0.0687 -0.1822  0.0016
14150TIP3    H163865   6.205   1.299   3.100 -1.4771  1.2510  1.3961
14150TIP3    H263866   6.196   1.396   2.984 -0.7224  0.3396  0.5646
14151TIP3   OH263867   6.544   2.169  12.089 -0.1015 -0.1248  0.4980
14151TIP3    H163868   6.572   2.086  12.051  2.6539  0.4683  1.0339
14151TIP3    H263869   6.495   2.212  12.019 -0.9256 -1.8160 -0.0422
14152TIP3   OH263870   0.072   0.836  14.192  0.5768  0.1085  0.2936
14152TIP3    H163871  -0.002   0.796  14.237  0.3269  1.2441  0.9244
14152TIP3    H263872   0.036   0.914  14.150  0.5575 -1.4629 -2.8805
14153TIP3   OH263873   6.234   5.004  17.378 -0.3256  0.2779  0.3572
14153TIP3    H163874   6.274   4.988  17.463  1.9231  0.7295 -0.5544
14153TIP3    H263875   6.195   5.092  17.387  0.1331  0.4387  0.8456
14154TIP3   OH263876   3.119   2.909  14.258  0.0049  0.1538  0.1271
14154TIP3    H163877   3.062   2.978  14.293 -2.6891 -1.8129 -0.0734
14154TIP3    H263878   3.122   2.927  14.164 -0.4253  0.2003  0.1175
14155TIP3   OH263879   2.580   0.527  14.402 -0.1730  0.6998 -0.1362
14155TIP3    H163880   2.648   0.491  14.344 -0.9149 -3.0285  1.0727
14155TIP3    H263881   2.630   0.571  14.471  0.9081  0.4054 -0.6934
14156TIP3   OH263882   5.882   3.334  10.285 -0.2645  0.1602  0.3897
14156TIP3    H163883   5.880   3.249  10.241  0.6432 -0.3030  1.1974
14156TIP3    H263884   5.839   3.319  10.369  1.3722  0.0447  1.2471
14157TIP3   OH263885   0.641   0.916  12.490 -0.0119  0.1620 -0.2763
14157TIP3    H163886   0.654   0.989  12.551  2.0287 -0.0048 -0.4624
14157TIP3    H263887   0.608   0.957  12.410 -1.8133  0.4874  0.5860
14158TIP3   OH263888   1.488   0.929   1.792 -0.2027  0.2197  0.0682
14158TIP3    H163889   1.474   1.020   1.817  0.8685  0.2488  0.5794
14158TIP3    H263890   1.525   0.887   1.869 -0.2224 -0.5399 -0.3207
14159TIP3   OH263891   2.014   6.591  11.084  0.0582  0.0309 -0.2699
14159TIP3    H163892   2.038   6.590  10.992  0.2182 -0.9817 -0.2296
14159TIP3    H263893   1.937   6.535  11.090 -0.0200  0.1804  0.1989
14160TIP3   OH263894   4.169   5.742   0.648  0.4705 -0.0435  0.1756
14160TIP3    H163895   4.108   5.765   0.718 -0.1290 -0.3036 -0.2546
14160TIP3    H263896   4.179   5.822   0.597  0.4455 -0.0139  0.2177
14161TIP3   OH263897   2.260   0.566  13.627  0.3082 -0.2851  0.7480
14161TIP3    H163898   2.260   0.495  13.691  2.0171 -0.6637  0.3675
14161TIP3    H263899   2.185   0.546  13.570  1.1070 -2.1414  0.2760
14162TIP3   OH263900   3.182   4.721   4.310  0.3485  0.2935 -0.2729
14162TIP3    H163901   3.124   4.647   4.327  0.5436  0.5045  1.5597
14162TIP3    H263902   3.215   4.706   4.222 -0.3205 -1.3215 -0.2877
14163TIP3   OH263903   6.357   4.574  14.161 -0.0146 -0.0392 -0.0075
14163TIP3    H163904   6.379   4.509  14.095 -2.0330 -0.0076 -0.7868
14163TIP3    H263905   6.403   4.545  14.240  1.0645 -1.0334 -0.9700
14164TIP3   OH263906   0.807   6.750   5.697 -0.6184  0.3056 -0.3789
14164TIP3    H163907   0.772   6.667   5.662  0.2984 -0.1748 -0.1820
14164TIP3    H263908   0.866   6.781   5.628 -1.6423  1.2752 -0.8474
14165TIP3   OH263909   0.419   2.008  13.608  0.2737 -0.2136  1.1755
14165TIP3    H163910   0.338   2.058  13.604  1.0322  0.9910 -0.8296
14165TIP3    H263911   0.411   1.944  13.537  0.2960 -1.4061  2.2196
14166TIP3   OH263912   5.540   5.999  17.357  0.5216  0.3338 -0.8959
14166TIP3    H163913   5.501   6.009  17.270  0.9154 -1.6413 -1.3408
14166TIP3    H263914   5.632   5.978  17.340  0.6867  0.2849  0.0184
14167TIP3   OH263915   5.264   2.832   3.482  0.0957  0.3481 -0.2284
14167TIP3    H163916   5.188   2.789   3.522  0.7448 -1.0835 -0.4660
14167TIP3    H263917   5.240   2.925   3.480 -1.7777 -0.0855 -0.5690
14168TIP3   OH263918   0.984   2.375   3.846 -0.2590 -0.4060  0.0509
14168TIP3    H163919   1.027   2.368   3.931  0.2563  0.0261 -0.1666
14168TIP3    H263920   1.029   2.447   3.802 -1.3593  0.2076 -0.1005
14169TIP3   OH263921   3.052   3.936  10.778  0.3286 -0.3446  0.1691
14169TIP3    H163922   3.103   3.980  10.711  2.1021 -2.2876  0.1303
14169TIP3    H263923   2.961   3.952  10.753  0.9146 -0.3893 -2.3128
14170TIP3   OH263924   2.957   3.185   4.580  0.0955  0.3085 -0.9488
14170TIP3    H163925   2.883   3.182   4.519  0.3407  2.6848 -1.4895
14170TIP3    H263926   2.921   3.225   4.659  0.4478  0.0180 -0.6383
14171TIP3   OH263927   0.303   2.761   4.466  0.1871 -0.0102 -0.0895
14171TIP3    H163928   0.351   2.725   4.391 -0.3804 -0.6836 -0.1379
14171TIP3    H263929   0.255   2.836   4.430 -1.1773 -1.1400 -0.7469
14172TIP3   OH263930   2.046   5.875  12.757  0.2140  0.0284 -0.0682
14172TIP3    H163931   2.059   5.854  12.665 -1.7425 -0.3155 -0.2932
14172TIP3    H263932   2.030   5.969  12.759 -3.7695 -0.4860 -0.6588
14173TIP3   OH263933   4.076   5.839   3.345 -0.3513 -0.7633  0.1584
14173TIP3    H163934   4.145   5.791   3.391  0.5079 -0.1040 -0.4165
14173TIP3    H263935   4.062   5.917   3.400 -0.3899 -0.7258  0.0950
14174TIP3   OH263936   3.008   0.936  16.514  0.3804 -0.4227 -0.7067
14174TIP3    H163937   3.022   0.847  16.544  0.9898  0.0000  0.3215
14174TIP3    H263938   2.920   0.936  16.478 -1.6437 -0.3472  3.6693
14175TIP3   OH263939   4.512   6.442   6.092  0.6344 -0.0897  0.0678
14175TIP3    H163940   4.563   6.496   6.152  0.0576  0.2536  0.2657
14175TIP3    H263941   4.500   6.497   6.014 -0.3846  0.2890  0.4676
14176TIP3   OH263942   5.458   2.559  12.213  0.3333 -0.2624  0.2295
14176TIP3    H163943   5.442   2.465  12.203  0.4271 -0.0459 -3.6989
14176TIP3    H263944   5.552   2.569  12.196  0.0538  0.5994 -1.0084
14177TIP3   OH263945   3.648   3.771  15.530  0.6849 -0.5254  0.5956
14177TIP3    H163946   3.700   3.816  15.596  0.9493 -0.5648  0.4138
14177TIP3    H263947   3.710   3.748  15.461  0.4485 -0.6685  0.4274
14178TIP3   OH263948   4.957   6.159   0.245  0.2768 -0.4757 -0.5822
14178TIP3    H163949   5.026   6.114   0.294  0.4156 -0.5591 -0.8489
14178TIP3    H263950   4.999   6.183   0.162  0.4521  0.8498 -0.1455
14179TIP3   OH263951   1.100   1.194   2.431 -0.3080  0.1406 -0.2307
14179TIP3    H163952   1.124   1.198   2.524 -2.4139  0.8473  0.3305
14179TIP3    H263953   1.019   1.142   2.430 -0.9647  1.1522 -1.5136
14180TIP3   OH263954   6.353   2.370  16.547  0.3036 -0.5780  0.0130
14180TIP3    H163955   6.388   2.312  16.615  0.2381 -0.0797  0.4717
14180TIP3    H263956   6.340   2.312  16.472 -2.2943 -1.8074  1.2583
14181TIP3   OH263957   2.614   5.949  12.706 -1.0376 -0.0904 -0.3324
14181TIP3    H163958   2.670   5.902  12.768  0.6230  0.5745 -1.2807
14181TIP3    H263959   2.525   5.928  12.734 -0.3350 -1.6253  0.8875
14182TIP3   OH263960   4.866   1.894   0.487 -0.4226  0.6952 -0.7681
14182TIP3    H163961   4.946   1.865   0.442  0.9061  2.6790  0.2017
14182TIP3    H263962   4.892   1.900   0.579 -2.7037 -1.9424  0.2031
14183TIP3   OH263963   2.567   6.173  11.559 -0.0882  0.1103  0.3163
14183TIP3    H163964   2.505   6.110  11.596 -0.6311 -1.0870 -2.3765
14183TIP3    H263965   2.512   6.244  11.526  0.2214  0.3524  0.3196
14184TIP3   OH263966   0.290   0.294   6.300 -0.2193 -0.0535 -0.6244
14184TIP3    H163967   0.343   0.247   6.236 -0.8904 -1.2653 -0.3168
14184TIP3    H263968   0.273   0.230   6.369 -0.2536  0.9692  0.3430
14185TIP3   OH263969   5.574   4.490   2.156  0.2001  0.2663 -0.6530
14185TIP3    H163970   5.626   4.538   2.220 -0.8356 -0.5930  0.8999
14185TIP3    H263971   5.611   4.515   2.071  0.4312  2.8582  0.1418
14186TIP3   OH263972   0.376   2.699   2.660 -0.2114 -0.6335  0.4372
14186TIP3    H163973   0.403   2.755   2.732 -1.2367 -0.8163  0.9907
14186TIP3    H263974   0.293   2.737   2.630  0.0257 -0.7654 -0.4080
14187TIP3   OH263975   4.976   1.766  17.241  0.2584  0.1371 -0.2458
14187TIP3    H163976   4.955   1.858  17.252  1.0780  0.1832  1.2380
14187TIP3    H263977   5.013   1.759  17.153 -0.3937  1.0900 -0.6067
14188TIP3   OH263978   6.155   1.095  10.268 -0.0532 -0.3504  0.1208
14188TIP3    H163979   6.110   1.015  10.239  0.2413  0.0454 -1.5585
14188TIP3    H263980   6.242   1.065  10.292 -0.7257 -0.9036  2.0326
14189TIP3   OH263981   1.697   3.602   0.024 -0.6464  0.3251  0.4954
14189TIP3    H163982   1.615   3.646   0.044 -1.8885 -1.8378  0.4645
14189TIP3    H263983   1.673   3.534  -0.039  1.7622  1.7225 -2.1690
14190TIP3   OH263984   0.030   5.973   6.207 -0.8640  0.3761 -0.6977
14190TIP3    H163985   0.084   5.929   6.273  0.1410 -1.0602 -2.4111
14190TIP3    H263986  -0.060   5.953   6.233 -0.5411  0.6679  0.7638
14191TIP3   OH263987   0.675   1.708   0.990  0.2964 -0.0867  0.9422
14191TIP3    H163988   0.648   1.798   1.007  0.7672  0.1702  0.3878
14191TIP3    H263989   0.677   1.667   1.076  0.2811  0.4937  1.2274
14192TIP3   OH263990   5.322   5.320   5.940 -0.1862  0.1084  0.0173
14192TIP3    H163991   5.334   5.381   5.868 -0.2002 -0.1366 -0.1910
14192TIP3    H263992   5.248   5.356   5.990  0.9152  1.2495  0.9174
14193TIP3   OH263993   0.767   2.238   1.128 -0.2925  0.5112  0.1861
14193TIP3    H163994   0.796   2.165   1.073  1.2983 -0.5019  2.2406
14193TIP3    H263995   0.839   2.301   1.125 -1.1040  1.4420 -0.5247
14194TIP3   OH263996   2.419   3.849   1.136 -0.5286 -0.0350 -0.5640
14194TIP3    H163997   2.408   3.899   1.056  0.5975  1.1191 -0.0237
14194TIP3    H263998   2.356   3.888   1.197 -0.8239 -0.3935 -0.6316
14195TIP3   OH263999   0.515   6.565   0.885  0.6514  0.2001 -0.2468
14195TIP3    H164000   0.543   6.609   0.965  2.3640  2.3072 -1.9036
14195TIP3    H264001   0.587   6.506   0.864 -0.2748 -1.1720  0.2795
14196TIP3   OH264002   2.777   0.649   0.736  0.2311  0.2385 -0.3208
14196TIP3    H164003   2.726   0.620   0.812 -0.0712 -0.0800 -0.6365
14196TIP3    H264004   2.806   0.568   0.695  0.3154  0.4069 -0.5932
14197TIP3   OH264005   5.037   4.560  16.394  0.1654 -0.2546 -0.4659
14197TIP3    H164006   4.966   4.599  16.343 -0.3465 -0.7876 -0.1709
14197TIP3    H264007   5.115   4.575  16.341 -0.1651  0.3387 -0.7953
14198TIP3   OH264008   1.755   6.594  10.747 -0.4468  0.4495  0.5390
14198TIP3    H164009   1.754   6.671  10.804  2.3294  0.4697  0.6885
14198TIP3    H264010   1.723   6.626  10.663 -1.3155  1.2358  1.1463
14199TIP3   OH264011   2.787   3.281   0.994 -0.2160  0.4309  0.0414
14199TIP3    H164012   2.718   3.235   0.947 -0.0728  0.8596 -0.6188
14199TIP3    H264013   2.819   3.346   0.930  0.7875  0.2359  0.3373
14200TIP3   OH264014   1.158   0.050  14.175 -0.1291  0.6946 -0.1678
14200TIP3    H164015   1.110   0.075  14.096  0.3735 -0.8215 -0.9947
14200TIP3    H264016   1.103  -0.015  14.218  0.5353 -0.0459 -0.4058
14201TIP3   OH264017   0.165   2.500  12.922  0.6303  0.3753  0.1334
14201TIP3    H164018   0.244   2.466  12.966  0.1497 -0.4366  0.4068
14201TIP3    H264019   0.181   2.593  12.912  1.5018  0.2712  0.4639
14202TIP3   OH264020   3.379   2.965  13.102  0.2732  0.7393  0.1804
14202TIP3    H164021   3.427   2.891  13.064 -0.0598  0.3097  0.5802
14202TIP3    H264022   3.349   3.016  13.026  0.1014  0.2061 -0.1151
14203TIP3   OH264023   0.895   6.263   5.434 -0.3401 -0.1143 -0.3259
14203TIP3    H164024   0.895   6.316   5.355 -0.1970 -0.1547 -0.3530
14203TIP3    H264025   0.823   6.200   5.422  0.8427 -1.3472 -1.2527
14204TIP3   OH264026   4.441   4.431  11.635 -0.4189  0.5391  0.3560
14204TIP3    H164027   4.437   4.511  11.583  0.7116 -0.7542 -1.8819
14204TIP3    H264028   4.526   4.435  11.680 -0.5128  0.7447  0.5136
14205TIP3   OH264029   4.318   6.073  12.010 -0.9652  0.0569 -0.2093
14205TIP3    H164030   4.345   6.123  12.087 -1.5094  0.1007 -0.0414
14205TIP3    H264031   4.290   6.140  11.947 -0.0011  0.0508 -0.6561
14206TIP3   OH264032   2.485   1.130  12.630 -0.9241 -0.0932  0.2732
14206TIP3    H164033   2.487   1.152  12.537 -0.9686 -0.4447  0.1909
14206TIP3    H264034   2.409   1.178  12.664  0.1510  1.5454  0.5112
14207TIP3   OH264035   4.831   3.535   1.314  0.3476 -0.1043  0.0744
14207TIP3    H164036   4.906   3.593   1.296  0.4433  0.1451  1.1490
14207TIP3    H264037   4.763   3.594   1.348  0.5549 -0.6240  1.4906
14208TIP3   OH264038   5.396   2.265   5.648  1.0976  0.2584 -0.0111
14208TIP3    H164039   5.440   2.181   5.633 -0.9255 -0.7645 -0.5986
14208TIP3    H264040   5.444   2.327   5.593  2.1117 -0.6721 -0.2141
14209TIP3   OH264041   4.434   6.067   5.805  0.2656 -0.0005  0.4417
14209TIP3    H164042   4.469   6.064   5.716 -2.3570  4.1683 -1.0499
14209TIP3    H264043   4.498   6.119   5.854  1.0276 -1.1249  0.6864
14210TIP3   OH264044   1.462   6.342   0.973  0.2988 -0.2975 -0.1857
14210TIP3    H164045   1.442   6.268   1.031 -0.6927 -0.8474 -1.2097
14210TIP3    H264046   1.501   6.407   1.032 -2.0782 -0.2110  1.4164
14211TIP3   OH264047   3.314   1.013   3.272  0.2150  0.2495 -0.0060
14211TIP3    H164048   3.234   0.983   3.228 -0.7681 -2.1063  3.0433
14211TIP3    H264049   3.283   1.079   3.335  0.7313 -0.2760  0.8168
14212TIP3   OH264050   0.312   3.682  17.119  0.0351  0.3140 -0.1912
14212TIP3    H164051   0.251   3.661  17.048  0.7162 -1.8163 -0.2210
14212TIP3    H264052   0.257   3.715  17.190 -0.8595  0.7220 -1.0578
14213TIP3   OH264053   6.395   0.317   2.072 -0.2700  0.2587 -0.4863
14213TIP3    H164054   6.405   0.367   1.991 -0.6862  0.5063 -0.3868
14213TIP3    H264055   6.480   0.325   2.116 -0.1795  0.4747 -0.6970
14214TIP3   OH264056   3.320   5.292   6.343  0.1802  0.2839 -0.0696
14214TIP3    H164057   3.393   5.339   6.383 -2.1719  2.1062  2.5616
14214TIP3    H264058   3.294   5.347   6.270  0.4267  0.5276  0.0231
14215TIP3   OH264059   0.851   4.696   2.073 -0.0956 -0.1368 -0.3830
14215TIP3    H164060   0.890   4.659   1.993  1.6057  0.2224  0.2276
14215TIP3    H264061   0.813   4.621   2.118  1.7201 -0.9092 -0.0386
14216TIP3   OH264062   1.113   1.642   4.424  0.4421 -0.2447  0.2637
14216TIP3    H164063   1.076   1.556   4.444  0.4497 -0.7337 -1.5866
14216TIP3    H264064   1.207   1.631   4.435  0.3221  0.0702  1.7943
14217TIP3   OH264065   5.412   6.482   5.228 -0.4402 -0.7964 -0.3619
14217TIP3    H164066   5.461   6.475   5.310  0.7332 -1.7875 -1.1095
14217TIP3    H264067   5.322   6.465   5.253 -0.0533 -1.4278  0.6912
14218TIP3   OH264068   5.760   1.274  15.645  0.0055  0.2845 -0.0458
14218TIP3    H164069   5.700   1.301  15.576  0.4679 -1.7219 -1.3179
14218TIP3    H264070   5.769   1.179  15.634  3.5924  0.4801 -0.0905
14219TIP3   OH264071   4.262   1.223  11.508  0.2049  0.1695 -0.1054
14219TIP3    H164072   4.270   1.311  11.545  0.2411  0.5403 -0.9824
14219TIP3    H264073   4.351   1.200  11.481  0.0873  0.1061 -0.4365
14220TIP3   OH264074   0.727   2.588  14.387  0.3256 -0.7432  0.3593
14220TIP3    H164075   0.688   2.572  14.301 -2.0499 -1.1488  1.4123
14220TIP3    H264076   0.668   2.652  14.428  0.9781 -1.1166  1.9648
14221TIP3   OH264077   4.970   2.183  15.019 -0.3687 -0.3297 -0.0840
14221TIP3    H164078   5.056   2.201  14.979  0.2642 -0.3535  1.2193
14221TIP3    H264079   4.909   2.181  14.945  0.6896  0.0893 -0.9929
14222TIP3   OH264080   5.551   5.094   2.284  0.1112 -0.2219  0.8443
14222TIP3    H164081   5.488   5.024   2.301 -0.8486  0.9365  2.2586
14222TIP3    H264082   5.521   5.134   2.202  1.1579 -1.9333 -0.4479
14223TIP3   OH264083   4.996   2.630   2.774 -0.3421  0.0521 -0.1754
14223TIP3    H164084   5.048   2.565   2.821  1.5621  0.1592 -1.9845
14223TIP3    H264085   4.906   2.617   2.806  0.4738 -1.3519  1.7509
14224TIP3   OH264086   1.106   4.806  10.476 -0.5014 -0.0276  0.4179
14224TIP3    H164087   1.181   4.770  10.522 -0.5998 -0.1810  0.4597
14224TIP3    H264088   1.061   4.730  10.440 -0.2062  0.1121 -0.2743
14225TIP3   OH264089   6.402   0.314  13.402  0.8897 -0.1638 -0.1630
14225TIP3    H164090   6.456   0.392  13.388 -0.0113  0.5644  0.2891
14225TIP3    H264091   6.465   0.242  13.407  1.6664  0.3399 -1.8461
14226TIP3   OH264092   5.138   4.943  13.043 -0.0265 -0.2572 -0.3280
14226TIP3    H164093   5.125   4.856  13.080  0.7721 -0.5662 -0.7410
14226TIP3    H264094   5.145   5.001  13.119  0.5998 -0.7359 -0.0116
14227TIP3   OH264095   5.384   3.898   1.523  0.3702  0.4920 -0.0638
14227TIP3    H164096   5.328   3.972   1.496 -1.2171 -1.0236 -1.1268
14227TIP3    H264097   5.431   3.931   1.600 -1.2410  2.1968  0.2727
14228TIP3   OH264098   6.260   2.115   2.025  0.7126 -0.4887  0.0612
14228TIP3    H164099   6.214   2.040   1.987 -0.1232  0.5817 -1.1285
14228TIP3    H264100   6.352   2.102   2.002  0.7230 -1.6072  0.6742
14229TIP3   OH264101   4.824   0.827  15.165 -0.3284  0.8896  0.1367
14229TIP3    H164102   4.755   0.850  15.227 -0.3651 -2.0732  1.3887
14229TIP3    H264103   4.786   0.759  15.110  0.3611  2.0648 -1.9177
14230TIP3   OH264104   4.046   5.265   3.057  0.3390  0.3360  0.4739
14230TIP3    H164105   4.057   5.243   2.965  1.9372  1.8908  0.2454
14230TIP3    H264106   3.955   5.240   3.077 -0.5403  1.3508 -1.9087
14231TIP3   OH264107   0.379   1.668  15.634  0.1863 -0.3719 -0.1186
14231TIP3    H164108   0.291   1.703  15.652  0.8733  1.1703  0.3932
14231TIP3    H264109   0.403   1.620  15.713 -0.7750 -2.1411 -0.8360
14232TIP3   OH264110   2.180   4.178   2.712 -0.1722 -0.1449 -0.1571
14232TIP3    H164111   2.092   4.143   2.722  0.4230 -2.0737 -1.1212
14232TIP3    H264112   2.176   4.233   2.635 -0.3612 -0.9466 -0.7348
14233TIP3   OH264113   4.031   5.985   5.642 -0.1454  0.0990  0.2371
14233TIP3    H164114   4.063   5.953   5.557  0.9240  0.6914  0.4028
14233TIP3    H264115   4.077   5.931   5.706 -1.2799 -0.6460  0.4569
14234TIP3   OH264116   3.030   0.156  14.885 -0.5892 -0.0293  0.0451
14234TIP3    H164117   3.078   0.234  14.912  0.6381 -0.9596  0.6286
14234TIP3    H264118   2.944   0.189  14.859  0.1287  1.5947 -0.4022
14235TIP3   OH264119   4.832   3.355   4.599 -0.4821  0.6637 -0.6946
14235TIP3    H164120   4.748   3.398   4.580 -0.8419 -0.1559 -0.9820
14235TIP3    H264121   4.839   3.286   4.534 -0.1560 -0.0607  0.0924
14236TIP3   OH264122   4.973   0.916   4.581 -0.2618 -0.5071 -0.0708
14236TIP3    H164123   5.027   0.875   4.648 -0.8483  0.7315  1.1963
14236TIP3    H264124   5.036   0.950   4.517  0.2579 -2.6110 -0.7396
14237TIP3   OH264125   0.971   6.229  14.964 -0.2711 -0.6241 -0.1615
14237TIP3    H164126   1.005   6.175  15.035  2.2490  1.1049  0.1040
14237TIP3    H264127   0.913   6.171  14.915 -2.0814 -1.9103  3.1939
14238TIP3   OH264128   0.198   4.098  12.759 -0.2912 -0.0916  0.4123
14238TIP3    H164129   0.243   4.033  12.813 -0.7033 -1.1294 -0.4671
14238TIP3    H264130   0.157   4.047  12.689  0.7111  1.2558 -1.2264
14239TIP3   OH264131   4.487   5.403  11.614  0.0887 -0.2452  0.4666
14239TIP3    H164132   4.554   5.465  11.643  2.0266 -1.6542 -0.7171
14239TIP3    H264133   4.407   5.455  11.609  0.7764  1.2654  3.0426
14240TIP3   OH264134   0.972   1.770  15.580 -0.4497 -0.7060 -0.0017
14240TIP3    H164135   0.885   1.776  15.618 -0.5301  0.3802 -0.3135
14240TIP3    H264136   1.028   1.740  15.651 -0.4926  1.7778  1.2062
14241TIP3   OH264137   0.890   5.283   0.276  0.0711  0.4787 -0.1809
14241TIP3    H164138   0.854   5.370   0.294  1.4511  0.8293  1.1154
14241TIP3    H264139   0.947   5.265   0.350  0.6713 -1.0784 -0.9717
14242TIP3   OH264140   4.450   3.003   5.079  0.4672 -0.1466 -0.5147
14242TIP3    H164141   4.532   3.043   5.110  0.3428 -0.9441  0.8987
14242TIP3    H264142   4.397   3.078   5.052  0.8939  0.5320  0.4623
14243TIP3   OH264143   0.980   5.562  15.450  0.5549 -0.2494  0.1647
14243TIP3    H164144   0.965   5.598  15.537  3.4516 -1.5842  1.3454
14243TIP3    H264145   0.954   5.470  15.456 -0.1232 -0.1353 -0.7065
14244TIP3   OH264146   3.490   2.127  14.325 -0.1841  0.5084 -0.1438
14244TIP3    H164147   3.438   2.180  14.386  1.0054  1.3311  0.1895
14244TIP3    H264148   3.460   2.038  14.340 -1.2479  0.9198  0.2885
14245TIP3   OH264149   6.335   1.436   0.067  0.6221 -0.4363 -0.2065
14245TIP3    H164150   6.283   1.515   0.060  0.6333 -0.4127 -0.0486
14245TIP3    H264151   6.425   1.467   0.075  0.4921 -0.3728  1.5817
14246TIP3   OH264152   2.451   2.272   5.413 -0.7652 -0.2994 -0.2713
14246TIP3    H164153   2.537   2.277   5.454 -0.4451 -0.5735 -0.8944
14246TIP3    H264154   2.392   2.315   5.475  0.2574  2.5611 -1.1482
14247TIP3   OH264155   5.094   5.822   2.293 -0.0269  0.6114  0.3941
14247TIP3    H164156   5.092   5.895   2.231 -1.5106 -0.4559 -0.9121
14247TIP3    H264157   5.011   5.776   2.278  1.2205 -1.8509  0.4978
14248TIP3   OH264158   5.203   2.886  14.624 -0.5463 -0.3749 -0.0627
14248TIP3    H164159   5.161   2.847  14.548 -0.3005  0.3567 -0.5830
14248TIP3    H264160   5.138   2.947  14.660 -0.3838 -0.1485 -0.1475
14249TIP3   OH264161   3.491   5.353   3.289  0.0999 -0.2058 -0.3092
14249TIP3    H164162   3.396   5.362   3.292  0.2461  1.2207  2.1314
14249TIP3    H264163   3.507   5.262   3.314 -0.5693  0.0606  1.1371
14250TIP3   OH264164   4.033   6.672   2.155 -0.1451  0.2616  0.3951
14250TIP3    H164165   4.037   6.765   2.179 -1.3236  0.1354  1.1779
14250TIP3    H264166   3.944   6.660   2.123  0.4463 -0.2939 -1.0986
14251TIP3   OH264167   4.236   6.235   6.197  0.5178  0.0909  0.0478
14251TIP3    H164168   4.164   6.233   6.260  0.6843 -0.9042  0.2312
14251TIP3    H264169   4.315   6.246   6.251  0.5883  0.0846 -0.0524
14252TIP3   OH264170   1.489   2.945   1.867 -0.1210  0.6125  0.2007
14252TIP3    H164171   1.474   2.993   1.786  1.1464  1.3733  0.3737
14252TIP3    H264172   1.563   2.888   1.848  0.5443  1.1930  0.9475
14253TIP3   OH264173   1.181   1.611  11.805  0.1159  0.4861  0.4969
14253TIP3    H164174   1.146   1.690  11.849 -2.0323 -0.3288  0.3864
14253TIP3    H264175   1.110   1.547  11.813  0.6952 -0.5430 -1.8831
14254TIP3   OH264176   1.397   6.261  13.078  0.3925  0.0044  0.4328
14254TIP3    H164177   1.367   6.293  12.993  0.6257  0.5799  0.5660
14254TIP3    H264178   1.492   6.269  13.075  0.3121  2.4126  1.6522
14255TIP3   OH264179   6.376   0.537  12.213 -0.2953 -0.7407 -0.1763
14255TIP3    H164180   6.434   0.532  12.288 -1.8886 -0.6365  1.1217
14255TIP3    H264181   6.423   0.490  12.143  1.9664  0.6412  0.3191
14256TIP3   OH264182   2.661   0.410   5.367 -0.2249  0.0239  0.1191
14256TIP3    H164183   2.587   0.350   5.367  0.5104 -0.9079  0.0600
14256TIP3    H264184   2.666   0.442   5.277 -2.2745  2.3266  0.7258
14257TIP3   OH264185   3.843   6.417   0.034 -0.1128 -0.3950 -0.8918
14257TIP3    H164186   3.757   6.418  -0.009  0.5167  0.6328 -2.2367
14257TIP3    H264187   3.873   6.507   0.026  0.7703 -0.5814  0.2538
14258TIP3   OH264188   0.657   1.776   5.789 -0.0475 -0.1636  0.1101
14258TIP3    H164189   0.632   1.728   5.710  1.0509 -0.0490 -0.3300
14258TIP3    H264190   0.581   1.769   5.846 -1.4838  1.0255 -1.5259
14259TIP3   OH264191   0.346   2.863  15.998 -0.0348 -0.0845  0.3957
14259TIP3    H164192   0.262   2.879  16.040  0.7489 -0.2019  2.0636
14259TIP3    H264193   0.329   2.879  15.905 -2.0073 -0.6007  0.6265
14260TIP3   OH264194   5.875   6.514  11.192 -0.6657 -0.0949 -0.6701
14260TIP3    H164195   5.819   6.501  11.268 -0.3131 -0.8932 -0.5343
14260TIP3    H264196   5.917   6.599  11.206  0.3508 -0.7846  0.6556
14261TIP3   OH264197   5.764   4.186  12.645  0.1927  0.1445  0.0309
14261TIP3    H164198   5.749   4.188  12.550 -0.0875 -0.2254  0.0646
14261TIP3    H264199   5.859   4.181  12.654  0.1699 -1.1520 -0.2640
14262TIP3   OH264200   0.438   5.077  15.302 -0.2517 -0.2406  0.5461
14262TIP3    H164201   0.438   5.013  15.232  0.0635  0.5220 -0.1734
14262TIP3    H264202   0.414   5.160  15.260 -0.1285  0.2205  1.3432
14263TIP3   OH264203   2.611   1.934  13.790 -0.1625 -0.2005 -0.0827
14263TIP3    H164204   2.632   1.918  13.882 -0.9871  0.4930  0.2352
14263TIP3    H264205   2.662   2.011  13.766 -2.3333  1.6175  0.7510
14264TIP3   OH264206   1.741   0.130  14.659 -0.5391  0.1810 -0.8716
14264TIP3    H164207   1.662   0.125  14.605 -1.7636 -0.5590  0.9064
14264TIP3    H264208   1.708   0.137  14.749  1.4233  1.9022 -0.2265
14265TIP3   OH264209   1.807   3.292  16.247  0.1812  0.2619 -0.2534
14265TIP3    H164210   1.819   3.286  16.341 -0.2997 -1.7061 -0.2754
14265TIP3    H264211   1.872   3.357  16.218  2.4290 -1.2590  1.0732
14266TIP3   OH264212   3.119   5.452  14.983  0.1286 -0.6113 -0.1623
14266TIP3    H164213   3.206   5.449  14.941 -0.3299 -0.6790 -1.1449
14266TIP3    H264214   3.061   5.412  14.918 -0.7698  0.1794  0.1475
14267TIP3   OH264215   3.254   5.728   1.527  0.0106 -0.2883  0.0194
14267TIP3    H164216   3.174   5.696   1.485 -0.6330 -0.4500  1.3473
14267TIP3    H264217   3.267   5.671   1.602  0.6000  0.6079  0.6187
14268TIP3   OH264218   3.234   3.964  10.973  0.1285 -0.6196 -0.0686
14268TIP3    H164219   3.162   3.961  10.911  0.7059  2.5724 -1.1209
14268TIP3    H264220   3.195   3.941  11.058 -1.0064 -3.5551 -1.2718
14269TIP3   OH264221   1.319   1.735   6.131  0.3125 -0.0091  0.5299
14269TIP3    H164222   1.295   1.787   6.054  1.3515  2.2268  1.6109
14269TIP3    H264223   1.239   1.689   6.155 -0.1167 -0.5141 -1.6634
14270TIP3   OH264224   0.612   4.594   4.672 -0.1552 -0.0317  0.6390
14270TIP3    H164225   0.598   4.666   4.610 -0.0759  0.0730  0.7397
14270TIP3    H264226   0.679   4.539   4.631 -0.8631 -0.5416  0.1513
14271TIP3   OH264227   2.472   0.249  13.524 -0.2076 -0.0888 -0.1947
14271TIP3    H164228   2.468   0.164  13.481  0.6270  0.3623 -1.2059
14271TIP3    H264229   2.430   0.309  13.462  0.1437  0.4132  0.0477
14272TIP3   OH264230   6.115   1.700  12.865  0.2044  0.7554  0.3825
14272TIP3    H164231   6.169   1.681  12.788 -0.1613 -0.4205  0.3956
14272TIP3    H264232   6.178   1.718  12.935  0.5568  0.4806  0.1356
14273TIP3   OH264233   3.797   0.155   2.333 -0.7248 -0.0671 -0.6362
14273TIP3    H164234   3.828   0.142   2.423 -0.7753 -2.0077 -0.8714
14273TIP3    H264235   3.876   0.151   2.280 -0.6318  1.5673 -0.6810
14274TIP3   OH264236   2.346   0.544   4.428  0.0644 -0.0570  0.5116
14274TIP3    H164237   2.375   0.635   4.430  0.1194 -0.0850  1.0753
14274TIP3    H264238   2.256   0.546   4.458  0.0446 -0.1795  0.4611
14275TIP3   OH264239   0.765   1.853   5.464  0.1895  0.8186  0.4165
14275TIP3    H164240   0.679   1.835   5.500  0.2567 -0.8101 -0.1602
14275TIP3    H264241   0.752   1.855   5.369  0.8094  0.3868  0.3130
14276TIP3   OH264242   5.650   3.066  13.356 -0.0948 -0.4717  0.2873
14276TIP3    H164243   5.730   3.118  13.350 -0.6459  0.4588  0.9399
14276TIP3    H264244   5.601   3.104  13.429 -0.5265 -1.8830  0.7784
14277TIP3   OH264245   2.574   5.328  11.934  0.1748  0.8963 -0.1425
14277TIP3    H164246   2.631   5.291  12.001 -0.1737  0.5941 -0.0092
14277TIP3    H264247   2.487   5.325  11.973 -0.2646 -0.6308 -1.1404
14278TIP3   OH264248   6.717   6.470   1.648  0.0634  0.1373  0.0445
14278TIP3    H164249   6.683   6.455   1.736  1.7459 -0.6487  0.5953
14278TIP3    H264250   6.800   6.515   1.661  0.7532 -0.7475 -1.0934
14279TIP3   OH264251   6.592   3.165  11.970  0.1802  0.0531  0.0090
14279TIP3    H164252   6.555   3.137  12.054  1.0710 -0.2445  0.3153
14279TIP3    H264253   6.556   3.104  11.906 -0.3123  0.1294  0.2046
14280TIP3   OH264254   0.482   5.225   3.298  0.5064 -0.3918 -0.2639
14280TIP3    H164255   0.453   5.267   3.218 -1.4126 -3.9596 -1.6666
14280TIP3    H264256   0.564   5.181   3.274 -0.4799 -2.1418 -0.6654
14281TIP3   OH264257   1.948   4.939   1.982  0.8096  0.2168  0.5531
14281TIP3    H164258   2.003   4.885   2.038 -0.5271 -1.6778  0.1776
14281TIP3    H264259   1.990   5.024   1.980  3.0496 -0.8073  1.1982
14282TIP3   OH264260   5.864   5.961  12.394  0.3635  0.3660  0.3110
14282TIP3    H164261   5.843   5.874  12.358  0.8300  0.8774 -1.3038
14282TIP3    H264262   5.801   6.019  12.352 -1.2694  0.6084  2.8772
14283TIP3   OH264263   6.257   4.809   2.414  0.2530 -0.3725  0.3265
14283TIP3    H164264   6.281   4.768   2.331 -1.3200  0.6939 -0.6974
14283TIP3    H264265   6.339   4.845   2.447  0.4194  2.5837 -2.7201
14284TIP3   OH264266   1.411   2.590   6.394 -0.0943  0.1050  1.0362
14284TIP3    H164267   1.504   2.608   6.404 -0.3429  0.9796  2.0852
14284TIP3    H264268   1.371   2.629   6.472 -1.5124  1.2096 -0.1711
14285TIP3   OH264269   0.521   3.883  10.659 -0.1304 -0.4381  0.2491
14285TIP3    H164270   0.554   3.806  10.705 -0.6598  0.4300  2.1858
14285TIP3    H264271   0.488   3.850  10.576 -0.0205 -2.2434  0.8957
14286TIP3   OH264272   2.841   6.437  14.884  0.0392  0.1729 -0.3267
14286TIP3    H164273   2.827   6.488  14.964  1.7761 -0.5327  0.4968
14286TIP3    H264274   2.934   6.449  14.865 -0.0866 -0.6489 -1.5640
14287TIP3   OH264275   0.043   1.948   5.438  0.2596  0.0874  0.0937
14287TIP3    H164276   0.117   1.954   5.499  1.0109  3.1916 -0.9241
14287TIP3    H264277   0.057   2.020   5.377 -3.2775  0.4084 -0.5341
14288TIP3   OH264278   5.764   2.429   0.151  0.7119 -0.0021  0.2799
14288TIP3    H164279   5.691   2.437   0.213  1.2892 -0.2326  0.9935
14288TIP3    H264280   5.842   2.423   0.205  1.1241 -1.4545 -0.4254
14289TIP3   OH264281   0.404   1.892  15.196  0.4405  0.3084 -0.1990
14289TIP3    H164282   0.436   1.957  15.133  0.4192  0.5804  0.0708
14289TIP3    H264283   0.483   1.847  15.225  0.5464  0.7520  0.2118
14290TIP3   OH264284   0.282   2.274  15.546 -0.3323  0.2782  0.0866
14290TIP3    H164285   0.352   2.332  15.577  1.2288 -1.3713 -0.2577
14290TIP3    H264286   0.257   2.224  15.623  0.8361 -1.0796 -0.3825
14291TIP3   OH264287   1.145   3.949  10.817 -0.3578  0.4138 -0.5554
14291TIP3    H164288   1.195   3.873  10.788  0.7199  0.6155  0.6726
14291TIP3    H264289   1.159   4.015  10.750  0.4053  0.2031 -0.6078
14292TIP3   OH264290   2.903   1.828  16.840  0.2520 -0.9591 -0.2481
14292TIP3    H164291   2.979   1.772  16.820 -0.0730 -0.9988 -1.4388
14292TIP3    H264292   2.940   1.915  16.855  0.6018 -1.1440 -0.0201
14293TIP3   OH264293   6.053   3.792  11.094 -0.6042 -0.4737  0.4548
14293TIP3    H164294   6.051   3.793  11.190  0.8149  0.5772  0.5174
14293TIP3    H264295   6.050   3.700  11.071 -2.8403 -0.6903  1.4095
14294TIP3   OH264296   2.090   2.624   5.509 -0.5399  0.0371 -0.1114
14294TIP3    H164297   2.134   2.593   5.430 -0.5868 -0.5740  0.0969
14294TIP3    H264298   2.139   2.584   5.581  0.3165  1.6295  0.2385
14295TIP3   OH264299   4.924   2.529  14.598  0.5504  0.8539  0.3436
14295TIP3    H164300   4.921   2.501  14.689 -1.0399 -1.8161 -0.4279
14295TIP3    H264301   5.012   2.505  14.568 -0.0036 -1.4209  0.3502
14296TIP3   OH264302   4.548   2.643   0.638  0.0648 -0.0617 -0.2082
14296TIP3    H164303   4.604   2.596   0.699 -1.2983  0.5830  1.6411
14296TIP3    H264304   4.462   2.645   0.681 -0.5776  1.7534 -1.4426
14297TIP3   OH264305   5.786   2.640   3.170  0.0561 -0.5061 -0.4402
14297TIP3    H164306   5.694   2.616   3.182 -0.0256 -1.3255 -2.3492
14297TIP3    H264307   5.792   2.730   3.203 -0.6580 -1.4455  2.6540
14298TIP3   OH264308   5.010   5.171   5.840 -0.4232  0.6365  0.1265
14298TIP3    H164309   4.964   5.202   5.918 -1.2543 -0.9711  0.3047
14298TIP3    H264310   5.101   5.199   5.853 -0.0550 -1.4176  2.7586
14299TIP3   OH264311   1.900   6.728  13.068 -0.0674 -0.7997  0.3718
14299TIP3    H164312   1.989   6.724  13.032  0.1485  0.6647  0.6673
14299TIP3    H264313   1.911   6.767  13.155 -0.8915 -1.6137  0.8537
14300TIP3   OH264314   0.398   3.279   2.926 -0.5136  0.2035  0.5213
14300TIP3    H164315   0.359   3.364   2.945 -0.1083  0.1224  1.8091
14300TIP3    H264316   0.479   3.299   2.880 -1.7127  0.3935 -1.6104
14301TIP3   OH264317   2.675   1.444   4.826 -0.0158  0.2233 -0.0913
14301TIP3    H164318   2.706   1.481   4.908  0.6882  0.8014 -0.6044
14301TIP3    H264319   2.730   1.367   4.812 -1.8719 -1.4303  1.2759
14302TIP3   OH264320   5.863   1.670   6.020 -0.1734 -0.7789 -0.3685
14302TIP3    H164321   5.933   1.707   6.075  0.1742  0.3874 -1.5464
14302TIP3    H264322   5.791   1.655   6.081  0.5610 -0.5254  0.6003
14303TIP3   OH264323   1.893   0.678  15.007 -0.3322  0.2849 -0.5707
14303TIP3    H164324   1.954   0.606  14.989  0.4440  0.4367  1.2786
14303TIP3    H264325   1.921   0.748  14.947  1.5769  0.4556  0.4285
14304TIP3   OH264326   2.368   2.556  11.720  0.0559 -0.3616 -0.4221
14304TIP3    H164327   2.324   2.640  11.732  0.2321 -0.1198 -1.4100
14304TIP3    H264328   2.461   2.576  11.723  0.1543 -0.9360  2.0840
14305TIP3   OH264329   2.086   1.989  12.804  0.0083  0.4193  0.0770
14305TIP3    H164330   1.994   1.963  12.800  0.0940  0.2346 -1.3979
14305TIP3    H264331   2.129   1.930  12.741  1.1543  0.4180  0.8459
14306TIP3   OH264332   6.072   5.200  15.419  0.8020  0.2080  0.0532
14306TIP3    H164333   5.991   5.251  15.412  0.1721 -0.7644 -0.1091
14306TIP3    H264334   6.109   5.224  15.503  0.1863  0.4615  0.2557
14307TIP3   OH264335   2.321   2.039  17.195  0.0984  0.0516  1.1868
14307TIP3    H164336   2.229   2.062  17.209  0.0053  0.0196  0.6738
14307TIP3    H264337   2.318   1.971  17.127  0.5329  0.4552  0.7555
14308TIP3   OH264338   4.209   2.964  11.488  0.8240  0.9711 -0.2916
14308TIP3    H164339   4.220   3.046  11.441 -1.9204  2.0934  0.8073
14308TIP3    H264340   4.178   2.902  11.422  1.8021  1.1262 -0.9051
14309TIP3   OH264341   6.183   4.940  11.147 -0.1672  0.2095 -0.7318
14309TIP3    H164342   6.115   4.991  11.103  0.1763  0.0146 -1.5138
14309TIP3    H264343   6.173   4.852  11.111 -2.2892 -0.9570  2.3130
14310TIP3   OH264344   2.279   3.353  14.104  0.2939  0.5035 -0.1572
14310TIP3    H164345   2.243   3.441  14.092  1.0536  0.9950  0.9511
14310TIP3    H264346   2.268   3.336  14.198  2.6721  0.6043  0.1952
14311TIP3   OH264347   2.605   0.165   0.513 -0.0422 -0.2927  0.5817
14311TIP3    H164348   2.679   0.144   0.570 -0.7001  0.0106  1.5811
14311TIP3    H264349   2.605   0.096   0.447  0.7069 -0.6856  0.9833
14312TIP3   OH264350   0.876   4.544   5.389 -0.7050  0.3183 -0.8160
14312TIP3    H164351   0.814   4.486   5.433  0.7800 -1.3600 -0.8524
14312TIP3    H264352   0.919   4.592   5.459  0.0578 -0.7114 -0.5584
14313TIP3   OH264353   5.397   4.278   2.730  0.0654  0.0387  0.5306
14313TIP3    H164354   5.487   4.249   2.717  0.8810  1.6575  2.0902
14313TIP3    H264355   5.374   4.250   2.818 -0.3381  1.0956  0.7816
14314TIP3   OH264356   1.420   3.533  16.596 -0.9860 -0.2642  0.0361
14314TIP3    H164357   1.487   3.477  16.636 -0.3630 -0.0092 -0.6317
14314TIP3    H264358   1.410   3.498  16.507 -1.3392  0.0500 -0.0507
14315TIP3   OH264359   6.656   3.829  12.816  0.1243 -0.5798 -0.4283
14315TIP3    H164360   6.640   3.742  12.853 -0.1966 -1.3617 -2.2751
14315TIP3    H264361   6.657   3.814  12.721  1.2197  1.2480 -0.7439
14316TIP3   OH264362   5.261   6.071   1.214  0.3377  0.1014  0.7646
14316TIP3    H164363   5.352   6.071   1.182 -0.0566 -0.6339 -0.4067
14316TIP3    H264364   5.267   6.107   1.303  1.4154  2.8346 -0.2839
14317TIP3   OH264365   1.746   4.715  13.249 -0.0087  0.4634  0.2240
14317TIP3    H164366   1.706   4.801  13.263 -0.1005  0.2088  1.8291
14317TIP3    H264367   1.801   4.702  13.326 -0.6826 -1.2761  0.4657
14318TIP3   OH264368   2.559   3.369  14.043 -0.3706  0.3659  0.1749
14318TIP3    H164369   2.555   3.443  14.103 -0.6494 -0.4025  1.1166
14318TIP3    H264370   2.471   3.332  14.043 -0.0364 -0.4717  0.3690
14319TIP3   OH264371   3.034   4.148   3.490 -0.3837 -0.2988 -0.2410
14319TIP3    H164372   3.122   4.183   3.478 -0.6377 -0.0160 -1.5419
14319TIP3    H264373   2.980   4.225   3.507 -0.2911 -0.5408  1.2241
14320TIP3   OH264374   5.857   0.184  12.926 -0.6894 -0.1708  0.0932
14320TIP3    H164375   5.790   0.125  12.890 -1.6007 -0.8423  2.6145
14320TIP3    H264376   5.885   0.237  12.852 -2.8248 -1.0113 -1.4314
14321TIP3   OH264377   6.397   2.162  12.349 -0.7545  0.8771  0.1282
14321TIP3    H164378   6.429   2.184  12.262 -1.7145  1.2342 -0.1396
14321TIP3    H264379   6.422   2.070  12.361  1.6471  1.5285  0.5274
14322TIP3   OH264380   5.211   5.209   2.468 -0.0184  0.3938 -0.7206
14322TIP3    H164381   5.141   5.165   2.517  0.3560  1.1071  0.5201
14322TIP3    H264382   5.168   5.285   2.428  0.2602  1.6440  1.2122
14323TIP3   OH264383   1.439   0.664   2.557  0.0160  1.0685  0.1534
14323TIP3    H164384   1.345   0.648   2.547  0.0242  1.2928 -0.2738
14323TIP3    H264385   1.476   0.577   2.572 -0.3459  1.0518  1.0668
14324TIP3   OH264386   4.539   0.955  13.558  0.9188 -0.1102 -0.2007
14324TIP3    H164387   4.498   0.891  13.500  0.6052  0.7563 -0.9572
14324TIP3    H264388   4.529   1.038  13.513 -0.3322  0.7752  1.6062
14325TIP3   OH264389   1.060   1.749   2.838  0.3414  0.0937  0.3434
14325TIP3    H164390   1.079   1.662   2.802  1.0195  0.2595  0.2797
14325TIP3    H264391   1.106   1.750   2.922 -0.0405  0.2308  0.5518
14326TIP3   OH264392   5.705   0.686  14.251 -0.3312 -0.0451 -0.1067
14326TIP3    H164393   5.704   0.775  14.217  0.2472 -0.3949 -1.0946
14326TIP3    H264394   5.647   0.637  14.193 -0.2502 -0.4159  0.1179
14327TIP3   OH264395   0.288   6.705  14.918  0.6730 -0.5806 -0.5219
14327TIP3    H164396   0.320   6.627  14.964  1.2155  0.2038  0.4627
14327TIP3    H264397   0.252   6.671  14.836 -0.1486 -1.9827  0.3911
14328TIP3   OH264398   1.674   3.093  16.120 -0.8483 -0.1107 -0.3953
14328TIP3    H164399   1.720   3.010  16.104 -0.1830  0.0893  0.3898
14328TIP3    H264400   1.736   3.145  16.172 -0.7886  1.3351 -1.8274
14329TIP3   OH264401   3.493   6.686   2.137 -0.5685  0.1522 -0.9848
14329TIP3    H164402   3.493   6.734   2.054 -0.2236  0.9421 -0.5360
14329TIP3    H264403   3.400   6.681   2.161 -0.7182 -0.5032 -1.6443
14330TIP3   OH264404   2.343   3.179  11.249 -0.0498 -0.1749 -0.0906
14330TIP3    H164405   2.369   3.136  11.167  0.0518 -1.0637  0.3999
14330TIP3    H264406   2.272   3.125  11.283 -0.0618  0.1695  0.4338
14331TIP3   OH264407   0.666   4.095   4.760 -0.3749 -0.3861 -0.0483
14331TIP3    H164408   0.701   4.178   4.792 -1.5120  0.2086 -0.3035
14331TIP3    H264409   0.727   4.029   4.792  0.1107  0.4727  0.8283
14332TIP3   OH264410   6.222   5.283  16.862 -0.0659  0.0403 -0.1159
14332TIP3    H164411   6.312   5.292  16.893 -0.3247  0.8858  0.4264
14332TIP3    H264412   6.184   5.370  16.871 -0.3930  0.1418 -2.1551
14333TIP3   OH264413   4.562   5.517   1.105 -0.1835  0.0564  0.0131
14333TIP3    H164414   4.623   5.475   1.044 -0.7542  0.6785 -1.0203
14333TIP3    H264415   4.616   5.582   1.151  0.4674 -1.0655  0.8907
14334TIP3   OH264416   4.398   1.650   0.413 -0.4383 -0.0813 -0.3951
14334TIP3    H164417   4.432   1.640   0.324  0.7610  0.3298  0.0038
14334TIP3    H264418   4.304   1.635   0.404 -0.0557 -2.3886 -1.3647
14335TIP3   OH264419   3.189   1.429   4.461  0.3409 -0.4977  0.4154
14335TIP3    H164420   3.207   1.499   4.399 -0.2240 -1.4799 -0.9045
14335TIP3    H264421   3.176   1.474   4.544 -1.1106  1.0837 -0.6015
14336TIP3   OH264422   5.960   5.228   0.394 -0.2736 -0.0740 -0.6084
14336TIP3    H164423   6.051   5.258   0.390 -0.1868 -0.4457 -1.8176
14336TIP3    H264424   5.909   5.308   0.402  0.2144  0.0580  1.9395
14337TIP3   OH264425   4.114   1.929  11.465 -0.2145  0.0669 -0.4558
14337TIP3    H164426   4.110   2.024  11.481  0.3828  0.1817 -0.9633
14337TIP3    H264427   4.138   1.921  11.373 -1.1730 -0.5887 -0.6639
14338TIP3   OH264428   5.371   5.753  14.679  0.4465  0.0143  0.5025
14338TIP3    H164429   5.425   5.674  14.688  0.0359 -0.3871 -0.4122
14338TIP3    H264430   5.304   5.745  14.747  1.7111  0.6908  1.8891
14339TIP3   OH264431   2.381   6.467  15.608  0.4255  0.2512  0.0348
14339TIP3    H164432   2.393   6.528  15.681 -0.1728  0.3865  0.0207
14339TIP3    H264433   2.417   6.514  15.533  2.7476 -0.5919  0.5240
14340TIP3   OH264434   5.982   0.751  16.981  0.4286  0.1908 -0.4353
14340TIP3    H164435   5.958   0.774  16.891  0.7350  1.3156 -0.2399
14340TIP3    H264436   6.051   0.813  17.004 -0.2844  0.5287  0.8944
14341TIP3   OH264437   3.356   1.727   2.928 -0.2811  0.0197 -0.2818
14341TIP3    H164438   3.307   1.718   2.846 -0.8978 -1.5478  0.2080
14341TIP3    H264439   3.446   1.704   2.905 -0.2706  0.4693 -0.6948
14342TIP3   OH264440   6.648   6.260  17.144  0.6582 -0.1520  0.4496
14342TIP3    H164441   6.661   6.351  17.171 -0.3618 -0.5448  2.4359
14342TIP3    H264442   6.737   6.227  17.128  1.1376  0.7957  1.0823
14343TIP3   OH264443   4.967   4.846   4.735  0.1648  0.8015  0.3595
14343TIP3    H164444   4.933   4.798   4.810 -0.3257  1.8374  0.8122
14343TIP3    H264445   4.916   4.813   4.661  1.1077 -0.7098  0.3414
14344TIP3   OH264446   0.221   3.235  11.263 -0.3263 -0.0587  0.2797
14344TIP3    H164447   0.262   3.321  11.259 -0.6091  0.1355  1.3308
14344TIP3    H264448   0.183   3.223  11.175  0.2873  0.5891 -0.0829
14345TIP3   OH264449   3.288   0.803   1.732 -0.0936  0.1398  0.1672
14345TIP3    H164450   3.284   0.775   1.640 -1.4392 -1.6493  0.7234
14345TIP3    H264451   3.285   0.899   1.728 -0.2156  0.0947 -1.6369
14346TIP3   OH264452   0.981   3.840  12.308  0.1435 -0.4958 -0.6659
14346TIP3    H164453   1.053   3.793  12.267  0.6383 -1.5209  1.2398
14346TIP3    H264454   0.936   3.883  12.236  3.1062  0.8665 -1.8552
14347TIP3   OH264455   0.932   6.095  16.924  0.0061  0.2902  0.1234
14347TIP3    H164456   0.979   6.109  17.007 -1.1525  0.1600  0.8250
14347TIP3    H264457   0.858   6.155  16.928 -1.6792 -1.7215  0.4971
14348TIP3   OH264458   0.557   1.859  14.348 -0.3436  0.4409 -0.0257
14348TIP3    H164459   0.574   1.824  14.436 -0.0515  1.6882  0.4308
14348TIP3    H264460   0.568   1.784  14.290 -0.6410 -0.4314  1.0127
14349TIP3   OH264461   1.872   1.037  15.132  0.0321  0.1429 -0.1788
14349TIP3    H164462   1.781   1.015  15.151  0.2561 -0.4929  0.1677
14349TIP3    H264463   1.922   0.959  15.157  0.7799  0.8378  0.5469
14350TIP3   OH264464   4.093   3.511   6.099  0.7202  0.1976 -0.4176
14350TIP3    H164465   4.132   3.527   6.185 -1.3524 -0.4813  0.6989
14350TIP3    H264466   4.044   3.430   6.109 -0.1358  0.4744 -2.0505
14351TIP3   OH264467   0.320   2.673   3.512  0.1266 -0.2202  0.1219
14351TIP3    H164468   0.229   2.657   3.536 -0.3896 -2.2644 -2.7280
14351TIP3    H264469   0.361   2.586   3.513  1.9813  0.5979  0.9160
14352TIP3   OH264470   1.969   4.102  13.757 -0.2697  0.1110  0.1661
14352TIP3    H164471   1.941   4.034  13.696  0.7377 -1.7323  1.6302
14352TIP3    H264472   1.898   4.165  13.757 -1.7241 -1.4376 -0.5672
14353TIP3   OH264473   6.089   1.305   4.685 -0.2798  0.2767 -0.2973
14353TIP3    H164474   6.143   1.242   4.733  1.1057  1.1179 -0.6979
14353TIP3    H264475   6.144   1.384   4.679 -0.7569  0.4972 -2.4823
14354TIP3   OH264476   5.511   4.645   5.890 -0.4667 -0.1694 -0.1989
14354TIP3    H164477   5.429   4.657   5.939 -0.7463  1.1251 -0.9339
14354TIP3    H264478   5.494   4.570   5.833 -1.2422  0.2422 -0.5298
14355TIP3   OH264479   5.776   3.380   2.123  0.0550 -0.0818 -0.1126
14355TIP3    H164480   5.845   3.314   2.117 -0.1428 -0.1844 -1.6985
14355TIP3    H264481   5.743   3.373   2.213  0.9389 -1.2064  0.1443
14356TIP3   OH264482   5.944   2.500  14.910 -0.7333 -0.2464 -0.0325
14356TIP3    H164483   5.906   2.566  14.852 -0.7204  1.0894  1.4190
14356TIP3    H264484   6.026   2.475  14.866 -1.3786 -0.3008 -1.2609
14357TIP3   OH264485   3.878   5.187  14.815 -0.7348  0.6519 -0.1909
14357TIP3    H164486   3.785   5.210  14.801 -0.6331  1.2285  0.0318
14357TIP3    H264487   3.925   5.240  14.750 -0.4988  1.0336  0.2801
14358TIP3   OH264488   6.543   6.287  11.443  0.1824 -0.1512  0.0181
14358TIP3    H164489   6.581   6.241  11.517 -1.3690 -1.6153 -0.0270
14358TIP3    H264490   6.517   6.372  11.478  4.6767  1.6092 -0.3194
14359TIP3   OH264491   6.535   6.110   5.867  0.2111  0.3391 -0.0707
14359TIP3    H164492   6.560   6.037   5.924 -0.7279 -0.1342 -0.2431
14359TIP3    H264493   6.525   6.184   5.926 -0.2938 -0.0372  0.3296
14360TIP3   OH264494   3.306   6.475  11.876  0.1189 -0.0855 -0.2090
14360TIP3    H164495   3.290   6.542  11.809  0.7258 -0.2013 -0.4744
14360TIP3    H264496   3.234   6.486  11.939  0.6240  1.3404  0.1699
14361TIP3   OH264497   6.155   3.691  11.332  0.3949  0.5239 -0.4096
14361TIP3    H164498   6.088   3.647  11.385  1.4611 -0.8433 -0.1423
14361TIP3    H264499   6.237   3.678  11.379  0.9192  1.9326 -0.8749
14362TIP3   OH264500   6.057   1.956  14.940 -0.4581  0.2434  0.3260
14362TIP3    H164501   6.133   1.907  14.907  0.1826  1.3780  0.0687
14362TIP3    H264502   6.056   1.940  15.034 -0.3654 -0.3893  0.2250
14363TIP3   OH264503   0.302   3.132   6.190  0.2292 -0.1645  0.3006
14363TIP3    H164504   0.208   3.119   6.201  0.2775  0.0392  1.0488
14363TIP3    H264505   0.341   3.047   6.211  0.0655 -1.2094 -3.0355
14364TIP3   OH264506   4.279   2.417   3.739 -0.3525 -0.4334  0.6545
14364TIP3    H164507   4.223   2.340   3.747 -1.3324  0.3344  1.3763
14364TIP3    H264508   4.234   2.485   3.789  0.2668  0.7468 -0.3410
14365TIP3   OH264509   4.675   5.873   1.772 -0.4570 -0.6402  0.0166
14365TIP3    H164510   4.633   5.792   1.803 -1.5667 -1.1068 -2.4613
14365TIP3    H264511   4.610   5.912   1.714 -0.3241  2.5847  1.8289
14366TIP3   OH264512   3.703   5.134   3.583 -0.6803 -0.3570 -0.2442
14366TIP3    H164513   3.707   5.217   3.631 -0.5913 -1.2962  1.4376
14366TIP3    H264514   3.787   5.129   3.537 -1.0091  0.8443 -1.0112
14367TIP3   OH264515   1.400   1.470   0.764 -0.0415  0.1309 -0.0375
14367TIP3    H164516   1.484   1.459   0.808  0.6352 -1.0179 -1.5543
14367TIP3    H264517   1.355   1.537   0.816  0.7962 -0.9699  2.2299
14368TIP3   OH264518   6.725   2.196   2.463  0.3955 -0.0897 -0.0859
14368TIP3    H164519   6.743   2.159   2.550 -2.3543 -1.2503  0.0802
14368TIP3    H264520   6.666   2.133   2.422  0.1287  1.3807 -2.0709
14369TIP3   OH264521   6.161   4.663  12.278  0.0480 -0.2019  0.0139
14369TIP3    H164522   6.175   4.583  12.329 -0.5521 -0.7886 -0.7198
14369TIP3    H264523   6.120   4.723  12.339  0.7233 -0.3624  0.6436
14370TIP3   OH264524   6.465   4.107   0.506 -0.1761  0.6775  0.8223
14370TIP3    H164525   6.370   4.103   0.499 -0.1438 -0.0585  0.7479
14370TIP3    H264526   6.494   4.137   0.419 -0.4579  3.3397  1.5670
14371TIP3   OH264527   2.296   5.182   1.212 -0.6548 -0.3093 -0.0325
14371TIP3    H164528   2.341   5.266   1.221  1.5776 -1.2130 -1.6516
14371TIP3    H264529   2.236   5.195   1.138 -0.1107 -0.2144 -0.4615
14372TIP3   OH264530   5.626   1.142   3.472  0.3543 -0.1796 -0.0004
14372TIP3    H164531   5.592   1.228   3.449 -0.4346 -0.3627  0.4612
14372TIP3    H264532   5.575   1.081   3.418 -1.3638 -0.5996  1.9783
14373TIP3   OH264533   4.648   0.913  13.121 -0.3322  0.3976 -0.3349
14373TIP3    H164534   4.736   0.945  13.138  0.2626 -1.4645  0.4347
14373TIP3    H264535   4.640   0.912  13.025  0.5821  0.3328 -0.4152
14374TIP3   OH264536   6.426   5.667  12.919 -0.6452  0.0216 -0.8446
14374TIP3    H164537   6.457   5.757  12.909 -3.0786  0.8855 -1.1945
14374TIP3    H264538   6.336   5.669  12.887 -0.2370 -2.9500 -2.5026
14375TIP3   OH264539   4.001   0.851   6.329 -0.4901 -0.2040 -0.0081
14375TIP3    H164540   3.990   0.761   6.359  1.6198 -0.2720  0.7485
14375TIP3    H264541   3.932   0.863   6.264 -1.7142 -1.8832  0.8766
14376TIP3   OH264542   4.509   0.042  15.339  0.0040 -0.2755  0.0398
14376TIP3    H164543   4.421   0.011  15.362 -0.1780 -1.2888 -1.8224
14376TIP3    H264544   4.568  -0.015  15.389 -0.3915 -1.2291 -0.5426
14377TIP3   OH264545   4.151   5.212   2.783  0.3973  0.5306 -0.2246
14377TIP3    H164546   4.190   5.290   2.745 -0.0460  0.9847  0.2434
14377TIP3    H264547   4.078   5.190   2.725  1.0084 -0.0151 -0.8068
14378TIP3   OH264548   5.473   5.309  12.125  0.0757 -0.1546  0.2724
14378TIP3    H164549   5.402   5.265  12.077 -0.4240  1.4786 -0.5434
14378TIP3    H264550   5.550   5.296  12.071  0.0763 -0.5894  0.3725
14379TIP3   OH264551   4.183   6.665   4.655 -0.2159 -0.0291  0.2471
14379TIP3    H164552   4.184   6.569   4.646 -0.1910 -0.1596  1.4830
14379TIP3    H264553   4.212   6.697   4.570  2.7404 -1.2117  0.6935
14380TIP3   OH264554   2.669   1.047  16.089 -0.6795 -0.0271  0.1023
14380TIP3    H164555   2.714   1.128  16.113 -0.9738  0.0805  0.2950
14380TIP3    H264556   2.728   1.005  16.026 -0.7521  0.5692 -0.3771
14381TIP3   OH264557   4.592   0.464  16.388 -0.1046 -0.3872 -0.0874
14381TIP3    H164558   4.589   0.440  16.295  1.1547 -0.6451 -0.0806
14381TIP3    H264559   4.556   0.552  16.390  1.9514  0.5705 -1.2036
14382TIP3   OH264560   0.346   1.109   0.599 -0.1224  0.1646  0.1797
14382TIP3    H164561   0.436   1.087   0.573 -0.7218 -1.7891 -0.3800
14382TIP3    H264562   0.342   1.088   0.692 -0.5815 -2.0039 -0.2662
14383TIP3   OH264563   0.459   5.151  12.713 -0.0410  0.2424  0.3015
14383TIP3    H164564   0.471   5.245  12.724  0.4914  0.0023  2.2156
14383TIP3    H264565   0.433   5.140  12.622  1.5680  2.0728 -0.4460
14384TIP3   OH264566   1.527   5.145   4.840 -0.0204  0.8259 -0.0919
14384TIP3    H164567   1.474   5.103   4.772  0.3171  1.1676 -0.5836
14384TIP3    H264568   1.465   5.170   4.908 -0.5299  1.4071 -0.7496
14385TIP3   OH264569   5.760   3.446   2.423 -0.0942 -0.0487 -0.5277
14385TIP3    H164570   5.676   3.406   2.447  0.2259  0.5495  1.8378
14385TIP3    H264571   5.741   3.540   2.419  0.5495  0.1612  0.7077
14386TIP3   OH264572   3.400   2.032  14.898 -0.0926  0.2075  0.3100
14386TIP3    H164573   3.479   2.063  14.943  0.9485 -1.2038 -0.4448
14386TIP3    H264574   3.428   2.021  14.807 -0.8130 -1.4511  0.2652
14387TIP3   OH264575   6.540   3.146  12.896 -0.2470 -0.2732 -0.2969
14387TIP3    H164576   6.552   3.093  12.818 -1.9336 -1.5346  0.2490
14387TIP3    H264577   6.475   3.212  12.871 -0.0054 -0.0182 -0.2577
14388TIP3   OH264578   3.343   5.218  11.817 -0.3490 -0.0352  0.2371
14388TIP3    H164579   3.259   5.236  11.775  0.4149  0.4377 -1.1781
14388TIP3    H264580   3.375   5.138  11.775  0.6788  0.7457 -0.5372
14389TIP3   OH264581   5.915   0.691   4.302  0.2610 -0.3637 -0.1624
14389TIP3    H164582   5.871   0.776   4.290 -2.3942 -1.6926 -0.5996
14389TIP3    H264583   5.930   0.685   4.396  0.2866  0.4830 -0.0971
14390TIP3   OH264584   0.752   5.834   2.373  0.4135 -0.5571 -0.6753
14390TIP3    H164585   0.791   5.793   2.451  0.6891  0.3682 -0.3115
14390TIP3    H264586   0.823   5.838   2.310  0.1466 -1.4607 -1.0511
14391TIP3   OH264587   2.939   2.916  13.439 -0.2874 -0.2199 -0.1131
14391TIP3    H164588   2.907   2.832  13.471  1.8838 -2.0859 -2.4428
14391TIP3    H264589   2.878   2.941  13.370 -0.2783 -0.4779 -0.2140
14392TIP3   OH264590   6.612   1.989  13.710 -0.1406 -0.1560 -0.2872
14392TIP3    H164591   6.589   1.936  13.634 -0.3040 -0.2823 -0.1486
14392TIP3    H264592   6.540   2.051  13.719 -1.8459 -2.2690  1.7712
14393TIP3   OH264593   1.650   5.948  12.950 -0.2238 -0.3964  0.1139
14393TIP3    H164594   1.631   5.954  13.044 -0.3369 -2.2527  0.2502
14393TIP3    H264595   1.685   6.034  12.927 -1.3313  0.4976  1.5859
14394TIP3   OH264596   4.739   3.376   2.524  0.1537  0.4382  0.1620
14394TIP3    H164597   4.824   3.362   2.483  0.5116  1.2054  0.6245
14394TIP3    H264598   4.759   3.418   2.608 -0.6365 -0.0418  0.6132
14395TIP3   OH264599   1.845   6.348  13.763  0.4952 -0.3995 -0.3091
14395TIP3    H164600   1.903   6.282  13.800 -0.2326  0.0984  1.8521
14395TIP3    H264601   1.895   6.429  13.766 -0.4242  0.1516  2.1250
14396TIP3   OH264602   2.775   4.694   4.889  0.3659  0.8966 -0.8236
14396TIP3    H164603   2.820   4.609   4.884 -1.6761 -0.2072 -2.3397
14396TIP3    H264604   2.830   4.747   4.945  2.9166 -0.7095 -1.6085
14397TIP3   OH264605   3.403   6.046  16.858  0.2549  0.3904  0.5231
14397TIP3    H164606   3.496   6.035  16.840  0.2057 -1.1373  1.0359
14397TIP3    H264607   3.397   6.054  16.953 -0.2003 -0.4592  0.5786
14398TIP3   OH264608   3.199   0.777   1.467  0.0701  0.1823  0.3329
14398TIP3    H164609   3.151   0.702   1.503  0.9562 -0.1284  0.9124
14398TIP3    H264610   3.132   0.831   1.425 -0.6421 -0.7187  0.2823
14399TIP3   OH264611   1.848   1.118  13.660  0.3467  0.2307 -0.0358
14399TIP3    H164612   1.857   1.034  13.704  0.8534  0.7655  0.9284
14399TIP3    H264613   1.902   1.110  13.581 -0.8559 -0.8678 -0.7851
14400TIP3   OH264614   0.548   5.928  15.287 -0.1473 -0.6888  0.2304
14400TIP3    H164615   0.585   5.906  15.201  0.7417  1.7792 -0.1200
14400TIP3    H264616   0.560   6.023  15.294 -0.5729 -0.7569  2.9243
14401TIP3   OH264617   3.196   5.892   4.098 -0.8606  0.1480  0.4666
14401TIP3    H164618   3.272   5.880   4.155 -0.8495 -2.7716  0.0128
14401TIP3    H264619   3.226   5.861   4.012 -1.5388  2.3493 -0.6279
14402TIP3   OH264620   1.495   0.888  11.959  0.1672 -0.0274  0.3019
14402TIP3    H164621   1.431   0.955  11.935 -0.4897 -0.6596  0.2915
14402TIP3    H264622   1.508   0.837  11.879  0.4590 -0.0876  0.3864
14403TIP3   OH264623   2.032   1.809  14.234 -0.1834  0.7156 -0.0645
14403TIP3    H164624   2.003   1.900  14.242 -2.2173 -0.0441  3.7757
14403TIP3    H264625   2.077   1.791  14.317  0.2489 -1.7632 -0.7594
14404TIP3   OH264626   1.762   4.360   5.721 -0.2012 -0.2227  0.3334
14404TIP3    H164627   1.733   4.277   5.681 -1.3505 -0.6963  2.0512
14404TIP3    H264628   1.744   4.426   5.654 -2.4240 -0.9339  0.1336
14405TIP3   OH264629   2.074   5.620  12.898  0.1468  0.2545  0.0578
14405TIP3    H164630   2.051   5.709  12.872  1.8135  0.7553  0.1854
14405TIP3    H264631   2.018   5.564  12.844 -0.4763  1.3622 -0.4761
14406TIP3   OH264632   3.896   0.120   6.615  0.0796 -0.1110  0.0480
14406TIP3    H164633   3.869   0.042   6.567  0.3225  0.0796 -0.4130
14406TIP3    H264634   3.991   0.126   6.600  0.1960 -0.1607  0.7269
14407TIP3   OH264635   2.312   5.636   2.008 -0.6327 -0.3177  0.2312
14407TIP3    H164636   2.381   5.684   2.054 -1.0880 -0.4267  1.0344
14407TIP3    H264637   2.242   5.699   1.997 -0.6202 -0.3614 -0.1040
14408TIP3   OH264638   2.193   2.810  14.687  0.7499  0.6035 -0.0546
14408TIP3    H164639   2.150   2.744  14.632  0.2105 -0.9257  2.0687
14408TIP3    H264640   2.125   2.875  14.704  0.2468 -0.0490  0.5132
14409TIP3   OH264641   0.723   1.154   4.996  0.2600  0.1241 -0.3868
14409TIP3    H164642   0.652   1.134   4.936 -0.3420 -0.2387  0.4368
14409TIP3    H264643   0.748   1.244   4.974 -1.1630  0.6464  0.0213
14410TIP3   OH264644   5.061   3.282  13.912 -0.4088  0.0991 -0.0897
14410TIP3    H164645   5.134   3.258  13.856 -1.2478 -0.1489 -1.1152
14410TIP3    H264646   4.995   3.317  13.852 -1.2904 -0.0787  0.7535
14411TIP3   OH264647   1.183   6.675  15.437  0.1597 -0.2743 -0.3133
14411TIP3    H164648   1.147   6.762  15.457  2.0615  0.6363 -0.6361
14411TIP3    H264649   1.270   6.676  15.476  0.4062 -1.8568 -0.7885
14412TIP3   OH264650   4.070   5.260  13.239 -0.5577  0.8415 -0.5048
14412TIP3    H164651   4.083   5.329  13.304  2.0807  0.4825 -0.5238
14412TIP3    H264652   4.144   5.270  13.179 -2.4673  0.6711 -3.0647
14413TIP3   OH264653   3.177   0.341   1.680  0.0188  0.2403 -0.6812
14413TIP3    H164654   3.174   0.261   1.733 -0.7484  0.0833 -0.9364
14413TIP3    H264655   3.256   0.331   1.626  0.2157 -0.1008 -0.3340
14414TIP3   OH264656   2.203   4.199   1.203  0.0170 -0.1527  0.3314
14414TIP3    H164657   2.207   4.105   1.223 -0.8059 -0.8824 -2.5102
14414TIP3    H264658   2.292   4.222   1.177 -0.3948 -0.9788 -2.0026
14415TIP3   OH264659   2.814   2.569   1.479 -0.4040 -0.0106 -0.0940
14415TIP3    H164660   2.804   2.484   1.521  0.2227  0.3357  0.7864
14415TIP3    H264661   2.727   2.589   1.444 -0.3874 -1.3223 -0.9371
14416TIP3   OH264662   3.467   0.598   6.210 -0.1557 -0.3461 -0.0902
14416TIP3    H164663   3.432   0.577   6.297 -1.7818  0.0025 -0.6286
14416TIP3    H264664   3.541   0.656   6.227 -2.0201  1.8325  1.0109
14417TIP3   OH264665   5.121   3.682  15.341 -0.2437 -0.0855  0.6592
14417TIP3    H164666   5.098   3.630  15.418 -0.4370 -0.2243  0.5076
14417TIP3    H264667   5.057   3.657  15.275 -0.4263  0.4486  0.6303
14418TIP3   OH264668   5.698   0.661  11.650 -0.0008  0.0052  0.7255
14418TIP3    H164669   5.664   0.574  11.670 -0.2133 -0.1773 -0.3539
14418TIP3    H264670   5.657   0.684  11.567  1.4316  0.3481  0.0688
14419TIP3   OH264671   2.944   0.824  15.789  0.0794  0.3633  0.0802
14419TIP3    H164672   2.890   0.867  15.856  1.1533  0.9287  0.6142
14419TIP3    H264673   3.032   0.857  15.805  0.6871 -0.9272 -0.4394
14420TIP3   OH264674   6.508   3.486   5.256 -1.0003  0.2114  0.0934
14420TIP3    H164675   6.570   3.422   5.291 -1.2573  0.7404  1.5763
14420TIP3    H264676   6.446   3.434   5.205  1.3002 -0.2201 -2.5074
14421TIP3   OH264677   1.772   0.270  11.967 -0.3691 -0.0530 -0.0444
14421TIP3    H164678   1.729   0.352  11.942 -1.3761 -0.7810 -0.8017
14421TIP3    H264679   1.719   0.236  12.039  0.9824  0.7212  1.3777
14422TIP3   OH264680   6.470   3.006  15.111  0.0754 -0.2302 -0.3518
14422TIP3    H164681   6.439   2.985  15.200 -2.1259 -1.8337 -1.3727
14422TIP3    H264682   6.525   2.931  15.087 -0.1261 -0.2826 -0.6586
14423TIP3   OH264683   1.575   3.962   4.767 -0.0812  0.1441  0.5925
14423TIP3    H164684   1.528   3.909   4.704 -1.4486  1.4091  0.4926
14423TIP3    H264685   1.654   3.990   4.721 -1.4600  1.7581 -0.9579
14424TIP3   OH264686   3.387   5.052  16.240  0.6631 -0.6416  0.4414
14424TIP3    H164687   3.457   5.026  16.181  0.0379 -0.9792 -0.1663
14424TIP3    H264688   3.376   5.146  16.224 -0.4314 -0.9834 -1.0178
14425TIP3   OH264689   3.581   0.844   4.488  0.1409 -0.0643 -0.2183
14425TIP3    H164690   3.533   0.774   4.532 -0.3409  0.3995  0.0067
14425TIP3    H264691   3.672   0.815   4.488  0.2461  0.1375  1.5551
14426TIP3   OH264692   4.517   0.749   0.440 -0.2249 -0.6498  0.0490
14426TIP3    H164693   4.537   0.803   0.517 -2.0252 -0.0775  0.1757
14426TIP3    H264694   4.577   0.780   0.372  0.7288 -0.4946  0.9340
14427TIP3   OH264695   1.601   0.105  13.099 -0.0422 -0.0780 -0.4875
14427TIP3    H164696   1.656   0.181  13.119 -0.8667  0.4472 -0.1552
14427TIP3    H264697   1.645   0.062  13.025  0.2023  0.9714 -0.9678
14428TIP3   OH264698   4.069   0.589  15.379 -0.2886 -0.3053 -0.0352
14428TIP3    H164699   4.106   0.516  15.429 -1.7755  0.4465  2.3099
14428TIP3    H264700   3.975   0.575  15.380 -0.6889  1.9801  1.1355
14429TIP3   OH264701   4.628   2.702  11.881 -0.2115 -0.1499  0.0678
14429TIP3    H164702   4.716   2.698  11.920 -0.6252  0.4599  1.0786
14429TIP3    H264703   4.581   2.767  11.933 -1.6187 -1.2581  0.2432
14430TIP3   OH264704   6.085   6.223  14.757  0.1919  0.0952  0.2960
14430TIP3    H164705   6.132   6.159  14.810  0.3536 -0.6616 -0.7317
14430TIP3    H264706   6.025   6.266  14.818  1.3576  0.2477  1.3810
14431TIP3   OH264707   6.198   0.669  13.819  0.1273  0.0495  0.2570
14431TIP3    H164708   6.115   0.664  13.867  0.2736 -0.5551  0.4640
14431TIP3    H264709   6.241   0.747  13.854 -0.7318  0.8810 -0.4835
14432TIP3   OH264710   3.506   3.182   5.947 -0.2442 -0.2386  0.1055
14432TIP3    H164711   3.527   3.271   5.975  1.6859 -1.4324  2.8914
14432TIP3    H264712   3.433   3.156   6.003 -1.9286  0.0289 -1.8210
14433TIP3   OH264713   3.839   3.015  11.425  0.3606 -0.4295  0.1958
14433TIP3    H164714   3.775   3.069  11.377  1.5643 -1.2793 -2.5638
14433TIP3    H264715   3.797   2.929  11.431 -0.4017  0.0368  2.1016
14434TIP3   OH264716   2.819   0.985   6.422  0.3316 -0.1876  0.1452
14434TIP3    H164717   2.907   0.980   6.386 -0.0901 -2.1953 -0.7375
14434TIP3    H264718   2.775   1.050   6.367  0.2375 -1.8649 -1.8879
14435TIP3   OH264719   4.496   6.373  11.371  0.1425  0.3174  0.8016
14435TIP3    H164720   4.422   6.393  11.314  0.5596  0.6791  0.3786
14435TIP3    H264721   4.502   6.277  11.370  0.4728  0.3401 -0.1975
14436TIP3   OH264722   3.490   0.490  15.898  0.1438  0.1834 -0.0647
14436TIP3    H164723   3.429   0.430  15.855 -0.1200 -0.0754  0.6514
14436TIP3    H264724   3.575   0.444  15.894  0.4454  0.7970 -1.5782
14437TIP3   OH264725   2.672   0.844   5.079  0.7277  0.0854 -0.1423
14437TIP3    H164726   2.760   0.868   5.108  0.7810 -0.2803  0.0064
14437TIP3    H264727   2.640   0.784   5.147  1.4172 -1.9668 -1.5401
14438TIP3   OH264728   6.397   5.988   4.888 -0.2407 -0.4175  0.0459
14438TIP3    H164729   6.463   5.923   4.910 -0.2140 -0.1754  0.7000
14438TIP3    H264730   6.353   6.008   4.971 -0.3506  0.2826 -0.1668
14439TIP3   OH264731   6.618   4.487  17.199 -0.4905 -0.5255  0.1114
14439TIP3    H164732   6.544   4.543  17.177 -0.3422 -0.5113 -0.3679
14439TIP3    H264733   6.663   4.533  17.270 -2.0432 -1.4891  1.8011
14440TIP3   OH264734   6.243   2.745  16.694 -0.1241 -0.1613  0.0769
14440TIP3    H164735   6.163   2.726  16.645 -0.5323  1.2459  0.1603
14440TIP3    H264736   6.239   2.687  16.770 -1.0283 -0.1610  0.0369
14441TIP3   OH264737   0.448   2.613   5.097  0.3896 -0.3640 -0.6423
14441TIP3    H164738   0.516   2.559   5.137  1.5629  0.1460 -1.8580
14441TIP3    H264739   0.495   2.689   5.062 -1.1943  1.4499  0.9314
14442TIP3   OH264740   5.906   1.958  13.953 -0.1060  0.7111 -0.2015
14442TIP3    H164741   5.880   2.006  14.031  0.6005 -0.9328  1.1368
14442TIP3    H264742   5.878   2.012  13.879 -1.2191  2.0955  1.1858
14443TIP3   OH264743   3.701   0.713  13.267  0.1008 -0.1344 -0.1617
14443TIP3    H164744   3.611   0.745  13.257 -0.5307 -1.8182 -0.1302
14443TIP3    H264745   3.729   0.689  13.178  1.4699  2.6415 -0.5908
14444TIP3   OH264746   5.206   0.836  11.634  0.2423 -0.2359  0.7178
14444TIP3    H164747   5.192   0.741  11.636  0.6215 -0.3650 -1.3437
14444TIP3    H264748   5.197   0.860  11.542 -0.4900  1.8484  1.2934
14445TIP3   OH264749   0.906   1.987   2.462  0.5186 -0.1681 -0.1440
14445TIP3    H164750   0.953   1.916   2.506 -0.1010 -0.9538 -0.7070
14445TIP3    H264751   0.821   1.991   2.507 -0.6519 -1.8627 -2.0006
14446TIP3   OH264752   3.924   0.976   4.699  0.1980 -0.9271 -0.0846
14446TIP3    H164753   3.884   1.058   4.670  1.2889 -0.5706 -0.6235
14446TIP3    H264754   3.874   0.951   4.777  0.6395  0.8973  0.8357
14447TIP3   OH264755   2.634   2.248   6.362  0.5648  0.1088  0.0839
14447TIP3    H164756   2.715   2.200   6.348 -0.2881 -1.1597 -0.8197
14447TIP3    H264757   2.565   2.184   6.342 -0.7129  0.5311  2.7132
14448TIP3   OH264758   0.045   3.050   6.211 -0.8569 -0.0347  0.0694
14448TIP3    H164759  -0.049   3.048   6.229 -0.8626 -1.4169 -0.0280
14448TIP3    H264760   0.077   2.964   6.238  0.9250  1.3384  2.8528
14449TIP3   OH264761   4.332   2.361   3.026  0.0549  0.2773 -0.4442
14449TIP3    H164762   4.253   2.373   2.974  1.1007 -0.6416 -2.3503
14449TIP3    H264763   4.330   2.270   3.053  0.3872  0.2853 -0.3843
14450TIP3   OH264764   5.952   5.056   6.660 -0.1301  0.6996 -0.0382
14450TIP3    H164765   5.902   4.976   6.643 -0.8341  0.8978  0.9485
14450TIP3    H264766   6.043   5.032   6.644 -0.3283 -0.3200  0.2738
14451TIP3   OH264767   1.974   2.151   1.235 -0.4270 -0.6851  0.4455
14451TIP3    H164768   1.888   2.141   1.195 -0.7608  0.7915  0.7388
14451TIP3    H264769   2.022   2.209   1.175  0.0305 -0.7392  0.7536
14452TIP3   OH264770   5.754   2.515  12.854  0.1373 -0.7766 -0.9412
14452TIP3    H164771   5.677   2.557  12.891  2.2626  1.8405  0.8906
14452TIP3    H264772   5.774   2.443  12.914  0.6108  0.2418  0.1603
14453TIP3   OH264773   6.549   5.731  16.285 -0.2245  0.2340 -0.0076
14453TIP3    H164774   6.596   5.650  16.269 -0.0331  0.4459 -0.5523
14453TIP3    H264775   6.469   5.704  16.330  0.1542 -0.1816  0.4277
14454TIP3   OH264776   1.095   2.678  11.014 -0.1571  0.7978  0.2049
14454TIP3    H164777   1.014   2.669  10.964 -0.0821 -0.3440  0.2710
14454TIP3    H264778   1.164   2.683  10.947 -0.1493  0.3036  0.1759
14455TIP3   OH264779   3.288   0.903  13.072  0.8411  0.8733 -0.1024
14455TIP3    H164780   3.305   0.952  13.153 -0.4868  0.2088  0.6205
14455TIP3    H264781   3.216   0.844  13.095  1.0907 -0.0197 -1.5076
14456TIP3   OH264782   4.547   6.517   2.742  0.3719 -0.1487 -0.1850
14456TIP3    H164783   4.574   6.574   2.670 -0.9853  1.6485  0.6632
14456TIP3    H264784   4.574   6.564   2.821 -0.6694 -0.7267  0.5409
14457TIP3   OH264785   2.805   0.628  13.038  0.7954  0.8843 -0.4323
14457TIP3    H164786   2.839   0.593  12.956  0.4310  2.1013 -1.1225
14457TIP3    H264787   2.816   0.722  13.031 -1.4559  1.2191 -0.1073
14458TIP3   OH264788   3.570   5.204  13.300 -0.3060 -0.1222 -0.4399
14458TIP3    H164789   3.550   5.161  13.383  2.1529  0.4738  0.5495
14458TIP3    H264790   3.515   5.282  13.299 -1.5872 -0.9866 -0.2129
14459TIP3   OH264791   1.951   3.530  17.280  0.2794  0.2427  0.5633
14459TIP3    H164792   2.020   3.596  17.273  0.4560 -0.0070 -0.1520
14459TIP3    H264793   1.958   3.497  17.369  3.1801 -2.0143 -0.3349
14460TIP3   OH264794   0.881   3.809  16.983 -0.3885  0.9340 -0.3908
14460TIP3    H164795   0.831   3.744  16.934  0.6136 -1.1070  1.1454
14460TIP3    H264796   0.819   3.843  17.048 -0.6967  0.9162 -0.6731
14461TIP3   OH264797   5.605   1.394   5.062  0.2700 -0.3087  0.0122
14461TIP3    H164798   5.532   1.438   5.019  0.4707 -0.1499 -0.1664
14461TIP3    H264799   5.640   1.459   5.123 -0.1383 -0.5992  0.5632
14462TIP3   OH264800   4.857   3.423  12.373  0.7323  0.6111  0.7811
14462TIP3    H164801   4.867   3.337  12.414 -1.0025 -0.6450 -1.2478
14462TIP3    H264802   4.763   3.443  12.381  0.3047  0.3281 -2.3507
14463TIP3   OH264803   3.498   1.744   0.981 -0.1235  0.1055  0.4682
14463TIP3    H164804   3.580   1.751   0.932  0.4898 -1.4632  1.1873
14463TIP3    H264805   3.518   1.682   1.052 -1.6816  0.3916  1.2042
14464TIP3   OH264806   0.049   1.165  13.509 -0.3160 -0.0645  0.1268
14464TIP3    H164807   0.100   1.246  13.507  0.7620 -0.6824  1.1281
14464TIP3    H264808   0.009   1.163  13.595  0.0603 -0.8110  0.2973
14465TIP3   OH264809   4.328   5.304   1.748  0.0030 -0.3123 -0.2266
14465TIP3    H164810   4.413   5.278   1.783  0.7531  0.7731 -1.1830
14465TIP3    H264811   4.282   5.222   1.732  0.3964 -0.8925  1.3963
14466TIP3   OH264812   1.028   4.787   3.898  0.0628 -0.6396 -0.7316
14466TIP3    H164813   1.079   4.741   3.831  1.9344 -1.2417  0.9926
14466TIP3    H264814   1.077   4.868   3.914 -0.6763 -0.2326 -0.4987
14467TIP3   OH264815   3.549   3.419   3.152  0.2382 -0.0093 -0.2433
14467TIP3    H164816   3.594   3.488   3.201  0.5737 -1.2210  1.2596
14467TIP3    H264817   3.603   3.405   3.074  1.8543 -0.6102  0.9327
14468TIP3   OH264818   3.128   3.694  10.718 -0.2644 -0.2384  0.5676
14468TIP3    H164819   3.166   3.744  10.646  1.4349 -0.1089  1.5012
14468TIP3    H264820   3.077   3.758  10.767  1.7318  0.6097  1.6389
14469TIP3   OH264821   3.505   3.930   4.522  0.0887 -0.1707 -0.1920
14469TIP3    H164822   3.594   3.916   4.489 -0.9346 -2.1582 -2.4629
14469TIP3    H264823   3.484   3.847   4.566 -0.4911  0.4663  0.7511
14470TIP3   OH264824   2.729   5.101  12.532  0.0097 -0.4116  0.0084
14470TIP3    H164825   2.768   5.087  12.446  0.8402 -0.1770  0.3277
14470TIP3    H264826   2.794   5.065  12.593 -0.6663 -0.7714  0.5241
14471TIP3   OH264827   4.465   6.469  15.488  0.3360  0.2013 -0.0373
14471TIP3    H164828   4.479   6.420  15.407  2.1216  1.2618 -0.4302
14471TIP3    H264829   4.400   6.535  15.465  1.2100  0.8252 -0.7818
14472TIP3   OH264830   0.867   5.978  12.412  0.1218  0.5292 -0.7198
14472TIP3    H164831   0.775   5.972  12.388  0.1431 -0.3326 -0.6471
14472TIP3    H264832   0.881   5.904  12.471  0.8022  0.7880 -0.5418
14473TIP3   OH264833   2.222   2.477   3.352  0.2546  0.2570  0.4947
14473TIP3    H164834   2.127   2.465   3.353  0.3746 -1.9970 -2.0924
14473TIP3    H264835   2.256   2.405   3.404  0.5404 -0.7381 -0.9826
14474TIP3   OH264836   6.717   3.879  11.574 -0.4488 -0.1655 -0.0518
14474TIP3    H164837   6.772   3.892  11.497  1.1444 -0.2935  1.0232
14474TIP3    H264838   6.770   3.912  11.647 -1.6859 -0.5615  1.0638
14475TIP3   OH264839   1.873   1.855   6.257  0.1224  0.2298 -0.3312
14475TIP3    H164840   1.855   1.817   6.343 -1.9093 -0.9426 -1.1816
14475TIP3    H264841   1.794   1.905   6.237  1.4919  2.3775 -0.5872
14476TIP3   OH264842   5.976   0.597  14.017  0.3813  0.1527  0.1404
14476TIP3    H164843   5.884   0.619  14.002  0.1828  0.5040  1.6886
14476TIP3    H264844   5.978   0.501  14.013 -0.4466  0.0142  1.9031
14477TIP3   OH264845   4.839   1.460  12.415  0.4586  0.4440  0.1936
14477TIP3    H164846   4.869   1.549  12.399  0.6160  0.0348 -2.1458
14477TIP3    H264847   4.878   1.408  12.345 -1.9847 -0.9287 -0.2639
14478TIP3   OH264848   4.966   0.665  15.761 -0.3616  0.5541 -0.7150
14478TIP3    H164849   4.958   0.747  15.812 -3.2925 -0.2635  0.3728
14478TIP3    H264850   4.915   0.681  15.682 -0.8822 -0.1651 -0.5347
14479TIP3   OH264851   2.984   4.235  11.417 -0.1093 -0.1691 -0.3633
14479TIP3    H164852   3.056   4.174  11.403  0.1994  0.0658  0.1800
14479TIP3    H264853   2.912   4.180  11.451  0.4437 -0.1200  0.9622
14480TIP3   OH264854   5.023   6.126  14.940 -0.0249  0.6196  0.0960
14480TIP3    H164855   5.000   6.083  15.022 -0.0153 -2.2296 -1.2706
14480TIP3    H264856   5.099   6.180  14.961  2.0836 -2.5680  1.3941
14481TIP3   OH264857   5.844   6.053   4.905 -0.2764  0.0852 -0.1863
14481TIP3    H164858   5.759   6.007   4.908 -0.0329 -0.3410  1.1094
14481TIP3    H264859   5.898   6.006   4.968  0.3646  1.4356  0.3052
14482TIP3   OH264860   6.302   4.318  16.279  0.5963  0.3049  0.1970
14482TIP3    H164861   6.258   4.400  16.302  0.5759  0.4486 -0.3505
14482TIP3    H264862   6.240   4.273  16.222  0.0002 -0.7390  1.5880
14483TIP3   OH264863   1.458   1.897   4.956 -0.0031 -0.3282  0.0088
14483TIP3    H164864   1.462   1.914   4.862  0.0808 -2.1707 -0.3640
14483TIP3    H264865   1.413   1.973   4.992 -1.6718 -0.3918 -1.7655
14484TIP3   OH264866   3.953   5.078  16.804  0.0567  0.3748  0.3152
14484TIP3    H164867   3.939   4.996  16.853  1.0690 -0.5422 -0.8557
14484TIP3    H264868   3.940   5.147  16.869 -0.1585 -0.7352  1.5069
14485TIP3   OH264869   0.388   4.185   2.651 -0.2562  0.3030  0.2424
14485TIP3    H164870   0.313   4.213   2.599  0.1424 -0.3960 -0.7297
14485TIP3    H264871   0.448   4.145   2.588  0.9819  0.9225  0.9860
14486TIP3   OH264872   5.443   2.367   1.583 -0.5824 -0.2685 -0.5501
14486TIP3    H164873   5.518   2.321   1.622 -0.8937 -1.6244 -1.4629
14486TIP3    H264874   5.482   2.425   1.519 -0.2457 -0.1242 -0.2213
14487TIP3   OH264875   3.656   2.816  11.395 -0.0964  0.2359 -0.4308
14487TIP3    H164876   3.621   2.740  11.347 -0.8671 -0.5569  1.2801
14487TIP3    H264877   3.579   2.871  11.411 -0.1182 -0.1557  0.9654
14488TIP3   OH264878   4.813   2.872  13.202 -0.3137 -0.0524  0.1067
14488TIP3    H164879   4.801   2.911  13.115 -0.0686 -2.3354 -1.0060
14488TIP3    H264880   4.727   2.839  13.226 -0.3826  0.5758  0.7721
14489TIP3   OH264881   5.356   6.257   5.428 -0.2039  0.5571 -0.1159
14489TIP3    H164882   5.449   6.278   5.413 -0.1413 -0.4576 -1.3267
14489TIP3    H264883   5.325   6.327   5.485  1.2378  1.0828  0.0747
14490TIP3   OH264884   0.212   0.763   1.927  0.0900  0.1206 -0.9721
14490TIP3    H164885   0.178   0.810   1.851  1.6014  1.9754 -0.5490
14490TIP3    H264886   0.186   0.816   2.002  2.3473  0.6917 -0.5262
14491TIP3   OH264887   4.195   2.967   5.855  0.4460  0.5297 -0.5504
14491TIP3    H164888   4.129   2.984   5.788 -0.2267  1.6779  0.3601
14491TIP3    H264889   4.145   2.958   5.936  1.3430  0.5163  0.0160
14492TIP3   OH264890   3.633   2.833   3.058  0.5406  0.4742  0.3363
14492TIP3    H164891   3.616   2.740   3.074 -0.2321  0.7068  0.9268
14492TIP3    H264892   3.575   2.879   3.119 -0.7098  1.3689 -1.4095
14493TIP3   OH264893   3.697   4.768  15.004 -0.1886  0.1696 -0.4946
14493TIP3    H164894   3.684   4.862  15.018  1.7795  0.3430  0.4284
14493TIP3    H264895   3.613   4.738  14.967 -1.9902  1.6853  2.0281
14494TIP3   OH264896   2.952   2.458  16.003  0.4129 -0.0539 -0.1378
14494TIP3    H164897   2.903   2.521  15.949 -0.3582 -1.2147 -0.8247
14494TIP3    H264898   2.885   2.398  16.037  0.9472  0.3548  1.7577
14495TIP3   OH264899   2.746   4.379   1.830  0.7978  0.0609 -0.6377
14495TIP3    H164900   2.802   4.452   1.856 -0.7725  0.7446  1.0765
14495TIP3    H264901   2.664   4.420   1.802  0.3254 -1.0062 -0.8856
14496TIP3   OH264902   3.212   0.808  15.015  0.2742 -0.0087 -0.0854
14496TIP3    H164903   3.210   0.797  14.920  0.2724  0.2268 -0.1130
14496TIP3    H264904   3.149   0.744  15.048 -1.1455  1.1935 -0.3611
14497TIP3   OH264905   6.227   1.338   0.441  0.8146 -0.6012 -0.1666
14497TIP3    H164906   6.305   1.293   0.473 -0.8720 -1.4948  3.0046
14497TIP3    H264907   6.256   1.429   0.426  2.9540 -1.4188 -1.4819
14498TIP3   OH264908   4.145   4.470   2.919 -0.0781 -0.3249  0.1180
14498TIP3    H164909   4.176   4.472   2.829 -0.3546 -1.7432 -0.0343
14498TIP3    H264910   4.110   4.381   2.930 -2.3994  0.6179  0.8344
14499TIP3   OH264911   0.087   3.078   4.814  0.3781 -0.0479  0.0269
14499TIP3    H164912   0.148   3.111   4.748  0.3944 -0.8569 -0.3742
14499TIP3    H264913   0.015   3.039   4.764  0.3722 -0.6415  0.4735
14500TIP3   OH264914   2.467   1.162   5.575  0.0049 -0.1214  0.0055
14500TIP3    H164915   2.537   1.219   5.608  0.4400 -0.3276 -0.5438
14500TIP3    H264916   2.509   1.077   5.562 -0.1843 -0.0704 -0.9668
14501TIP3   OH264917   2.204   3.528   2.379  0.3140 -0.0430 -0.0559
14501TIP3    H164918   2.294   3.515   2.410  0.4403 -0.4147 -0.5770
14501TIP3    H264919   2.189   3.457   2.318  0.4381  1.3038 -1.7185
14502TIP3   OH264920   3.889   5.993   3.154 -0.3457 -0.0797  0.3687
14502TIP3    H164921   3.959   5.973   3.216 -0.9134 -2.4004  0.3224
14502TIP3    H264922   3.924   5.967   3.069 -0.5745  0.5697  0.0654
14503TIP3   OH264923   0.416   4.085  11.794 -0.0522  0.2278 -0.4118
14503TIP3    H164924   0.487   4.097  11.731  0.3780 -0.6459 -0.0896
14503TIP3    H264925   0.414   3.991  11.812 -2.2571 -0.0280 -1.5655
14504TIP3   OH264926   1.501   2.902   6.303 -0.0166 -0.2031 -0.0709
14504TIP3    H164927   1.591   2.870   6.305 -0.5848 -1.9771 -0.6741
14504TIP3    H264928   1.487   2.942   6.389  1.7252  1.3266 -0.4422
14505TIP3   OH264929   4.704   2.875   0.550 -0.0461  0.1592  0.2312
14505TIP3    H164930   4.624   2.917   0.519 -0.7080 -1.3036 -0.0847
14505TIP3    H264931   4.689   2.781   0.540  1.3316 -0.1939  1.0946
14506TIP3   OH264932   5.043   4.951   1.017 -0.2171 -0.0400 -0.7380
14506TIP3    H164933   5.043   4.890   0.943 -1.4357  1.3926 -1.9543
14506TIP3    H264934   5.126   4.933   1.062 -0.6915 -2.8718 -0.7638
14507TIP3   OH264935   4.033   0.623  15.961 -0.4160 -0.2311  0.0413
14507TIP3    H164936   4.071   0.697  16.008 -0.3973 -0.7074  0.8007
14507TIP3    H264937   3.957   0.598  16.013 -1.5316  0.4344 -1.2318
14508TIP3   OH264938   3.080   6.075  10.715 -0.9958 -0.1441  0.0968
14508TIP3    H164939   3.041   6.069  10.803 -0.7429 -0.2169  0.2040
14508TIP3    H264940   3.044   6.156  10.679 -0.3350  0.4093  0.6507
14509TIP3   OH264941   1.547   2.548  13.467 -0.1332 -0.3395 -0.0509
14509TIP3    H164942   1.532   2.515  13.556 -1.4880 -1.0766 -0.5248
14509TIP3    H264943   1.591   2.632  13.479 -0.7089 -0.2189  1.3259
14510TIP3   OH264944   6.363   1.544  15.147 -0.2479  0.1794 -0.2391
14510TIP3    H164945   6.454   1.518  15.138  0.0264  1.8002 -3.7988
14510TIP3    H264946   6.366   1.639  15.163 -1.2400  0.4079 -1.2045
14511TIP3   OH264947   1.803   0.440  13.077  0.2827  0.4050 -0.2724
14511TIP3    H164948   1.762   0.485  13.003  0.5616 -0.2442 -0.8306
14511TIP3    H264949   1.886   0.408  13.043  1.2753  1.7007  0.8510
14512TIP3   OH264950   4.614   3.821   5.681  0.6420 -0.4972 -0.2985
14512TIP3    H164951   4.601   3.772   5.599  0.9185 -0.1167 -0.5721
14512TIP3    H264952   4.658   3.902   5.654 -2.3403  1.2803 -0.2899
14513TIP3   OH264953   1.466   1.983   3.838 -0.0964  0.2239  0.5130
14513TIP3    H164954   1.413   2.029   3.772 -0.4686 -0.4682  0.3108
14513TIP3    H264955   1.435   2.017   3.922 -1.2788 -0.5635  0.4239
14514TIP3   OH264956   4.588   1.442  11.392 -0.8722 -0.1757  0.5744
14514TIP3    H164957   4.611   1.506  11.325 -0.2411  0.0736  1.0221
14514TIP3    H264958   4.495   1.459  11.410 -1.0880 -0.3519 -0.3448
14515TIP3   OH264959   0.039   6.318  11.272  0.8380 -0.0216  0.2353
14515TIP3    H164960   0.033   6.378  11.198  1.4028 -1.0617 -0.6948
14515TIP3    H264961  -0.041   6.334  11.323  0.8652  1.3179 -0.1135
14516TIP3   OH264962   6.562   4.243   2.575  0.6405  0.5314  0.3539
14516TIP3    H164963   6.494   4.182   2.546  0.2768  0.8174  0.6015
14516TIP3    H264964   6.565   4.310   2.507  0.2065  0.8770  0.6674
14517TIP3   OH264965   1.439   1.544  12.338  0.2402 -0.8723 -0.0109
14517TIP3    H164966   1.407   1.509  12.422 -2.0286 -1.1132 -0.9162
14517TIP3    H264967   1.395   1.491  12.272  2.9937 -1.5653 -1.4234
14518TIP3   OH264968   4.776   3.145  16.250 -1.2178 -0.1794 -0.3341
14518TIP3    H164969   4.695   3.142  16.199 -1.4464 -0.8352  0.0509
14518TIP3    H264970   4.753   3.102  16.333 -0.2768 -1.0760 -0.5217
14519TIP3   OH264971   1.734   1.901   2.508  0.1701 -0.5348 -0.0988
14519TIP3    H164972   1.665   1.953   2.550  1.2039  0.4173  0.5200
14519TIP3    H264973   1.696   1.814   2.497 -1.7489  0.3965 -1.4529
14520TIP3   OH264974   5.951   1.935   5.861  0.7597 -0.5948 -0.1659
14520TIP3    H164975   5.966   2.022   5.898  0.4246 -0.2891 -0.7431
14520TIP3    H264976   5.932   1.879   5.936 -1.3661  0.3072  0.0322
14521TIP3   OH264977   2.906   6.507  15.671  0.2431  0.2577 -0.0816
14521TIP3    H164978   2.904   6.594  15.709  1.9767  0.4317 -0.2925
14521TIP3    H264979   2.983   6.465  15.710  0.5615 -0.4732 -1.3999
14522TIP3   OH264980   5.118   5.262   5.329 -0.2715 -0.7423  0.1109
14522TIP3    H164981   5.166   5.190   5.288  1.0338  0.2075 -0.0862
14522TIP3    H264982   5.049   5.284   5.266  0.6671 -0.4092 -0.8113
14523TIP3   OH264983   5.271   3.968   2.095  0.2313 -0.5761  0.3047
14523TIP3    H164984   5.283   3.909   2.169  0.4149 -0.9929 -0.0519
14523TIP3    H264985   5.336   3.940   2.030  2.5571  2.0255  1.3259
14524TIP3   OH264986   3.749   5.854   3.377 -0.1668 -0.2583 -0.1143
14524TIP3    H164987   3.796   5.875   3.296 -0.2937 -1.3511 -0.4922
14524TIP3    H264988   3.669   5.907   3.372 -0.0171 -0.0641 -0.5443
14525TIP3   OH264989   1.452   3.453  14.547 -0.2357 -0.6527 -0.0795
14525TIP3    H164990   1.545   3.446  14.526 -0.6359  0.6216 -2.7809
14525TIP3    H264991   1.438   3.391  14.618  2.1443 -2.9260 -1.4435
14526TIP3   OH264992   3.266   1.560  14.444 -0.5060 -0.2978  0.3713
14526TIP3    H164993   3.261   1.554  14.540  0.7126 -1.8834  0.3795
14526TIP3    H264994   3.175   1.560  14.415 -0.8872 -1.4486  1.4679
14527TIP3   OH264995   1.713   6.595  11.417  0.1280  0.5352 -0.2298
14527TIP3    H164996   1.751   6.676  11.383 -0.9516  1.5032  0.7644
14527TIP3    H264997   1.771   6.568  11.487 -1.1483  2.2724  1.6145
14528TIP3   OH264998   3.724   4.833   3.841  0.2728  0.0228  0.4593
14528TIP3    H164999   3.760   4.917   3.813  1.8395 -1.4091 -2.0985
14528TIP3    H265000   3.675   4.854   3.921 -0.2085  3.5088 -0.5980
14529TIP3   OH265001   6.651   0.657  11.078 -0.1997 -0.0238 -0.1628
14529TIP3    H165002   6.697   0.643  10.995  0.2377  1.9054 -0.2983
14529TIP3    H265003   6.720   0.652  11.144 -0.4840 -1.1608  0.0648
14530TIP3   OH265004   4.740   5.710   1.193 -0.7052  0.1163  0.6017
14530TIP3    H165005   4.824   5.685   1.232 -0.8997 -0.1993  0.8231
14530TIP3    H265006   4.763   5.778   1.130 -0.1792 -0.5044  0.0991
14531TIP3   OH265007   1.135   4.080   0.929  0.0494  0.2422  0.3586
14531TIP3    H165008   1.178   4.119   0.853  1.0777  2.2111  1.8357
14531TIP3    H265009   1.194   4.009   0.956  2.0012  2.2229  1.7147
14532TIP3   OH265010   0.293   1.758   5.657 -0.3439  0.4005 -0.0150
14532TIP3    H165011   0.235   1.806   5.717  0.2246  0.8080  0.2225
14532TIP3    H265012   0.353   1.711   5.715 -0.4219 -0.0030 -0.2586
14533TIP3   OH265013   1.688   6.073   0.498  0.4820  0.5295 -0.0610
14533TIP3    H165014   1.762   6.023   0.465  2.1697  0.7408  3.0002
14533TIP3    H265015   1.663   6.028   0.579  0.1615  2.9240  1.2800
14534TIP3   OH265016   0.367   1.081   1.363  0.2194  0.3116 -0.0982
14534TIP3    H165017   0.300   1.104   1.427 -0.7967 -0.4582 -0.8611
14534TIP3    H265018   0.450   1.091   1.411 -0.5682 -1.7285  1.8502
14535TIP3   OH265019   5.072   2.832   5.278  0.3942 -0.5256 -0.0715
14535TIP3    H165020   4.990   2.873   5.303  0.3573 -1.1744  0.9805
14535TIP3    H265021   5.138   2.901   5.288  0.0014 -0.0206 -0.8639
14536TIP3   OH265022   0.878   3.382  15.792  0.0048  0.1251  0.6397
14536TIP3    H165023   0.857   3.372  15.699 -1.2918  0.0978  0.9169
14536TIP3    H265024   0.794   3.374  15.836  0.7048 -0.6136  1.8861
14537TIP3   OH265025   5.711   6.508  11.403  0.4013 -0.4445 -0.2640
14537TIP3    H165026   5.721   6.550  11.489 -0.6281 -1.0478  0.1824
14537TIP3    H265027   5.667   6.425  11.423 -2.0384  0.4245 -1.5691
14538TIP3   OH265028   3.181   5.885  15.577 -0.3770 -0.3341 -0.6057
14538TIP3    H165029   3.175   5.871  15.483 -0.0189  1.2991 -0.9080
14538TIP3    H265030   3.265   5.846  15.602 -0.5990 -1.0136 -0.8931
14539TIP3   OH265031   5.755   3.794  16.099  0.0869 -0.9340 -0.7756
14539TIP3    H165032   5.675   3.789  16.151  0.1302 -1.5227 -0.7588
14539TIP3    H265033   5.823   3.820  16.160 -0.3198  0.8597 -1.0476
14540TIP3   OH265034   3.793   0.663  11.452 -0.4564 -0.2082  0.3495
14540TIP3    H165035   3.709   0.693  11.488 -0.3732  0.6314 -0.1246
14540TIP3    H265036   3.777   0.655  11.358  0.2955  1.1054  0.0801
14541TIP3   OH265037   2.078   3.730  15.910 -0.0829  0.1384  0.4854
14541TIP3    H165038   1.992   3.769  15.927 -0.1357  0.6046 -0.7095
14541TIP3    H265039   2.104   3.690  15.993 -2.2051 -1.4883  0.4457
14542TIP3   OH265040   4.067   2.132   2.077  0.2133 -0.0288  0.3745
14542TIP3    H165041   4.037   2.208   2.027  0.7147 -0.5814 -0.8211
14542TIP3    H265042   4.018   2.135   2.159  0.2087  1.5649  0.3375
14543TIP3   OH265043   6.045   4.827   3.757 -0.5667  0.0906  0.0349
14543TIP3    H165044   6.035   4.779   3.839  1.5264  1.9019  1.4535
14543TIP3    H265045   6.140   4.831   3.743 -0.7424  2.4387 -0.8393
14544TIP3   OH265046   0.162   2.322   3.215 -0.4001  0.2705 -0.9504
14544TIP3    H165047   0.083   2.275   3.241  0.4050 -0.6322 -0.0753
14544TIP3    H265048   0.165   2.313   3.119 -1.1727  0.0489 -0.9625
14545TIP3   OH265049   2.618   4.676   3.888 -0.0070 -0.4448  0.1488
14545TIP3    H165050   2.660   4.689   3.802 -1.0171  0.5030 -0.2356
14545TIP3    H265051   2.682   4.710   3.951  0.4141 -0.3943 -0.2973
14546TIP3   OH265052   5.520   3.187  15.425  0.7138 -0.4725 -0.3239
14546TIP3    H165053   5.614   3.195  15.444  0.9426 -0.5560 -1.3457
14546TIP3    H265054   5.499   3.096  15.446  0.9073 -0.5054 -0.2730
14547TIP3   OH265055   6.418   4.509   6.505 -0.5582  0.5088 -0.0786
14547TIP3    H165056   6.493   4.450   6.506 -1.1495 -0.2772 -0.7762
14547TIP3    H265057   6.350   4.462   6.456 -1.2787  1.4806 -0.0590
14548TIP3   OH265058   5.899   1.645   5.491  0.4986 -0.2697 -0.1397
14548TIP3    H165059   5.972   1.701   5.515  0.9259 -0.9218  0.1010
14548TIP3    H265060   5.840   1.649   5.566  0.7715 -0.5470  0.0881
14549TIP3   OH265061   2.549   3.024   0.446 -0.1805 -0.6079  0.2530
14549TIP3    H165062   2.464   2.981   0.453 -0.1573 -0.8650 -0.8282
14549TIP3    H265063   2.612   2.952   0.442 -0.0124 -0.4427 -0.0938
14550TIP3   OH265064   0.294   3.341  14.287 -0.2119  0.0169 -0.2279
14550TIP3    H165065   0.329   3.253  14.298 -0.5314  0.1275  2.1730
14550TIP3    H265066   0.200   3.329  14.281 -0.1998  0.1414 -0.6714
14551TIP3   OH265067   1.486   0.064  17.376  0.1501  0.2154 -1.3048
14551TIP3    H165068   1.430   0.010  17.431  1.4725 -0.3416 -0.4736
14551TIP3    H265069   1.485   0.021  17.291 -0.2486 -0.0757 -1.1561
14552TIP3   OH265070   1.594   5.290   2.168 -0.0656 -0.3631 -0.9292
14552TIP3    H165071   1.546   5.217   2.128  0.4198 -0.8197 -0.6881
14552TIP3    H265072   1.584   5.277   2.262 -1.2276  0.7299 -0.8839
14553TIP3   OH265073   6.740   0.527   4.549  0.0376 -0.2379  0.3041
14553TIP3    H165074   6.731   0.515   4.455  0.4997  0.2555  0.1856
14553TIP3    H265075   6.824   0.487   4.571  0.9934  1.5502  0.1111
14554TIP3   OH265076   4.809   1.839  11.067  0.1843 -0.0896  0.2429
14554TIP3    H165077   4.860   1.910  11.029 -1.3998  1.0287  0.1177
14554TIP3    H265078   4.719   1.872  11.070 -0.3333 -1.4708  1.7158
14555TIP3   OH265079   5.302   4.923   5.939  0.4745 -0.3570 -0.4271
14555TIP3    H165080   5.294   4.841   5.987  0.5618  0.2030  0.5821
14555TIP3    H265081   5.350   4.981   5.998 -0.8001  0.8608 -0.5384
14556TIP3   OH265082   5.612   0.938  13.789 -0.0107  0.3043  0.1632
14556TIP3    H165083   5.604   0.900  13.702  0.8365 -1.3232  0.7505
14556TIP3    H265084   5.529   0.983  13.804 -0.6029 -0.3577 -1.0383
14557TIP3   OH265085   5.670   6.528  11.854 -0.1144 -0.0056 -0.0572
14557TIP3    H165086   5.674   6.543  11.948  1.8894 -1.5306  0.1526
14557TIP3    H265087   5.632   6.441  11.844  1.4961 -0.6907 -0.5225
14558TIP3   OH265088   0.283   4.674   5.915  0.3065 -0.2535  0.2703
14558TIP3    H165089   0.218   4.612   5.947 -0.1609  0.2539  0.3017
14558TIP3    H265090   0.305   4.728   5.990  1.9605 -1.4283  0.6952
14559TIP3   OH265091   0.057   6.613   2.273 -0.2811 -0.3021  0.0790
14559TIP3    H165092   0.025   6.628   2.362 -0.5635 -1.2100  0.1407
14559TIP3    H265093   0.043   6.520   2.258 -2.1099  0.1586 -1.6380
14560TIP3   OH265094   4.426   1.686   5.841 -0.7299  0.1256  0.1140
14560TIP3    H165095   4.505   1.703   5.893 -0.3241 -0.4118 -0.3066
14560TIP3    H265096   4.387   1.773   5.828 -0.6648  0.3054  1.0247
14561TIP3   OH265097   3.986   0.881   0.632 -0.0075  0.5019  0.2622
14561TIP3    H165098   4.005   0.787   0.630  0.7379  0.6605 -0.2301
14561TIP3    H265099   3.896   0.888   0.600  0.4162  0.0728 -1.0520
14562TIP3   OH265100   0.991   4.760   1.066 -0.6812 -0.2592 -0.0595
14562TIP3    H165101   0.970   4.682   1.014  0.0366 -0.9290  0.6316
14562TIP3    H265102   0.940   4.830   1.025 -1.4988 -1.1234 -0.5721
14563TIP3   OH265103   4.549   3.042  11.501  0.0527  0.3415 -0.4073
14563TIP3    H165104   4.488   2.972  11.480 -0.4940  0.7905 -0.3567
14563TIP3    H265105   4.518   3.117  11.449  0.8897  0.4289 -0.8106
14564TIP3   OH265106   3.130   2.969   0.956  0.2002  0.1375 -0.0813
14564TIP3    H165107   3.130   2.962   0.860 -0.4875  1.6714 -0.2324
14564TIP3    H265108   3.189   2.900   0.985 -0.4165 -1.0819 -1.5475
14565TIP3   OH265109   6.587   0.773   6.553 -0.4482 -0.1038  0.9515
14565TIP3    H165110   6.606   0.681   6.575 -1.0089 -0.6054 -0.5460
14565TIP3    H265111   6.504   0.770   6.506  0.0667  1.0369 -0.0875
14566TIP3   OH265112   0.599   6.469  15.262  0.3721  0.1518  0.4209
14566TIP3    H165113   0.652   6.532  15.310  1.0950  1.2623 -1.6823
14566TIP3    H265114   0.657   6.394  15.249 -0.1461 -0.5731  2.0277
14567TIP3   OH265115   6.329   2.767   1.795  0.4033 -0.2601 -0.0354
14567TIP3    H165116   6.353   2.835   1.858  0.9291 -0.6237  0.1585
14567TIP3    H265117   6.405   2.709   1.791 -0.7000 -1.8544  1.1550
14568TIP3   OH265118   5.020   0.032   1.930  0.0730  0.3386 -0.5166
14568TIP3    H165119   4.980  -0.033   1.872 -0.6776  0.9263 -0.6778
14568TIP3    H265120   5.082   0.078   1.874  1.3045 -0.8412 -0.1654
14569TIP3   OH265121   6.430   5.881   5.654 -0.2169 -0.9938 -0.4159
14569TIP3    H165122   6.452   5.791   5.630 -1.1222 -1.1145 -0.8168
14569TIP3    H265123   6.456   5.889   5.746  1.5612 -1.0973 -0.8760
14570TIP3   OH265124   0.792   1.251   3.991  0.2645 -0.0902  0.3890
14570TIP3    H165125   0.745   1.267   3.910  2.3495 -0.4450 -0.9625
14570TIP3    H265126   0.741   1.296   4.058 -1.8343 -0.2793 -0.9854
14571TIP3   OH265127   0.492   5.163  14.144  0.1193  0.5077 -0.3871
14571TIP3    H165128   0.572   5.144  14.193 -0.1864  2.0614  0.7919
14571TIP3    H265129   0.428   5.099  14.177 -0.3941  2.2055  2.1538
14572TIP3   OH265130   1.963   6.634   0.962  0.2753 -0.1217  0.2368
14572TIP3    H165131   1.895   6.631   0.894  0.7056 -2.0919 -0.1763
14572TIP3    H265132   2.046   6.630   0.914  0.6142 -0.4285  0.8340
14573TIP3   OH265133   0.867   1.790   4.486 -0.3992  0.3658  0.2228
14573TIP3    H165134   0.929   1.719   4.503  0.4301  1.3678  1.6340
14573TIP3    H265135   0.853   1.788   4.392  0.0037 -1.3310  0.1598
14574TIP3   OH265136   4.591   2.567   1.581 -0.7628  0.2485 -0.4289
14574TIP3    H165137   4.555   2.494   1.531 -2.3312  1.2620 -0.8606
14574TIP3    H265138   4.584   2.642   1.522 -0.6248  1.0424  0.5447
14575TIP3   OH265139   3.193   2.635  16.059  0.3552  0.0042 -0.1292
14575TIP3    H165140   3.130   2.639  16.131 -0.7154 -1.2761 -0.9446
14575TIP3    H265141   3.147   2.674  15.985  1.3982  1.1934 -0.1738
14576TIP3   OH265142   1.939   0.918   3.076 -0.4180 -0.0811  0.0458
14576TIP3    H165143   2.018   0.942   3.027 -0.4071  1.2580  0.6807
14576TIP3    H265144   1.885   0.997   3.075 -2.1186 -1.1962 -1.0163
14577TIP3   OH265145   0.917   6.698  12.058  0.5073  0.1525  0.4790
14577TIP3    H165146   0.826   6.721  12.080  0.7141 -0.7439  2.4526
14577TIP3    H265147   0.909   6.622  12.000 -0.0116 -0.2069  1.0077
14578TIP3   OH265148   4.263   1.073  14.588  0.4397  0.2863  0.0811
14578TIP3    H165149   4.348   1.083  14.632  0.1327 -1.8788  1.3688
14578TIP3    H265150   4.254   0.978  14.577 -0.1246  0.6372 -3.5970
14579TIP3   OH265151   3.990   4.048  13.831  0.4473 -0.2767  0.2530
14579TIP3    H165152   3.898   4.052  13.858  0.1747  0.4073 -0.7144
14579TIP3    H265153   4.006   3.956  13.812 -0.2709 -0.2851 -0.3447
14580TIP3   OH265154   4.821   3.360   1.556  0.0752  0.1241  0.4020
14580TIP3    H165155   4.731   3.327   1.565  0.3400 -0.3125  1.7381
14580TIP3    H265156   4.814   3.433   1.495 -1.2989  0.4645  0.9231
14581TIP3   OH265157   3.621   0.773  14.664 -0.3384  0.5555  0.6764
14581TIP3    H165158   3.552   0.714  14.635 -1.9047  2.1488  0.9846
14581TIP3    H265159   3.623   0.763  14.759 -0.5709  0.9280  0.7248
14582TIP3   OH265160   0.630   1.735  12.700  0.0763 -0.1678 -0.0349
14582TIP3    H165161   0.642   1.809  12.641  0.2426 -1.2444 -1.4174
14582TIP3    H265162   0.597   1.665  12.644 -2.7450 -0.3888  1.7377
14583TIP3   OH265163   0.091   5.359  16.537  0.0114  0.2511  0.8438
14583TIP3    H165164   0.158   5.382  16.601 -1.4344 -0.5360  2.7374
14583TIP3    H265165   0.130   5.288  16.486  0.9938  0.5110  1.2215
14584TIP3   OH265166   1.653   6.269  14.232 -0.4227 -0.1585  0.0780
14584TIP3    H165167   1.629   6.279  14.140 -1.3104 -0.9365  0.2017
14584TIP3    H265168   1.603   6.192  14.261 -1.7982  1.2656  1.7352
14585TIP3   OH265169   2.485   5.000  13.509  0.3983  0.7823 -0.2425
14585TIP3    H165170   2.488   5.075  13.568  1.6946  0.3619  0.2670
14585TIP3    H265171   2.507   4.925  13.564  0.3606  0.2043 -0.9981
14586TIP3   OH265172   0.804   3.570  16.915  0.1858  0.2469  0.3283
14586TIP3    H165173   0.817   3.492  16.862  1.0801  0.1664  0.6565
14586TIP3    H265174   0.709   3.578  16.923  0.0087  0.4669 -1.5585
14587TIP3   OH265175   3.303   2.781   0.447  0.2051  0.1700  0.2261
14587TIP3    H165176   3.247   2.712   0.482  1.6050 -1.9864 -1.4911
14587TIP3    H265177   3.357   2.737   0.382  1.7639  2.7647 -0.3822
14588TIP3   OH265178   6.000   3.864   3.613  0.0186  0.4168 -0.0715
14588TIP3    H165179   6.066   3.885   3.679 -1.3613 -0.3839  1.6640
14588TIP3    H265180   5.923   3.914   3.640 -0.4994  0.2851 -1.2606
14589TIP3   OH265181   5.947   0.441   4.954 -0.1123  0.3901 -0.1454
14589TIP3    H165182   5.858   0.468   4.933 -0.3205  0.0956  0.3414
14589TIP3    H265183   5.939   0.349   4.978  0.2579  0.4780  0.3187
14590TIP3   OH265184   2.779   5.222  11.730 -0.0333  0.2779 -0.1450
14590TIP3    H165185   2.762   5.261  11.644 -2.1598 -1.6266 -0.6793
14590TIP3    H265186   2.712   5.260  11.787  0.4052  0.3826  0.3087
14591TIP3   OH265187   3.088   2.273  12.775  0.0518 -0.0812 -0.0207
14591TIP3    H165188   3.038   2.355  12.783 -0.4270 -0.1741 -1.6534
14591TIP3    H265189   3.180   2.300  12.782 -0.1470  0.2369  1.9201
14592TIP3   OH265190   6.574   5.206   5.098  0.0461  0.1508 -0.3745
14592TIP3    H165191   6.569   5.227   5.191 -1.0702  0.7036 -0.5469
14592TIP3    H265192   6.592   5.112   5.095 -0.0539  0.1026  0.3967
14593TIP3   OH265193   2.738   5.532   0.209  0.6493  0.8732  0.1563
14593TIP3    H165194   2.654   5.492   0.186  0.6940  0.0566  1.3227
14593TIP3    H265195   2.733   5.621   0.173 -0.5647  0.7075 -0.1142
14594TIP3   OH265196   1.378   5.018  12.486  0.2061 -0.5140 -0.6589
14594TIP3    H165197   1.442   5.010  12.556 -0.3036 -1.6605 -0.2980
14594TIP3    H265198   1.304   5.065  12.525  0.6229  0.3938 -0.9415
14595TIP3   OH265199   2.130   2.337   1.078 -0.0522 -0.4322 -0.1071
14595TIP3    H165200   2.075   2.344   1.000  0.6351  0.5357 -0.5211
14595TIP3    H265201   2.124   2.423   1.120  1.5346 -0.1380 -0.4321
14596TIP3   OH265202   2.671   1.860   3.502  0.2615  0.2254  0.3360
14596TIP3    H165203   2.685   1.890   3.592 -0.5286 -1.1426  0.9529
14596TIP3    H265204   2.578   1.838   3.498  0.4838 -0.6522 -0.5208
14597TIP3   OH265205   3.869   4.334  12.610  0.0268 -0.2366 -0.2934
14597TIP3    H165206   3.774   4.322  12.612  0.0989 -0.8376 -0.4708
14597TIP3    H265207   3.904   4.247  12.594  0.7030 -0.3948  1.7630
14598TIP3   OH265208   0.444   4.408  12.290  0.3036  0.3381 -0.1398
14598TIP3    H165209   0.486   4.325  12.266  0.1866  0.2083  0.1087
14598TIP3    H265210   0.364   4.383  12.334  0.7959  0.5701  0.9080
14599TIP3   OH265211   1.547   2.576   4.814  0.1914  0.0290  0.0303
14599TIP3    H165212   1.460   2.592   4.849  0.4701  0.8304  0.3746
14599TIP3    H265213   1.601   2.559   4.891  0.5185  0.3796 -0.1211
14600TIP3   OH265214   5.934   1.866  15.312  0.0677 -0.2643 -0.2532
14600TIP3    H165215   5.891   1.852  15.397 -0.2904  1.6144 -0.0637
14600TIP3    H265216   5.941   1.779  15.274 -0.4936 -1.0684  1.3581
14601TIP3   OH265217   3.631   0.101  16.308  0.0014  0.4515  0.0570
14601TIP3    H165218   3.543   0.065  16.319  0.9236 -1.9989  0.2231
14601TIP3    H265219   3.627   0.153  16.228 -0.8444 -2.4373 -1.9325
14602TIP3   OH265220   4.075   0.792  17.018 -1.0400  0.4716 -0.1917
14602TIP3    H165221   4.035   0.878  17.005  1.7666  1.6341 -1.7957
14602TIP3    H265222   4.103   0.793  17.110 -0.2194  1.6456 -0.4441
14603TIP3   OH265223   1.755   6.036   3.278 -0.2398 -0.1665  0.4818
14603TIP3    H165224   1.784   5.966   3.335 -0.9495 -0.3834  0.5896
14603TIP3    H265225   1.700   6.091   3.333 -0.0519  0.2266  0.2830
14604TIP3   OH265226   4.190   0.507  13.521  0.4364 -0.0050  0.1168
14604TIP3    H165227   4.195   0.531  13.429 -0.4818 -0.8956 -0.1806
14604TIP3    H265228   4.098   0.519  13.544  0.8940  1.6346  1.3489
14605TIP3   OH265229   3.826   4.860   6.058 -0.5637 -0.1191 -1.1827
14605TIP3    H165230   3.808   4.953   6.071 -1.5679 -0.5281  0.6379
14605TIP3    H265231   3.764   4.833   5.990  0.2428  0.6593 -2.2757
14606TIP3   OH265232   1.348   3.821  15.553 -0.9812  0.0923 -0.4437
14606TIP3    H165233   1.395   3.905  15.553  1.8302 -1.2782  2.5465
14606TIP3    H265234   1.350   3.792  15.461  1.3593  1.5437 -0.9183
14607TIP3   OH265235   4.317   4.479   1.623 -0.0991 -0.3710  0.1178
14607TIP3    H165236   4.230   4.441   1.621 -0.6933  0.9430 -0.3157
14607TIP3    H265237   4.323   4.531   1.542  1.2999 -0.8778 -0.1447
14608TIP3   OH265238   4.835   0.748  12.744  0.1987 -0.6536  0.2240
14608TIP3    H165239   4.785   0.784  12.818  2.0159  2.0817  0.2912
14608TIP3    H265240   4.790   0.781  12.667 -0.4723 -1.7070  0.1604
14609TIP3   OH265241   0.745   4.351  17.167 -0.3304 -0.0804 -0.0762
14609TIP3    H165242   0.752   4.356  17.072  0.0407 -0.6508 -0.0885
14609TIP3    H265243   0.651   4.343  17.184 -0.2777 -3.2061 -0.6209
14610TIP3   OH265244   3.151   3.573  11.559  0.7364 -0.5206 -0.3509
14610TIP3    H165245   3.119   3.548  11.472 -0.4341  2.4410 -0.8671
14610TIP3    H265246   3.102   3.516  11.619 -0.5933 -0.6267 -1.4889
14611TIP3   OH265247   0.894   4.252   0.542  0.0679 -0.3896  0.0703
14611TIP3    H165248   0.808   4.293   0.543  0.4107  0.3295  0.6843
14611TIP3    H265249   0.877   4.162   0.514 -0.6501  0.2675 -1.8160
14612TIP3   OH265250   4.157   3.874  12.443 -0.0502 -0.0899  0.5623
14612TIP3    H165251   4.228   3.838  12.390 -0.6299 -0.1270 -0.2050
14612TIP3    H265252   4.088   3.808  12.439 -0.9588  0.8811 -0.5078
14613TIP3   OH265253   6.270   2.208   4.348 -0.5006 -0.0520 -0.9339
14613TIP3    H165254   6.266   2.294   4.388  2.2811  0.1511 -0.8953
14613TIP3    H265255   6.242   2.148   4.417  0.1152  0.6260 -0.0684
14614TIP3   OH265256   2.073   3.157  16.324  0.1871 -0.0634  0.0991
14614TIP3    H165257   2.014   3.109  16.382  3.8485 -3.0918  1.7353
14614TIP3    H265258   2.059   3.116  16.238 -2.2830  1.5847 -0.3934
14615TIP3   OH265259   5.295   4.195  13.560  0.0194  0.0366  0.2730
14615TIP3    H165260   5.245   4.119  13.530 -1.3832  0.4883  1.3280
14615TIP3    H265261   5.386   4.175  13.538 -0.0199 -2.8264  2.1725
14616TIP3   OH265262   0.042   6.504  13.128  0.3007  0.6160 -0.1505
14616TIP3    H165263   0.123   6.505  13.077 -0.0531  0.3467 -0.7278
14616TIP3    H265264  -0.025   6.537  13.068 -0.0962  0.4255  0.1830
14617TIP3   OH265265   5.395   0.733   0.657 -0.5043 -0.4906 -0.2874
14617TIP3    H165266   5.329   0.803   0.660 -0.0224 -0.0419 -0.0688
14617TIP3    H265267   5.380   0.690   0.573 -0.0047  0.6569 -0.9907
14618TIP3   OH265268   4.356   3.751   4.931 -0.5009 -0.1714  0.3238
14618TIP3    H165269   4.283   3.795   4.887 -1.0341 -0.6107  0.7522
14618TIP3    H265270   4.348   3.660   4.905 -0.2582 -0.2646  0.5769
14619TIP3   OH265271   1.739   4.150  14.291 -0.8725 -0.0096  0.4291
14619TIP3    H165272   1.708   4.203  14.365 -0.4750 -0.0034  0.5925
14619TIP3    H265273   1.688   4.070  14.296 -0.2906 -0.3500  1.1968
14620TIP3   OH265274   1.679   2.784   0.489  0.0475 -0.1176  0.4254
14620TIP3    H165275   1.618   2.767   0.560  0.3858 -0.0252  0.7390
14620TIP3    H265276   1.758   2.816   0.532  0.7201 -1.2894  0.1082
14621TIP3   OH265277   5.666   6.388   0.222  0.3220  0.1367  0.3915
14621TIP3    H165278   5.631   6.345   0.144 -1.1454  0.6344  0.7362
14621TIP3    H265279   5.698   6.473   0.191  0.9011 -0.1668  0.1378
14622TIP3   OH265280   3.527   4.000  13.136 -0.1477  1.0475 -0.1892
14622TIP3    H165281   3.472   4.059  13.085  2.1138  1.1160 -2.8080
14622TIP3    H265282   3.584   4.057  13.187  0.2961  1.0907 -0.7257
14623TIP3   OH265283   1.818   6.635   4.641  0.4314  0.3850 -0.2822
14623TIP3    H165284   1.876   6.711   4.635 -1.8181  2.1072 -2.6071
14623TIP3    H265285   1.870   6.562   4.608  2.2927  1.0704  0.9389
14624TIP3   OH265286   1.768   6.756  13.488 -0.2787  0.2564 -0.1400
14624TIP3    H165287   1.698   6.795  13.540 -0.2415  0.0739  0.0509
14624TIP3    H265288   1.724   6.693  13.431 -0.3029  0.3422 -0.2144
14625TIP3   OH265289   5.869   6.131   0.118 -0.0238  0.1820 -0.4183
14625TIP3    H165290   5.937   6.153   0.054  1.6609 -0.2616  1.1115
14625TIP3    H265291   5.886   6.038   0.139  0.3514  0.6460  1.5831
14626TIP3   OH265292   0.926   5.645   5.215  0.4318  0.1580  0.2190
14626TIP3    H165293   0.946   5.623   5.124  0.4932 -0.0347  0.2770
14626TIP3    H265294   0.832   5.630   5.223  0.5838 -0.7909  0.4415
14627TIP3   OH265295   2.911   2.200   0.065 -0.5088 -0.2938  0.1865
14627TIP3    H165296   2.907   2.252  -0.015 -0.6900  0.2048  0.5092
14627TIP3    H265297   2.993   2.151   0.058  0.0172  0.5619  0.1827
14628TIP3   OH265298   3.126   2.911  12.563  0.3563 -0.0142  0.5594
14628TIP3    H165299   3.130   2.872  12.475  3.0467 -1.2328  1.1002
14628TIP3    H265300   3.186   2.985  12.559  0.1963  0.1580  1.2736
14629TIP3   OH265301   6.390   5.792  13.343  0.2818  0.4412  0.1653
14629TIP3    H165302   6.315   5.827  13.389  1.5565  2.0886  1.0837
14629TIP3    H265303   6.421   5.719  13.397 -0.3502  0.0551  0.0156
14630TIP3   OH265304   2.569   1.818  13.532  0.3845  0.3559 -0.4021
14630TIP3    H165305   2.498   1.872  13.497 -0.2479  0.5460  1.0847
14630TIP3    H265306   2.598   1.864  13.611  1.1701 -0.4654 -0.1960
14631TIP3   OH265307   3.293   3.519   3.618 -0.3381 -0.4699  0.0424
14631TIP3    H165308   3.296   3.477   3.704  0.1462  0.3188  0.4262
14631TIP3    H265309   3.216   3.577   3.622  1.1189  1.5400  0.9323
14632TIP3   OH265310   2.418   2.661   2.901  0.0356  0.5032 -0.5228
14632TIP3    H165311   2.478   2.585   2.904  0.2267  0.6881  0.6901
14632TIP3    H265312   2.476   2.736   2.893 -0.1043  0.5995 -0.6321
14633TIP3   OH265313   6.371   2.899  11.593 -0.1439  0.4482  0.4889
14633TIP3    H165314   6.361   2.980  11.544 -0.0675  1.5114  2.1507
14633TIP3    H265315   6.449   2.913  11.648 -0.2377 -0.6707  0.9383
14634TIP3   OH265316   1.820   2.074  14.045 -0.2932  0.0694 -0.1692
14634TIP3    H165317   1.823   1.982  14.069 -0.3183 -0.1964 -1.1330
14634TIP3    H265318   1.757   2.113  14.106  0.7625 -0.2413  1.1783
14635TIP3   OH265319   4.256   0.794  14.581  0.1814 -0.5996 -0.1674
14635TIP3    H165320   4.308   0.714  14.588 -1.1591 -1.3965  0.9694
14635TIP3    H265321   4.172   0.773  14.620 -0.6191  1.0277 -0.8853
14636TIP3   OH265322   6.369   6.515   3.009  0.0956 -0.2131  0.0975
14636TIP3    H165323   6.384   6.586   2.947  0.2075 -0.6415 -0.3634
14636TIP3    H265324   6.346   6.560   3.091 -2.6752  0.3391 -0.8832
14637TIP3   OH265325   2.896   1.137   1.278  0.2477 -0.1198  0.0444
14637TIP3    H165326   2.827   1.174   1.222  1.1295  2.1597  0.3631
14637TIP3    H265327   2.849   1.107   1.356 -0.4716  0.9180  0.0364
14638TIP3   OH265328   5.306   6.310   3.087  0.8878  0.0791 -0.9677
14638TIP3    H165329   5.396   6.307   3.117  0.9372 -0.6162 -1.1628
14638TIP3    H265330   5.272   6.222   3.102 -0.1064  0.6111  0.1201
14639TIP3   OH265331   5.178   0.665   1.431  0.0423  0.2235 -0.3191
14639TIP3    H165332   5.124   0.643   1.507  3.0863  1.1280  2.3173
14639TIP3    H265333   5.222   0.584   1.407 -1.3430 -0.1935 -1.5658
14640TIP3   OH265334   0.802   5.702  12.090 -0.5782 -0.4366 -0.2992
14640TIP3    H165335   0.830   5.761  12.020  0.1770  2.0661  1.9237
14640TIP3    H265336   0.884   5.673  12.131 -1.0124 -1.3825 -0.0804
14641TIP3   OH265337   2.408   6.554   3.671 -0.5957  0.3828 -0.3545
14641TIP3    H165338   2.404   6.551   3.766 -1.2326  0.5801 -0.3714
14641TIP3    H265339   2.499   6.575   3.651  0.3732 -2.8061  0.1415
14642TIP3   OH265340   1.766   4.616   2.284  0.1570 -0.5307  0.1705
14642TIP3    H165341   1.764   4.556   2.209  1.4430 -0.3276 -0.0553
14642TIP3    H265342   1.713   4.690   2.256 -1.0187 -1.3146  0.2508
14643TIP3   OH265343   3.242   4.894  15.443  0.0221 -0.6092 -0.3915
14643TIP3    H165344   3.194   4.816  15.471  1.1388 -0.6999  1.4469
14643TIP3    H265345   3.189   4.967  15.476 -1.4835 -0.4652 -2.8601
14644TIP3   OH265346   2.903   3.376   5.960 -0.1954 -0.0003  0.3926
14644TIP3    H165347   2.926   3.336   6.044  0.1572 -1.5905 -0.4342
14644TIP3    H265348   2.812   3.353   5.946 -1.1157  2.5175  1.5304
14645TIP3   OH265349   4.055   2.445  16.546  0.4488  0.0764 -0.1306
14645TIP3    H165350   3.969   2.468  16.582  0.2802  2.8465 -1.9885
14645TIP3    H265351   4.109   2.426  16.622 -0.8358  2.0652  1.3719
14646TIP3   OH265352   2.335   0.837   3.079 -0.0807  0.0254 -0.1079
14646TIP3    H165353   2.416   0.886   3.065  0.2260 -0.2738  0.5787
14646TIP3    H265354   2.289   0.844   2.995  1.4047 -1.1735 -1.0915
14647TIP3   OH265355   6.698   2.147   5.039 -0.8933 -0.3337  0.2311
14647TIP3    H165356   6.662   2.195   4.964 -1.1853  0.5363  0.9094
14647TIP3    H265357   6.637   2.074   5.053 -2.0115  0.6793  0.8830
14648TIP3   OH265358   6.226   4.985   4.995  0.1623  0.0199  0.3025
14648TIP3    H165359   6.167   5.048   5.037  0.4674  0.7435 -0.3476
14648TIP3    H265360   6.168   4.933   4.939  0.0857  0.5010 -0.0697
14649TIP3   OH265361   1.754   5.778   2.260  0.4098  0.2572  0.5049
14649TIP3    H165362   1.687   5.741   2.316 -1.3126  1.4864 -0.6291
14649TIP3    H265363   1.778   5.707   2.200  2.3455 -1.0922  2.7298
14650TIP3   OH265364   3.715   0.266   0.859  0.4299  0.0239  0.2425
14650TIP3    H165365   3.673   0.190   0.820  0.6305  0.4725 -0.8634
14650TIP3    H265366   3.643   0.328   0.873  0.2774 -0.3165  1.0837
14651TIP3   OH265367   0.325   1.843   4.216  0.4318  0.4570  0.5181
14651TIP3    H165368   0.399   1.789   4.190 -0.3892 -0.1483 -0.6970
14651TIP3    H265369   0.267   1.842   4.140 -1.4843 -0.2550  1.8995
14652TIP3   OH265370   0.959   4.175   1.580 -0.2175  0.7833 -0.0493
14652TIP3    H165371   0.994   4.098   1.625 -0.4110  1.1709  0.7847
14652TIP3    H265372   0.922   4.229   1.650  1.2343  2.3375 -0.4193
14653TIP3   OH265373   0.660   2.129  13.669 -0.5813  0.1458 -0.2960
14653TIP3    H165374   0.623   2.197  13.725  0.2569 -0.5384  1.1459
14653TIP3    H265375   0.583   2.090  13.626 -1.0267  2.3734 -1.6917
14654TIP3   OH265376   2.759   5.393   2.067  0.4747  0.1701 -0.3970
14654TIP3    H165377   2.850   5.416   2.087  0.4518  0.3701 -0.5263
14654TIP3    H265378   2.743   5.313   2.118  0.5320  0.4792  0.1109
14655TIP3   OH265379   0.511   2.247   5.716 -0.3310  0.3555  0.0427
14655TIP3    H165380   0.600   2.249   5.680 -0.9458 -0.3132 -1.6504
14655TIP3    H265381   0.523   2.239   5.810  1.4730 -3.4738 -0.3196
14656TIP3   OH265382   0.924   1.172   2.712 -0.5613  0.2002 -0.0687
14656TIP3    H165383   1.007   1.211   2.739 -0.4548 -1.6183  2.6077
14656TIP3    H265384   0.862   1.196   2.781 -1.7860 -0.0195 -1.0540
14657TIP3   OH265385   1.768   1.912  16.285  0.0316  0.3543 -1.0911
14657TIP3    H165386   1.775   2.005  16.305  0.6864 -0.0509  0.7193
14657TIP3    H265387   1.698   1.880  16.342  0.5320 -0.4584 -0.9171
14658TIP3   OH265388   1.342   4.476  17.108 -0.2040 -0.9744 -0.2117
14658TIP3    H165389   1.288   4.554  17.117  0.9964 -0.0358 -0.7455
14658TIP3    H265390   1.321   4.422  17.184  0.3296  0.7660  1.2312
14659TIP3   OH265391   2.948   2.212   2.477 -1.2695 -0.0420  0.0006
14659TIP3    H165392   3.009   2.181   2.544 -1.6708 -1.2766 -0.1714
14659TIP3    H265393   2.882   2.262   2.525 -0.6052  0.5662  0.2942
14660TIP3   OH265394   1.298   1.537   5.609 -0.3175  0.3534 -0.8080
14660TIP3    H165395   1.246   1.502   5.682  2.2683 -1.8867  0.1378
14660TIP3    H265396   1.339   1.616   5.645 -1.0354  0.6892 -0.7104
14661TIP3   OH265397   0.345   1.414  14.858  0.2556  0.0862  0.0115
14661TIP3    H165398   0.439   1.402  14.864  0.3396 -0.1120 -1.2722
14661TIP3    H265399   0.323   1.385  14.769 -0.3213  4.5095 -1.5523
14662TIP3   OH265400   1.613   6.049   2.302 -0.0337  0.6995  0.2943
14662TIP3    H165401   1.662   5.975   2.268 -2.6181 -1.1309  0.2565
14662TIP3    H265402   1.565   6.083   2.226  0.8844  2.3027  0.3724
14663TIP3   OH265403   5.488   0.372   4.292  0.2242  0.3195  0.4744
14663TIP3    H165404   5.566   0.334   4.252 -0.5030 -1.2009  0.4465
14663TIP3    H265405   5.439   0.410   4.219  0.3326  0.1746  0.3266
14664TIP3   OH265406   4.315   6.410   4.615 -0.1731 -0.5539  0.8527
14664TIP3    H165407   4.301   6.332   4.562 -0.8143 -0.3898  0.7744
14664TIP3    H265408   4.383   6.385   4.677  1.2366 -0.4762 -0.6009
14665TIP3   OH265409   2.337   1.050   1.896 -0.0979 -0.2272 -0.2954
14665TIP3    H165410   2.320   1.136   1.858 -1.1378  0.3197  1.3332
14665TIP3    H265411   2.428   1.054   1.926  0.4649 -0.3783 -1.8461
14666TIP3   OH265412   4.344   5.788  11.848 -0.0592 -0.1336 -0.1860
14666TIP3    H165413   4.361   5.790  11.754 -4.1947  2.8177 -1.1648
14666TIP3    H265414   4.421   5.830  11.888  0.4338  1.4799 -2.6452
14667TIP3   OH265415   3.093   2.840  12.034  0.1660  0.0343 -0.4379
14667TIP3    H165416   3.042   2.889  11.970  1.3629  1.6752 -0.1954
14667TIP3    H265417   3.183   2.867  12.020  0.7785 -1.4941  0.2848
14668TIP3   OH265418   4.242   5.311  14.201 -0.2593  0.9420 -0.0292
14668TIP3    H165419   4.291   5.286  14.280  0.2258  1.1633 -0.2644
14668TIP3    H265420   4.299   5.370  14.154 -0.6354  0.9735 -0.4531
14669TIP3   OH265421   5.378   0.521  14.435 -0.2391 -0.7313 -0.0998
14669TIP3    H165422   5.356   0.520  14.342 -0.9268  1.8188 -0.0409
14669TIP3    H265423   5.329   0.595  14.471  2.3437  0.2962  1.6638
14670TIP3   OH265424   3.038   3.597  13.910  0.6955 -0.0628 -0.0168
14670TIP3    H165425   3.132   3.610  13.924  0.8217 -0.8746 -0.0938
14670TIP3    H265426   3.032   3.543  13.832  0.1294  0.6091 -0.4571
14671TIP3   OH265427   4.853   3.773  12.738  0.1126  0.4983  0.1877
14671TIP3    H165428   4.791   3.831  12.783  0.4642  1.0275  0.0064
14671TIP3    H265429   4.816   3.762  12.651  0.5692  1.3048 -0.1179
14672TIP3   OH265430   2.856   5.863   4.981 -0.4354 -0.2601 -0.3052
14672TIP3    H165431   2.914   5.793   5.013 -0.2193  0.4848  0.9935
14672TIP3    H265432   2.772   5.818   4.965  0.2715 -1.2105 -1.5313
14673TIP3   OH265433   0.923   5.079  13.386 -0.8615  0.0855  0.4543
14673TIP3    H165434   0.988   5.010  13.399  0.1994  0.7703 -0.9699
14673TIP3    H265435   0.963   5.157  13.425 -0.9451  0.4499 -0.1824
14674TIP3   OH265436   1.192   3.288  14.593  0.9328  0.5228  0.2150
14674TIP3    H165437   1.126   3.299  14.525  0.9637 -0.0939  0.0797
14674TIP3    H265438   1.235   3.205  14.572  0.7485  0.1681  1.1362
14675TIP3   OH265439   5.768   3.346   5.668 -0.1627  0.0372 -0.0160
14675TIP3    H165440   5.690   3.387   5.706  0.1386 -0.8955  1.7022
14675TIP3    H265441   5.779   3.390   5.584 -2.2547  0.5412 -0.0971
14676TIP3   OH265442   5.602   6.346   5.426  0.0061 -0.0819  0.1368
14676TIP3    H165443   5.691   6.340   5.392  0.2767  1.6786  0.4797
14676TIP3    H265444   5.612   6.370   5.518 -0.8168  1.9883 -0.2713
14677TIP3   OH265445   6.179   6.010  14.903 -0.0167  0.1917  0.3365
14677TIP3    H165446   6.112   5.942  14.912  0.0875 -0.4030 -2.4965
14677TIP3    H265447   6.261   5.962  14.890  0.1585  0.8478 -1.1013
14678TIP3   OH265448   1.211   4.484  16.855  0.4016  0.0894  0.1208
14678TIP3    H165449   1.285   4.534  16.820  1.4695 -1.2527  0.3977
14678TIP3    H265450   1.238   4.459  16.943 -1.1642  1.1314  0.9478
14679TIP3   OH265451   0.594   2.188  16.981  0.4969 -0.1165 -0.3257
14679TIP3    H165452   0.620   2.222  16.895  0.7423 -0.7276 -0.4967
14679TIP3    H265453   0.658   2.120  17.000  0.9289  0.5609  0.7133
14680TIP3   OH265454   2.541   0.550   2.833  0.2967  0.0887  0.5438
14680TIP3    H165455   2.451   0.560   2.800  1.1028  0.8473 -1.5607
14680TIP3    H265456   2.560   0.457   2.820  1.5028  0.7298 -3.9967
14681TIP3   OH265457   1.322   2.251   0.047 -0.7347  0.1628 -0.1397
14681TIP3    H165458   1.303   2.157   0.057  2.5550 -0.4242  2.4009
14681TIP3    H265459   1.261   2.294   0.107 -0.5349 -0.6431  0.6676
14682TIP3   OH265460   3.781   6.284   2.463  0.3092 -0.0080 -0.7342
14682TIP3    H165461   3.687   6.277   2.446 -0.2060 -1.8642  2.1709
14682TIP3    H265462   3.804   6.372   2.433 -2.8003  1.2749  0.2185
14683TIP3   OH265463   0.735   4.463   3.556 -0.8862 -0.4363 -0.2263
14683TIP3    H165464   0.688   4.521   3.496 -2.5888  0.2307  1.6445
14683TIP3    H265465   0.725   4.505   3.642  0.4913 -1.9338  0.7111
14684TIP3   OH265466   2.305   2.643  13.033  0.4704 -0.4762  0.0841
14684TIP3    H165467   2.254   2.594  13.097 -1.6070  0.1776 -0.9715
14684TIP3    H265468   2.251   2.719  13.012  1.2986 -0.3887 -2.0445
14685TIP3   OH265469   2.412   5.633   5.374  0.2336 -0.3198 -0.1241
14685TIP3    H165470   2.325   5.616   5.411  0.4895 -0.2226  0.5364
14685TIP3    H265471   2.467   5.564   5.410  0.4891 -0.2202 -0.3239
14686TIP3   OH265472   3.131   0.322  16.245 -0.1723 -0.0286  0.1852
14686TIP3    H165473   3.112   0.347  16.155 -1.1105 -0.2944  0.2987
14686TIP3    H265474   3.045   0.308  16.285  0.2567 -0.9033  0.8438
14687TIP3   OH265475   1.669   5.452   4.020  0.0974  0.0635 -0.5823
14687TIP3    H165476   1.747   5.417   3.978  1.2050 -0.3554  1.6708
14687TIP3    H265477   1.701   5.493   4.100 -1.9567  0.1010  0.2861
14688TIP3   OH265478   2.451   0.162  12.045 -0.1267 -0.2124  0.2485
14688TIP3    H165479   2.457   0.085  11.988  2.0336  0.1049 -0.0368
14688TIP3    H265480   2.372   0.207  12.016 -0.5318 -1.4679 -0.6940
14689TIP3   OH265481   4.532   0.429   5.541 -0.0737 -0.1428  0.1430
14689TIP3    H165482   4.493   0.394   5.461 -1.9814 -0.1076  0.9905
14689TIP3    H265483   4.621   0.454   5.516 -0.9752  0.9779 -2.2900
14690TIP3   OH265484   0.129   2.662  15.123 -0.2237 -0.2725 -0.5113
14690TIP3    H165485   0.216   2.681  15.159 -0.5133 -0.0607  0.0886
14690TIP3    H265486   0.140   2.580  15.076  0.3218 -0.2093 -0.4965
14691TIP3   OH265487   2.893   3.117  11.647  0.0251 -0.0149  0.2528
14691TIP3    H165488   2.855   3.202  11.625  0.3612  0.6961  2.2583
14691TIP3    H265489   2.865   3.059  11.576 -1.3098  1.4571 -0.4717
14692TIP3   OH265490   0.902   3.341  11.579  0.3049  0.0309  0.6683
14692TIP3    H165491   0.948   3.257  11.567 -0.2176 -0.0250 -1.2160
14692TIP3    H265492   0.906   3.383  11.493 -2.6255  0.2891  0.5632
14693TIP3   OH265493   0.820   1.753  10.738 -0.1185  0.9027  0.2766
14693TIP3    H165494   0.811   1.840  10.699 -1.3402 -0.2033 -2.0804
14693TIP3    H265495   0.732   1.716  10.736  0.4958 -0.6628  0.5942
14694TIP3   OH265496   4.916   5.988  12.432 -0.2346 -0.0688 -0.0800
14694TIP3    H165497   4.906   5.931  12.355  0.1336 -1.4519  0.8453
14694TIP3    H265498   4.988   5.949  12.481 -1.2684  0.0222  1.5967
14695TIP3   OH265499   5.249   5.341   2.775  0.0316 -0.5867 -0.2035
14695TIP3    H165500   5.249   5.267   2.714 -2.2171 -0.2085 -0.7135
14695TIP3    H265501   5.231   5.301   2.860  0.2200 -0.7595 -0.2410
14696TIP3   OH265502   2.176   2.863   4.457  0.2606 -0.4554  0.1219
14696TIP3    H165503   2.096   2.911   4.480  0.1920 -0.3082 -0.4047
14696TIP3    H265504   2.191   2.805   4.531 -0.5129 -0.7135  0.0866
14697TIP3   OH265505   0.854   3.282   0.735  0.1087  0.0042 -0.3980
14697TIP3    H165506   0.810   3.356   0.694 -1.3450 -0.9913 -0.7324
14697TIP3    H265507   0.805   3.266   0.815  2.2738  1.2580  1.2626
14698TIP3   OH265508   1.721   3.821  17.230  0.4474 -0.2635  0.0247
14698TIP3    H165509   1.747   3.736  17.266  1.5882  0.2362  0.4274
14698TIP3    H265510   1.730   3.882  17.303  0.9910  0.4474 -0.6183
14699TIP3   OH265511   6.173   3.549   2.526 -0.0640 -0.5430  0.4919
14699TIP3    H165512   6.119   3.619   2.562 -1.4852 -0.7572 -1.1222
14699TIP3    H265513   6.111   3.487   2.489  1.2387 -0.0941 -2.7347
14700TIP3   OH265514   1.876   2.996  14.178  0.4838  0.4966  0.1118
14700TIP3    H165515   1.907   2.979  14.267 -2.3188  2.7166  1.6947
14700TIP3    H265516   1.947   3.046  14.137  1.0188  1.2144  1.8225
14701TIP3   OH265517   2.230   4.264  16.098 -0.6755  0.2722  0.0606
14701TIP3    H165518   2.301   4.206  16.126 -0.6617  1.1905  2.0849
14701TIP3    H265519   2.264   4.352  16.112 -1.5893  0.7482 -0.6173
14702TIP3   OH265520   0.925   4.722   1.476  0.0069 -0.1534 -0.3555
14702TIP3    H165521   0.928   4.633   1.441 -0.4642 -0.4129  0.2434
14702TIP3    H265522   0.832   4.740   1.487  0.0065  0.9751 -1.8406
14703TIP3   OH265523   0.560   1.840  12.062 -0.3475 -0.4567  0.0797
14703TIP3    H165524   0.607   1.896  12.124  0.2517 -1.6385  0.7328
14703TIP3    H265525   0.551   1.894  11.983 -1.1864  1.1088  1.1919
14704TIP3   OH265526   4.149   6.381  15.164  0.1854 -0.2456 -0.3186
14704TIP3    H165527   4.122   6.312  15.104  0.7041  0.6458 -1.6182
14704TIP3    H265528   4.134   6.344  15.251  0.0578 -1.8228 -0.9792
14705TIP3   OH265529   1.428   2.218   2.243 -0.7701 -0.2772 -0.2830
14705TIP3    H165530   1.358   2.197   2.304 -2.6046  1.0287 -1.8054
14705TIP3    H265531   1.436   2.140   2.188 -0.1380 -0.8883  0.6381
14706TIP3   OH265532   2.682   4.631   1.897  0.1200 -0.4247 -0.4960
14706TIP3    H165533   2.630   4.655   1.820 -0.1574 -2.7864 -1.1409
14706TIP3    H265534   2.772   4.635   1.867  0.2666  1.9182  0.0960
14707TIP3   OH265535   5.629   1.923   3.778  0.1794  0.5235  0.3415
14707TIP3    H165536   5.703   1.877   3.740 -2.1041 -3.4449  0.1662
14707TIP3    H265537   5.574   1.947   3.704  1.3106  3.9446  0.4154
14708TIP3   OH265538   5.564   6.080   3.036  0.2210 -0.0526  0.3601
14708TIP3    H165539   5.652   6.047   3.019 -0.1341 -0.7203 -0.2152
14708TIP3    H265540   5.536   6.116   2.951 -0.0542  0.1758  0.5468
14709TIP3   OH265541   3.700   0.083   5.418  0.3339 -0.1945  0.3441
14709TIP3    H165542   3.661  -0.003   5.432  3.1584 -1.4303  1.3334
14709TIP3    H265543   3.743   0.103   5.502 -1.3323  2.8339  0.5962
14710TIP3   OH265544   3.930   0.034   0.276  1.0515 -0.0654 -0.8067
14710TIP3    H165545   3.928   0.021   0.370 -1.5258 -1.3321 -0.9509
14710TIP3    H265546   3.886   0.118   0.262  1.5802  0.2034 -0.8943
14711TIP3   OH265547   6.077   6.465  15.501  0.4626  0.1630 -0.4219
14711TIP3    H165548   5.996   6.428  15.465  1.5129 -0.1858 -2.5417
14711TIP3    H265549   6.143   6.397  15.488  0.9969  0.0658  2.1189
14712TIP3   OH265550   5.584   4.436   5.127  0.9989  0.0796 -0.3960
14712TIP3    H165551   5.506   4.468   5.172  0.1236 -1.6262 -0.6117
14712TIP3    H265552   5.573   4.341   5.125  3.5883 -0.3255  0.4896
14713TIP3   OH265553   2.139   0.188   6.191  0.3821 -0.3788 -0.0742
14713TIP3    H165554   2.159   0.100   6.224  0.1334 -0.5072 -0.2575
14713TIP3    H265555   2.138   0.178   6.096 -2.5483 -0.8692 -0.0885
14714TIP3   OH265556   3.229   1.833  17.123 -0.8445  0.2968 -0.2948
14714TIP3    H165557   3.174   1.909  17.108  0.3406  0.9785 -1.4372
14714TIP3    H265558   3.311   1.853  17.077 -0.2693 -1.3937 -0.0941
14715TIP3   OH265559   0.127   1.921   3.634 -0.4156 -0.5483  0.0665
14715TIP3    H165560   0.035   1.945   3.635 -0.1136  0.8396  2.8665
14715TIP3    H265561   0.153   1.921   3.726  2.9277  1.4730 -0.7160
14716TIP3   OH265562   6.496   0.446   5.159  0.5537 -0.2185  0.3123
14716TIP3    H165563   6.532   0.426   5.072 -1.3136  1.7280 -1.0137
14716TIP3    H265564   6.402   0.449   5.146  0.3201  4.9248  1.0819
14717TIP3   OH265565   1.502   4.481   0.691  0.5823  0.5786  0.5666
14717TIP3    H165566   1.455   4.563   0.676 -0.6260 -0.2078 -0.0978
14717TIP3    H265567   1.502   4.437   0.606 -1.0142 -1.2099  1.4107
14718TIP3   OH265568   2.879   1.009   2.952 -0.0141 -0.0706  0.0222
14718TIP3    H165569   2.848   1.087   2.905  0.3241 -0.2447 -0.4897
14718TIP3    H265570   2.821   0.939   2.924 -1.3986  0.2977  1.7364
14719TIP3   OH265571   1.497   2.483  10.866  0.0767 -0.2948  0.2505
14719TIP3    H165572   1.424   2.541  10.846  0.5885  0.5399  0.7183
14719TIP3    H265573   1.460   2.415  10.921 -0.5890 -0.5646 -0.5254
14720TIP3   OH265574   3.483   2.735   4.933  0.0326  0.3520 -0.3584
14720TIP3    H165575   3.539   2.670   4.890  1.2561  0.8660  0.3863
14720TIP3    H265576   3.544   2.787   4.986 -1.2425  0.5591  0.9594
14721TIP3   OH265577   3.398   4.999   2.439 -0.7252 -1.1637  0.1276
14721TIP3    H165578   3.366   5.022   2.526  0.1164 -0.1308  0.1915
14721TIP3    H265579   3.335   4.935   2.407 -1.1065 -1.4961  1.4527
14722TIP3   OH265580   0.514   3.986  12.468 -0.0958 -0.6239  0.0849
14722TIP3    H165581   0.485   4.064  12.516 -1.3483 -0.6285 -0.6183
14722TIP3    H265582   0.468   3.913  12.511 -1.8973 -0.5389 -1.5723
14723TIP3   OH265583   4.135   1.783  12.633 -0.3409 -0.3647  0.1110
14723TIP3    H165584   4.115   1.710  12.575 -0.1281  0.3928 -0.9449
14723TIP3    H265585   4.162   1.853  12.575  0.9496  0.0855  1.2076
14724TIP3   OH265586   3.455   4.211   2.434 -0.6096 -0.3478  0.4075
14724TIP3    H165587   3.518   4.164   2.488 -1.6609 -1.6320  0.5592
14724TIP3    H265588   3.382   4.150   2.424 -2.7585  1.8171  1.9283
14725TIP3   OH265589   1.668   0.393  12.422 -0.1825  0.2939 -0.0452
14725TIP3    H165590   1.589   0.352  12.387 -0.9151  1.2738  0.4153
14725TIP3    H265591   1.647   0.486  12.426  0.5352  0.4241  1.2728
14726TIP3   OH265592   4.347   3.430  15.220 -0.0326  0.1530 -0.0178
14726TIP3    H165593   4.386   3.346  15.194 -0.4662  0.2467 -1.0523
14726TIP3    H265594   4.259   3.428  15.181 -0.7373  0.3318  1.4735
14727TIP3   OH265595   6.185   4.979   4.594 -0.2488 -0.2723 -0.2841
14727TIP3    H165596   6.229   5.047   4.645  0.0784  0.0588 -0.9886
14727TIP3    H265597   6.243   4.964   4.519 -1.2949  0.1552 -1.2251
14728TIP3   OH265598   6.226   6.535   3.597 -0.3649 -0.2088 -0.5775
14728TIP3    H165599   6.271   6.608   3.555  1.5672 -1.3153 -0.5331
14728TIP3    H265600   6.138   6.568   3.615 -0.7190  0.9415 -3.7828
14729TIP3   OH265601   0.386   4.076   1.611 -0.6483  0.4256 -0.2727
14729TIP3    H165602   0.420   3.987   1.606  3.0941  1.6465  0.0951
14729TIP3    H265603   0.387   4.107   1.520  0.5943  0.8464 -0.1400
14730TIP3   OH265604   0.354   4.381   4.470  0.2596  0.6595  0.2761
14730TIP3    H165605   0.299   4.304   4.486  0.4741  0.1584 -1.2672
14730TIP3    H265606   0.362   4.422   4.556 -1.6256  0.1466  0.7621
14731TIP3   OH265607   1.089   4.493   5.012  0.3079 -0.5888 -0.6170
14731TIP3    H165608   1.067   4.583   5.036  0.7432 -0.1219 -1.9082
14731TIP3    H265609   1.183   4.494   4.996  0.6309 -1.6662  0.9442
14732TIP3   OH265610   2.530   1.112  11.188  0.6324 -0.0325 -0.3856
14732TIP3    H165611   2.622   1.118  11.160  0.3464 -2.1877 -2.1266
14732TIP3    H265612   2.487   1.185  11.144  1.4251  0.6882  0.0208
14733TIP3   OH265613   6.522   3.513  12.487  0.2441  0.1812 -0.2592
14733TIP3    H165614   6.439   3.466  12.498  0.2535  0.1533 -0.3081
14733TIP3    H265615   6.530   3.525  12.393  0.7227 -0.6006 -0.3306
14734TIP3   OH265616   1.329   5.701   4.874  0.6365 -0.2898  0.0621
14734TIP3    H165617   1.271   5.686   4.949  0.6947  1.0502  0.4001
14734TIP3    H265618   1.368   5.615   4.856  0.8741 -0.5629  1.7700
14735TIP3   OH265619   2.822   1.151   3.743 -0.3516 -0.3525  0.1569
14735TIP3    H165620   2.730   1.131   3.764 -0.6036  0.5778 -0.0103
14735TIP3    H265621   2.852   1.074   3.695 -1.0111 -0.7214  0.3099
14736TIP3   OH265622   5.149   3.845   1.851  1.0552  0.2242 -0.0631
14736TIP3    H165623   5.138   3.889   1.936  0.5054 -0.8332  0.4258
14736TIP3    H265624   5.244   3.831   1.844  1.1010  0.2930  0.3961
14737TIP3   OH265625   5.070   5.505  12.564 -0.6979  0.0147 -0.0498
14737TIP3    H165626   5.041   5.582  12.613  1.1428 -1.1163  3.0215
14737TIP3    H265627   5.155   5.530  12.528 -0.3491 -0.3953  0.4863
14738TIP3   OH265628   2.644   1.377  15.277  0.1795 -0.3335  0.3429
14738TIP3    H165629   2.593   1.296  15.280 -0.6595  0.1252 -0.9086
14738TIP3    H265630   2.670   1.392  15.368 -1.4740 -0.8793  0.9495
14739TIP3   OH265631   1.609   3.782  15.402 -0.0643 -0.3513  0.5169
14739TIP3    H165632   1.537   3.777  15.338  0.7275  0.3141 -0.4552
14739TIP3    H265633   1.683   3.741  15.357  0.8907  1.4013  0.4290
14740TIP3   OH265634   3.917   3.935  10.806 -0.6164 -0.0508 -0.3013
14740TIP3    H165635   3.842   3.885  10.837 -2.0255  1.2630 -1.4282
14740TIP3    H265636   3.906   3.939  10.711  0.8564  0.2226 -0.4921
14741TIP3   OH265637   6.441   2.390  16.243  0.0817 -0.9339 -0.2465
14741TIP3    H165638   6.474   2.302  16.257  0.5311 -0.5684  1.2756
14741TIP3    H265639   6.506   2.431  16.185  0.0978 -1.4679 -0.6117
14742TIP3   OH265640   5.362   6.002   6.501  0.3725  0.0778  0.5311
14742TIP3    H165641   5.393   5.974   6.587  0.1642  2.6379  1.5414
14742TIP3    H265642   5.436   5.989   6.443  1.2104  0.1670  1.5470
14743TIP3   OH265643   1.002   2.450  12.961 -0.0237  0.0603 -0.3127
14743TIP3    H165644   1.010   2.535  12.919  0.6755  0.7485  1.1284
14743TIP3    H265645   0.924   2.411  12.923 -0.6065  1.5391 -0.6836
14744TIP3   OH265646   0.153   4.494  13.684  0.6702 -0.1172 -0.4852
14744TIP3    H165647   0.182   4.533  13.767  0.6381 -1.4438  0.1694
14744TIP3    H265648   0.075   4.544  13.660 -0.6109 -1.1230  1.4372
14745TIP3   OH265649   6.282   0.938   3.950  0.3631 -0.0411 -0.0674
14745TIP3    H165650   6.229   0.948   4.029 -0.2614 -1.1981 -0.3040
14745TIP3    H265651   6.229   0.978   3.881  0.2103 -0.3894 -0.1529
14746TIP3   OH265652   0.970   0.051   4.210 -0.4010  0.4144 -0.5552
14746TIP3    H165653   1.028   0.020   4.279  0.7193  1.7711 -0.8316
14746TIP3    H265654   0.946  -0.028   4.161 -1.7676 -0.6896  1.7096
14747TIP3   OH265655   5.315   0.879  14.272  0.2007 -0.5556 -0.1777
14747TIP3    H165656   5.240   0.939  14.278  0.6391 -0.1247  1.4413
14747TIP3    H265657   5.370   0.917  14.203 -0.7890 -0.5865 -1.0150
14748TIP3   OH265658   3.591   0.356   0.048 -0.2465  0.0535 -0.4034
14748TIP3    H165659   3.515   0.322   0.001  0.2684  1.0529 -2.0534
14748TIP3    H265660   3.665   0.339  -0.011  0.4720  1.1494  0.1537
14749TIP3   OH265661   2.847   5.000  14.826  0.3120  0.0622 -0.2287
14749TIP3    H165662   2.765   5.011  14.777 -0.0046  1.7763  0.5914
14749TIP3    H265663   2.824   5.021  14.916  1.3488 -0.9070  0.2789
14750TIP3   OH265664   6.443   3.904   5.273 -0.4835 -0.4176 -0.2177
14750TIP3    H165665   6.387   3.978   5.299 -0.4524  0.0387 -1.3866
14750TIP3    H265666   6.420   3.835   5.334 -0.8465  0.4176  0.6246
14751TIP3   OH265667   1.079   0.725  16.590  0.1886  0.0542  0.8454
14751TIP3    H165668   1.111   0.676  16.514 -1.2908 -3.1100  2.1025
14751TIP3    H265669   1.084   0.663  16.663 -1.8133  1.7749  2.5852
14752TIP3   OH265670   1.664   0.342  14.336 -0.4065 -0.2515 -0.0739
14752TIP3    H165671   1.757   0.345  14.357 -0.3043 -1.5239 -0.3001
14752TIP3    H265672   1.633   0.260  14.373 -0.8127 -1.2238 -2.4060
14753TIP3   OH265673   1.685   3.329   3.304 -0.0965  0.2701  0.7711
14753TIP3    H165674   1.708   3.326   3.211  0.6772 -1.6760  0.9916
14753TIP3    H265675   1.597   3.292   3.309  0.3792 -0.8509  0.9500
14754TIP3   OH265676   1.113   1.310  11.555  0.9605 -0.3514  0.3844
14754TIP3    H165677   1.195   1.262  11.563  0.8047 -0.3264  2.9412
14754TIP3    H265678   1.137   1.392  11.511  1.9633 -1.0427 -0.3918
14755TIP3   OH265679   0.113   6.474   4.866  0.1656 -0.0135 -0.1383
14755TIP3    H165680   0.105   6.489   4.960  0.7746  2.0001 -0.3614
14755TIP3    H265681   0.145   6.384   4.858  0.8940  0.0666  1.6036
14756TIP3   OH265682   1.260   3.733   1.324 -0.1673 -0.4098 -0.4193
14756TIP3    H165683   1.276   3.729   1.418 -1.7763 -2.1436 -0.1534
14756TIP3    H265684   1.257   3.827   1.305  0.1358 -0.0148  1.2707
14757TIP3   OH265685   1.446   2.130   1.964  0.2880  0.3171  0.6932
14757TIP3    H165686   1.525   2.176   1.992  1.0308 -0.0872 -0.6439
14757TIP3    H265687   1.381   2.199   1.952  0.4009  0.6432  1.9018
14758TIP3   OH265688   4.116   3.995   3.808 -0.1977  0.6731 -0.1784
14758TIP3    H165689   4.100   3.960   3.896  0.6674 -1.4926 -0.8410
14758TIP3    H265690   4.208   4.020   3.809 -0.2416  0.8460 -0.4189
14759TIP3   OH265691   1.143   3.162  11.917  0.0864  0.4801 -0.7231
14759TIP3    H165692   1.214   3.116  11.872 -0.4220 -0.2773 -0.7622
14759TIP3    H265693   1.069   3.102  11.913 -0.2525  0.8133  0.2673
14760TIP3   OH265694   1.314   3.073   0.476 -0.1563 -0.4148  0.0111
14760TIP3    H165695   1.305   2.992   0.425  2.5003 -0.8012  0.0397
14760TIP3    H265696   1.391   3.115   0.440  1.3879 -0.3102  3.1525
14761TIP3   OH265697   6.429   6.452  13.621 -0.6687 -0.9156 -0.3365
14761TIP3    H165698   6.365   6.499  13.569  0.1639  0.0766 -0.5098
14761TIP3    H265699   6.468   6.389  13.560 -0.0161 -0.0696 -0.8178
14762TIP3   OH265700   1.113   4.182  15.885  0.3161 -0.1210 -0.0989
14762TIP3    H165701   1.160   4.265  15.875 -0.1581  0.1957  0.2584
14762TIP3    H265702   1.034   4.192  15.831 -0.5132  0.2626  1.1552
14763TIP3   OH265703   6.621   2.622   5.803  0.0889  0.4416 -0.3571
14763TIP3    H165704   6.647   2.530   5.798  2.3642  0.8692  1.5844
14763TIP3    H265705   6.583   2.641   5.718  0.5832 -1.9981 -1.2074
14764TIP3   OH265706   1.874   0.755   1.914  0.0405  0.3132 -0.2075
14764TIP3    H165707   1.961   0.793   1.921 -0.7364  2.8918 -2.4202
14764TIP3    H265708   1.885   0.663   1.937  3.2299  0.6437 -0.0089
14765TIP3   OH265709   5.892   1.828   4.352  0.7608 -0.2904  0.0823
14765TIP3    H165710   5.970   1.822   4.297  2.2863 -0.6841  2.2003
14765TIP3    H265711   5.866   1.920   4.347  1.6763 -0.0379 -0.2260
14766TIP3   OH265712   2.800   5.907  11.991 -0.4489 -0.2504  0.2917
14766TIP3    H165713   2.723   5.911  11.934 -0.0870 -0.7724 -0.2440
14766TIP3    H265714   2.824   5.815  11.993 -0.3246 -0.2094  1.1255
14767TIP3   OH265715   6.092   2.142   3.105 -0.8012  0.1452  0.0414
14767TIP3    H165716   6.162   2.096   3.058 -0.7637 -0.9197  1.0832
14767TIP3    H265717   6.132   2.224   3.133  0.1623 -0.5897  0.8972
14768TIP3   OH265718   5.530   2.668  13.628  0.7002  0.0168  0.0279
14768TIP3    H165719   5.523   2.676  13.533 -0.1335 -1.3420 -0.0493
14768TIP3    H265720   5.623   2.651  13.644  1.0988  1.6093 -0.3989
14769TIP3   OH265721   3.243   3.051   4.254 -0.2112  0.3276 -0.5276
14769TIP3    H165722   3.331   3.017   4.270  0.1623  1.0640 -0.9617
14769TIP3    H265723   3.228   3.114   4.325 -0.5277 -0.0518 -0.2567
14770TIP3   OH265724   4.514   1.804  14.276 -0.4257  0.3926  0.4869
14770TIP3    H165725   4.504   1.797  14.181  0.6202  0.5850  0.3516
14770TIP3    H265726   4.555   1.722  14.303  0.7336  0.9648  0.5419
14771TIP3   OH265727   6.402   3.217   5.230 -0.6581 -1.0025  0.2385
14771TIP3    H165728   6.417   3.238   5.137 -0.7530 -0.7117  0.2886
14771TIP3    H265729   6.476   3.161   5.253  0.9554  1.1785  0.7393
14772TIP3   OH265730   2.200   4.998  14.972 -0.3084 -0.0575  0.7870
14772TIP3    H165731   2.128   4.936  14.979 -1.6675  1.2174 -0.9981
14772TIP3    H265732   2.224   4.997  14.879  0.2506  1.4214  0.8839
14773TIP3   OH265733   3.544   6.029   3.396  0.4448 -0.2873 -0.0154
14773TIP3    H165734   3.530   6.116   3.433  1.9102  0.4758 -1.1436
14773TIP3    H265735   3.487   6.026   3.319 -0.8285 -0.9800  0.9163
14774TIP3   OH265736   0.080   3.698  16.056  0.3682 -0.4695 -0.0285
14774TIP3    H165737   0.102   3.790  16.047  1.3313 -0.8279 -1.6741
14774TIP3    H265738   0.063   3.687  16.150 -1.5965  1.7313 -0.0424
14775TIP3   OH265739   4.526   6.566   0.381 -0.2256 -0.1599  0.3661
14775TIP3    H165740   4.620   6.583   0.381  0.5680 -3.7307  0.3196
14775TIP3    H265741   4.505   6.550   0.289 -0.7209 -0.1304  0.4748
14776TIP3   OH265742   4.883   0.126  16.959 -0.2647  0.1314  0.2586
14776TIP3    H165743   4.921   0.124  16.871 -0.5727  1.0854  0.0903
14776TIP3    H265744   4.881   0.219  16.982  1.0319 -0.2046  1.8270
14777TIP3   OH265745   6.755   0.365  13.536 -0.3402  0.2756 -0.5407
14777TIP3    H165746   6.800   0.417  13.602  1.2573 -0.9226 -0.6090
14777TIP3    H265747   6.683   0.322  13.583 -1.1533  1.8229 -0.3085
14778TIP3   OH265748   5.893   3.552  13.821  0.2493  0.0624 -0.5158
14778TIP3    H165749   5.936   3.620  13.770  1.1449 -1.0332 -1.2757
14778TIP3    H265750   5.872   3.483  13.758  0.6305 -0.9640  0.4350
14779TIP3   OH265751   5.997   3.445  16.304 -0.0356 -0.1153 -0.7589
14779TIP3    H165752   6.074   3.390  16.289 -0.1274 -0.1785 -1.0073
14779TIP3    H265753   6.031   3.522  16.348  0.0784 -0.4187 -0.3127
14780TIP3   OH265754   2.385   3.419  17.132 -0.1595 -0.2935 -0.0662
14780TIP3    H165755   2.367   3.340  17.183 -1.3921  0.6478  1.0374
14780TIP3    H265756   2.479   3.435  17.145  0.0853 -1.5130 -0.2391
14781TIP3   OH265757   6.186   2.874   5.660  0.1644 -0.3400 -0.4201
14781TIP3    H165758   6.222   2.892   5.573  1.0406 -1.6357 -0.3531
14781TIP3    H265759   6.211   2.950   5.712  2.6438 -1.0475 -0.4522
14782TIP3   OH265760   1.018   1.258   4.599  0.3536  0.2031  0.2302
14782TIP3    H165761   1.082   1.301   4.656  1.0068 -0.1576 -0.2304
14782TIP3    H265762   0.979   1.190   4.655 -0.2598  0.9818  0.7774
14783TIP3   OH265763   2.894   3.382  14.043  0.2201 -0.5943 -0.3026
14783TIP3    H165764   2.827   3.417  13.984  0.2563  0.3557  0.2032
14783TIP3    H265765   2.967   3.443  14.035  0.8866 -1.4042 -0.5451
14784TIP3   OH265766   3.122   1.717   5.255  0.2900 -0.1883  0.1696
14784TIP3    H165767   3.186   1.756   5.314  1.9026 -0.2968 -1.4168
14784TIP3    H265768   3.039   1.755   5.282  1.5139  3.0869 -0.1959
14785TIP3   OH265769   3.781   6.530   1.775 -0.1251 -0.1070  0.2346
14785TIP3    H165770   3.732   6.572   1.705 -1.1369 -3.1772 -1.0597
14785TIP3    H265771   3.774   6.591   1.849 -1.8301  1.7336 -1.3199
14786TIP3   OH265772   1.063   5.503   3.188 -0.0746  0.3229  0.3289
14786TIP3    H165773   1.045   5.542   3.102 -1.7826  0.4854  0.7144
14786TIP3    H265774   1.146   5.458   3.177  0.3938  1.4366 -1.0332
14787TIP3   OH265775   3.988   0.562   3.250 -0.0350  0.2198  0.0135
14787TIP3    H165776   4.028   0.587   3.167 -2.0002  2.2602 -0.4168
14787TIP3    H265777   3.986   0.642   3.302 -0.1800 -0.6828  1.4636
14788TIP3   OH265778   6.508   3.892   3.474  0.0278 -0.2105 -0.0361
14788TIP3    H165779   6.501   3.842   3.393 -0.7332  1.6736 -1.2221
14788TIP3    H265780   6.477   3.833   3.542 -2.8402 -0.7509 -1.6473
14789TIP3   OH265781   0.095   1.202  16.033  0.0629  0.2719  0.2891
14789TIP3    H165782   0.015   1.196  15.980  1.1079  0.1841 -1.3746
14789TIP3    H265783   0.164   1.169  15.975  1.3203  0.4086  1.6553
14790TIP3   OH265784   6.147   2.236   3.891 -0.2818 -0.2580  0.3951
14790TIP3    H165785   6.160   2.238   3.986  0.3712 -0.3710  0.3112
14790TIP3    H265786   6.105   2.320   3.871 -0.2538 -0.1552  0.7630
14791TIP3   OH265787   0.593   1.221   2.096  0.1998  0.0927  0.3264
14791TIP3    H165788   0.583   1.268   2.013 -1.7010  0.1223  0.5226
14791TIP3    H265789   0.536   1.145   2.087 -0.5452  0.4359  1.8445
14792TIP3   OH265790   2.366   5.167  13.727  0.0310  0.0179 -0.0687
14792TIP3    H165791   2.302   5.239  13.735 -0.3405 -0.5153  2.5091
14792TIP3    H265792   2.445   5.201  13.767  0.8876  0.0454 -1.6966
14793TIP3   OH265793   6.109   6.439  15.823  0.5163  0.4263  1.0512
14793TIP3    H165794   6.073   6.467  15.739 -1.9022 -3.0965  0.7156
14793TIP3    H265795   6.197   6.407  15.802  0.1068  0.0023 -0.0882
14794TIP3   OH265796   1.749   3.837  16.075 -0.2248 -0.1049 -0.2650
14794TIP3    H165797   1.699   3.818  16.155  1.4819 -0.0141  0.8776
14794TIP3    H265798   1.819   3.896  16.104 -0.3299  1.0000 -2.0992
14795TIP3   OH265799   6.016   3.589  11.566 -0.3521 -0.2946  0.3951
14795TIP3    H165800   5.955   3.517  11.583 -0.1584 -0.5644 -0.0536
14795TIP3    H265801   5.960   3.666  11.558 -0.4970 -0.2133  1.8091
14796TIP3   OH265802   5.552   0.551   3.112  0.2215 -0.7030  0.0952
14796TIP3    H165803   5.606   0.535   3.034  1.9313 -2.0863  1.4947
14796TIP3    H265804   5.587   0.492   3.178 -0.0962  1.5597  2.4361
14797TIP3   OH265805   1.213   3.167  11.289 -0.0033 -0.5238  0.3566
14797TIP3    H165806   1.248   3.140  11.373 -1.5719 -0.8485  0.9374
14797TIP3    H265807   1.223   3.262  11.288  0.5132 -0.5710  0.6638
14798TIP3   OH265808   1.444   6.016  12.262  0.7032  0.1400 -0.3642
14798TIP3    H165809   1.447   5.986  12.353 -1.4971 -0.6307 -0.4731
14798TIP3    H265810   1.519   5.974  12.220  1.1151 -0.3798  0.8460
14799TIP3   OH265811   6.076   3.318   3.861  0.4060  0.4478  0.8704
14799TIP3    H165812   6.127   3.397   3.843  0.0841  0.7120  1.1029
14799TIP3    H265813   5.991   3.351   3.890 -0.0577  0.0131  0.0461
14800TIP3   OH265814   1.150   1.541   5.874 -0.4472 -0.3892  0.1939
14800TIP3    H165815   1.135   1.552   5.968 -0.4939 -0.3142  0.1775
14800TIP3    H265816   1.135   1.628   5.837  1.5454  0.0806  0.3720
14801TIP3   OH265817   1.796   3.227   5.641 -0.5635 -1.0984 -0.2802
14801TIP3    H165818   1.704   3.251   5.627 -1.0192 -1.2987  1.9954
14801TIP3    H265819   1.845   3.305   5.617 -1.4107 -0.5901 -0.4126
14802TIP3   OH265820   4.909   5.773   4.107 -0.3999 -0.0251 -0.1419
14802TIP3    H165821   4.937   5.683   4.120 -0.0734  0.1359  0.2948
14802TIP3    H265822   4.956   5.802   4.029  1.9890  0.7664  1.4858
14803TIP3   OH265823   3.510   5.685   4.110 -0.0496  0.0563  0.3762
14803TIP3    H165824   3.561   5.763   4.132  1.1920 -0.5999 -0.0781
14803TIP3    H265825   3.441   5.681   4.176  1.1792  0.3342  1.7161
14804TIP3   OH265826   6.651   0.045   1.923 -0.5769  0.1501 -0.3455
14804TIP3    H165827   6.711   0.050   1.998 -1.1216 -0.5510  0.1553
14804TIP3    H265828   6.607  -0.039   1.934 -0.6758  0.0490 -1.4598
14805TIP3   OH265829   5.002   5.327  13.322 -0.1447 -0.5250 -0.2206
14805TIP3    H165830   4.934   5.365  13.378 -0.2242 -2.7535  1.3404
14805TIP3    H265831   4.953   5.286  13.250 -0.4664 -1.6382  0.5999
14806TIP3   OH265832   1.739   2.180  16.439 -0.6620 -0.1662  0.2730
14806TIP3    H165833   1.784   2.108  16.484  0.4387 -0.0329 -0.5809
14806TIP3    H265834   1.808   2.224  16.389 -1.2387  1.7694  1.1239
14807TIP3   OH265835   5.330   1.331  12.157 -0.4416  0.1365 -0.5051
14807TIP3    H165836   5.362   1.266  12.095 -0.4186 -1.2383  0.8768
14807TIP3    H265837   5.269   1.385  12.107  0.6073 -0.0564 -2.0373
14808TIP3   OH265838   4.061   0.501   1.442 -0.5364 -0.5684  0.1462
14808TIP3    H165839   4.133   0.439   1.449  1.3186  1.5169  0.7028
14808TIP3    H265840   4.050   0.535   1.531 -0.2527  1.1414 -0.4175
14809TIP3   OH265841   3.733   3.303  15.160  0.3875  0.0743  0.4038
14809TIP3    H165842   3.792   3.232  15.187  0.1264 -0.3186 -0.0593
14809TIP3    H265843   3.781   3.349  15.091  0.1113 -0.3075 -0.0441
14810TIP3   OH265844   3.737   4.423   2.960  0.0174  0.0839 -0.1388
14810TIP3    H165845   3.773   4.485   3.023 -0.2659  1.1155 -0.9745
14810TIP3    H265846   3.731   4.472   2.878 -3.1496 -0.0240 -0.0960
14811TIP3   OH265847   2.227   2.981   1.706 -0.2324 -0.9185  0.1536
14811TIP3    H165848   2.311   2.938   1.692 -1.3350 -2.3838 -2.8373
14811TIP3    H265849   2.181   2.926   1.768  0.7635 -0.3972  1.3944
14812TIP3   OH265850   0.628   4.256  12.804  0.5747  0.1086  0.2793
14812TIP3    H165851   0.618   4.255  12.708 -0.7011  2.7802  0.2868
14812TIP3    H265852   0.550   4.302  12.836  0.8988 -0.8569  2.6449
14813TIP3   OH265853   1.617   3.717   1.971  0.0189 -0.1132 -0.1050
14813TIP3    H165854   1.707   3.741   1.996 -0.1777  0.1359  0.3821
14813TIP3    H265855   1.588   3.789   1.915  0.6269 -0.9023 -1.4722
14814TIP3   OH265856   0.273   5.717  14.154  0.1305 -0.0399 -0.7031
14814TIP3    H165857   0.340   5.654  14.180 -0.4644 -1.6510 -2.7847
14814TIP3    H265858   0.312   5.767  14.083 -0.4900 -0.2327 -1.1919
14815TIP3   OH265859   1.641   5.874  15.577 -0.3288  0.5856  0.1650
14815TIP3    H165860   1.709   5.931  15.613 -0.3464  2.3428 -2.3529
14815TIP3    H265861   1.572   5.876  15.643 -0.0729  3.0724  0.4742
14816TIP3   OH265862   0.325   3.725   5.764  0.6828  0.8130  0.3310
14816TIP3    H165863   0.390   3.786   5.728  0.6416  0.1774 -0.8803
14816TIP3    H265864   0.368   3.686   5.840  1.4564  0.9289 -0.0369
14817TIP3   OH265865   0.134   0.869   2.812  0.0844  0.1611  0.1747
14817TIP3    H165866   0.186   0.903   2.739 -0.2595 -0.0919 -0.1912
14817TIP3    H265867   0.191   0.804   2.854  0.3397  0.4160  0.2219
14818TIP3   OH265868   5.364   4.238   4.300  0.1772 -0.5711  0.3742
14818TIP3    H165869   5.315   4.183   4.239 -1.1086  0.6452  0.2767
14818TIP3    H265870   5.328   4.218   4.386 -1.5897  1.3672  0.1535
14819TIP3   OH265871   2.138   3.853   4.204 -0.1038 -0.3815  0.0736
14819TIP3    H165872   2.139   3.759   4.222  0.3490 -0.2723  0.6431
14819TIP3    H265873   2.124   3.859   4.110 -0.9398 -1.0021  0.1478
14820TIP3   OH265874   1.604   6.246   1.398 -0.0562 -0.4104  0.2759
14820TIP3    H165875   1.533   6.301   1.430 -0.2025 -1.0383  1.0667
14820TIP3    H265876   1.612   6.176   1.463  0.7445 -0.8043 -0.2208
14821TIP3   OH265877   2.276   0.290   2.633 -0.0540 -0.6525  0.8008
14821TIP3    H165878   2.328   0.265   2.556  0.9420 -0.7334  1.4916
14821TIP3    H265879   2.192   0.319   2.596  0.5042 -0.4249 -0.3349
14822TIP3   OH265880   1.147   0.293   5.031  0.1570  0.1982  0.2409
14822TIP3    H165881   1.121   0.255   5.115 -0.5594  1.8588  0.8055
14822TIP3    H265882   1.071   0.283   4.975 -0.1692  1.0613  0.5056
14823TIP3   OH265883   5.050   1.115  14.755 -0.0369 -0.3195 -0.4156
14823TIP3    H165884   5.003   1.175  14.814 -0.0764 -0.9790  0.2325
14823TIP3    H265885   5.073   1.169  14.680  0.0040  0.5354  0.2002
14824TIP3   OH265886   6.015   3.912   6.598  0.1150  1.4273 -0.0593
14824TIP3    H165887   6.035   3.885   6.688 -1.8435 -1.5179 -0.3895
14824TIP3    H265888   6.100   3.920   6.556  0.9794  0.3112  1.3948
14825TIP3   OH265889   5.663   1.001   5.059  0.8414  0.4067 -0.0632
14825TIP3    H165890   5.608   1.062   5.108  0.4221  0.2375 -0.3209
14825TIP3    H265891   5.615   0.984   4.978  2.9593  3.2341 -2.1128
14826TIP3   OH265892   3.873   2.571   0.049 -0.5887  0.3275 -0.7736
14826TIP3    H165893   3.914   2.553   0.134 -0.3132 -0.4486 -1.0555
14826TIP3    H265894   3.931   2.529  -0.015 -1.7952 -0.7786 -1.1843
14827TIP3   OH265895   6.419   5.455  16.522 -0.3126  0.3728 -0.1566
14827TIP3    H165896   6.365   5.430  16.447 -0.8362 -0.9814  0.6442
14827TIP3    H265897   6.506   5.470  16.485 -0.5861 -0.1774 -1.0437
14828TIP3   OH265898   0.490   3.614  15.827  0.4231  0.3631 -0.1311
14828TIP3    H165899   0.400   3.615  15.860 -0.0061 -1.0713 -1.1291
14828TIP3    H265900   0.544   3.613  15.906 -0.5286 -1.4833  0.5619
14829TIP3   OH265901   3.357   3.026   1.430  0.2920 -0.5179 -0.1420
14829TIP3    H165902   3.368   3.110   1.385 -2.6031  1.3219  2.2151
14829TIP3    H265903   3.435   3.018   1.486  1.0229  0.1208 -1.0473
14830TIP3   OH265904   1.975   0.583  11.981 -0.0603  0.4330  1.0427
14830TIP3    H165905   2.018   0.502  12.010 -0.4589  0.8514  2.9437
14830TIP3    H265906   1.952   0.566  11.890  2.1024 -0.6418  0.6340
14831TIP3   OH265907   2.760   0.733  14.502  0.0748  0.2561  0.1270
14831TIP3    H165908   2.743   0.827  14.513  1.0752  0.3888  0.6815
14831TIP3    H265909   2.763   0.720  14.407  1.1603  1.0291  0.0447
14832TIP3   OH265910   2.982   5.438   0.144 -0.5009  0.0391 -0.2919
14832TIP3    H165911   2.976   5.438   0.048 -1.0131 -0.9544 -0.2695
14832TIP3    H265912   2.906   5.489   0.172  0.3822  1.4814 -0.4312
14833TIP3   OH265913   4.259   1.182   1.992 -0.5431  0.4077 -0.0039
14833TIP3    H165914   4.303   1.194   2.076 -1.9797  3.5941  0.4484
14833TIP3    H265915   4.329   1.190   1.927  0.6082 -2.2606  0.7851
14834TIP3   OH265916   4.606   3.790   3.469 -0.1735 -0.2688  0.1446
14834TIP3    H165917   4.591   3.732   3.544 -0.5171  0.0794  0.3453
14834TIP3    H265918   4.701   3.797   3.463 -0.1440  0.6891  1.3157
14835TIP3   OH265919   1.415   6.319   0.704  0.3951 -0.2113 -0.2365
14835TIP3    H165920   1.381   6.247   0.650 -3.3462  0.4439  0.9383
14835TIP3    H265921   1.421   6.283   0.792 -1.7093  0.8391  0.4024
14836TIP3   OH265922   4.372   4.343  16.041 -0.2258  0.5067  0.1762
14836TIP3    H165923   4.457   4.332  15.999 -0.6102 -0.2236 -0.4508
14836TIP3    H265924   4.377   4.289  16.120 -0.8600 -1.4237 -1.0346
14837TIP3   OH265925   2.961   5.911   1.317 -0.2828 -0.6822 -0.5191
14837TIP3    H165926   2.925   5.975   1.255  1.1216 -1.3998 -2.1916
14837TIP3    H265927   3.056   5.918   1.305 -0.0701 -2.5075 -0.1790
14838TIP3   OH265928   0.465   3.417  15.644  0.1198  0.4289  0.1199
14838TIP3    H165929   0.535   3.354  15.658  1.6508  1.6588 -1.5733
14838TIP3    H265930   0.478   3.483  15.712  1.2760  1.1648 -0.7751
14839TIP3   OH265931   5.082   0.585   2.218  0.7294  0.5271 -0.2523
14839TIP3    H165932   5.140   0.660   2.218  1.7200 -0.2127 -0.6532
14839TIP3    H265933   4.995   0.621   2.237  1.7484  1.2773  4.0732
14840TIP3   OH265934   0.780   3.499   0.969  0.1138  0.0219  0.3000
14840TIP3    H165935   0.713   3.531   1.028  1.0308  0.2927  1.2349
14840TIP3    H265936   0.786   3.405   0.988 -1.9708 -0.6457 -1.8322
14841TIP3   OH265937   3.783   4.317  12.312  0.8261  0.0526 -0.6536
14841TIP3    H165938   3.733   4.248  12.356 -0.6133  0.0742 -2.1953
14841TIP3    H265939   3.847   4.269  12.259  1.1866 -0.0211 -0.1630
14842TIP3   OH265940   4.172   6.714  10.961 -0.4217  0.0554  0.0547
14842TIP3    H165941   4.129   6.722  11.047  0.4680 -2.0027  0.7571
14842TIP3    H265942   4.179   6.619  10.947 -1.2199  0.3302 -2.6739
14843TIP3   OH265943   2.764   3.608  15.646  0.2720 -0.0367  0.2070
14843TIP3    H165944   2.844   3.556  15.639  0.4505  0.1715  0.6953
14843TIP3    H265945   2.782   3.687  15.595  0.8942  0.6372  1.4345
14844TIP3   OH265946   0.175   2.067  13.493  0.5978 -0.0218  0.4014
14844TIP3    H165947   0.126   2.008  13.550 -1.7284  2.1641  0.8571
14844TIP3    H265948   0.156   2.037  13.404  1.0220 -1.0903  0.6628
14845TIP3   OH265949   3.705   3.925  12.500  0.2985 -0.0724 -0.8305
14845TIP3    H165950   3.708   3.829  12.495 -1.5059 -0.3170  1.1432
14845TIP3    H265951   3.790   3.950  12.534  0.9380 -0.9123 -1.7321
14846TIP3   OH265952   2.599   0.456   5.954 -0.4259 -0.0781  0.0251
14846TIP3    H165953   2.546   0.377   5.965 -0.9247  0.2284 -0.1495
14846TIP3    H265954   2.535   0.527   5.948  0.0455  0.4796  1.2591
14847TIP3   OH265955   6.452   1.234   5.042  0.9351  0.4853 -0.7360
14847TIP3    H165956   6.502   1.166   4.997  1.3732 -0.6322  1.3364
14847TIP3    H265957   6.515   1.305   5.056  1.6969 -0.4697  0.8882
14848TIP3   OH265958   2.731   5.595  16.785 -0.0736 -0.4767  0.0741
14848TIP3    H165959   2.687   5.673  16.752 -2.9360 -1.2236  1.8032
14848TIP3    H265960   2.786   5.627  16.857  0.3972  0.1548 -0.5445
14849TIP3   OH265961   3.005   1.224   3.927  0.1018 -0.2643 -0.0229
14849TIP3    H165962   2.981   1.166   3.999  0.0922 -1.5159 -0.9975
14849TIP3    H265963   2.940   1.207   3.859 -0.0326  1.0677 -0.2604
14850TIP3   OH265964   1.163   5.492   6.177 -0.2602  0.2825 -0.4465
14850TIP3    H165965   1.246   5.540   6.178 -0.6174  0.9925  2.0782
14850TIP3    H265966   1.098   5.556   6.208 -1.2166 -1.0967  0.5099
14851TIP3   OH265967   4.241   1.652   1.472 -0.8056 -0.7279 -0.0894
14851TIP3    H165968   4.240   1.565   1.432 -1.0551 -0.7799  0.0320
14851TIP3    H265969   4.162   1.694   1.438  0.3873  0.2165 -1.8597
14852TIP3   OH265970   1.525   1.379   1.917 -0.0337  0.0649  0.7292
14852TIP3    H165971   1.516   1.473   1.933  0.9413 -0.1580  3.0893
14852TIP3    H265972   1.460   1.338   1.974  0.4426 -0.7231  0.7259
14853TIP3   OH265973   5.150   6.480   5.544  0.0274  0.4380 -0.3413
14853TIP3    H165974   5.126   6.519   5.628 -0.8585 -0.8139  0.0063
14853TIP3    H265975   5.237   6.517   5.525  0.5800  0.1881  1.4799
14854TIP3   OH265976   0.445   3.586   1.796 -0.2809 -0.0995  0.5035
14854TIP3    H165977   0.476   3.645   1.727 -0.6096  1.1270  1.3737
14854TIP3    H265978   0.350   3.586   1.787 -0.4334  1.0499  1.6703
14855TIP3   OH265979   0.541   1.608  16.960  0.2318  0.0331 -0.4766
14855TIP3    H165980   0.513   1.659  16.884  0.6903 -1.3520 -1.6332
14855TIP3    H265981   0.566   1.523  16.923  0.8392 -0.5476  1.1898
14856TIP3   OH265982   3.306   5.717   5.438  0.0152  0.5111 -0.1213
14856TIP3    H165983   3.334   5.771   5.364  1.7757  0.7148  0.6458
14856TIP3    H265984   3.238   5.769   5.481 -0.0243  1.0203 -0.7700
14857TIP3   OH265985   4.534   4.527   1.991 -0.3734  0.2303 -0.0472
14857TIP3    H165986   4.492   4.609   1.967 -0.0011  0.5354  0.3414
14857TIP3    H265987   4.588   4.548   2.067 -1.0506 -0.5856  0.6843
14858TIP3   OH265988   6.745   3.113  13.318 -0.4816  0.0338 -0.3111
14858TIP3    H165989   6.772   3.190  13.268 -0.7652 -0.5106 -1.3543
14858TIP3    H265990   6.711   3.053  13.251  1.3573 -1.7187  0.2190
14859TIP3   OH265991   5.834   1.215   4.782  0.4029  0.2708  0.1565
14859TIP3    H165992   5.907   1.256   4.735  0.6757 -0.8787 -0.4351
14859TIP3    H265993   5.844   1.247   4.872  0.1450  2.1283 -0.4216
14860TIP3   OH265994   3.742   1.492   1.776  0.8662 -1.0431  0.1743
14860TIP3    H165995   3.816   1.553   1.778  0.6237 -0.7584  0.3971
14860TIP3    H265996   3.752   1.440   1.856 -0.6033  0.6843  1.5417
14861TIP3   OH265997   3.516   2.095   2.239  0.2701  0.2222  0.6788
14861TIP3    H165998   3.445   2.072   2.300  1.9027 -0.5688  2.3932
14861TIP3    H265999   3.481   2.073   2.153 -2.0228  1.0608  1.3074
14862TIP3   OH266000   5.124   5.935  11.968  0.3393 -0.0200 -0.4175
14862TIP3    H166001   5.192   5.877  12.000  0.3586  0.6153  0.7538
14862TIP3    H266002   5.129   6.012  12.025 -1.9526 -0.3483  0.3285
14863TIP3   OH266003   2.591   1.169   1.804 -0.5601 -0.1495  0.3824
14863TIP3    H166004   2.656   1.215   1.857 -0.6335 -0.7049  0.9822
14863TIP3    H266005   2.525   1.234   1.784  0.3873  0.5466 -0.6244
14864TIP3   OH266006   5.614   1.839   5.030 -0.1618  0.1177  0.2571
14864TIP3    H166007   5.584   1.794   5.109 -1.4412 -0.2526 -0.4256
14864TIP3    H266008   5.593   1.931   5.046  0.1812  0.1394  0.6101
14865TIP3   OH266009   2.325   0.602   5.242 -0.1828 -0.4558  0.0217
14865TIP3    H166010   2.300   0.511   5.226 -0.3571 -0.2005 -1.2074
14865TIP3    H266011   2.310   0.614   5.336 -1.4790 -1.2980 -0.0430
14866TIP3   OH266012   3.419   5.174   5.709  0.1301 -0.3993 -0.1050
14866TIP3    H166013   3.360   5.249   5.699  2.9854  2.3017  1.4494
14866TIP3    H266014   3.402   5.142   5.797 -0.3845 -0.9423 -0.3977
14867TIP3   OH266015   6.493   2.358  13.990 -0.4797 -0.0580  0.0806
14867TIP3    H166016   6.582   2.386  14.014 -0.6996  0.9184 -0.1764
14867TIP3    H266017   6.437   2.404  14.053 -0.7170 -2.2914  1.6170
14868TIP3   OH266018   3.559   1.028  16.939  0.4882 -0.2274  0.2956
14868TIP3    H166019   3.517   1.110  16.964  2.4154  0.6820  0.7328
14868TIP3    H266020   3.572   0.982  17.023  2.9066  0.8119  0.5571
14869TIP3   OH266021   2.197   0.092  13.148  0.1244  0.5593 -0.4304
14869TIP3    H166022   2.267   0.029  13.164  1.2081  1.9110  0.3745
14869TIP3    H266023   2.153   0.102  13.232  1.2618  2.3477  0.0007
14870TIP3   OH266024   3.991   0.769   3.923 -0.5510 -0.3304 -0.1808
14870TIP3    H166025   4.006   0.859   3.893 -2.4096  0.0460 -0.0518
14870TIP3    H266026   4.042   0.762   4.003 -1.1885  0.9551  0.3669
14871TIP3   OH266027   4.917   4.280   2.146  0.5016 -0.1028  0.3956
14871TIP3    H166028   4.836   4.251   2.189 -0.3518  2.9565  1.1304
14871TIP3    H266029   4.977   4.298   2.219  0.7458  0.5660  0.0372
14872TIP3   OH266030   4.028   2.245  11.747 -0.0685 -0.1812 -0.2846
14872TIP3    H166031   4.123   2.246  11.737  0.0542 -0.1184  0.7786
14872TIP3    H266032   4.011   2.299  11.825 -0.9754 -0.1553 -0.4842
14873TIP3   OH266033   3.555   0.115  13.293  0.1509 -0.1178  0.1439
14873TIP3    H166034   3.532   0.128  13.201 -1.5970 -1.9630  0.2462
14873TIP3    H266035   3.590   0.199  13.321  0.5738  0.5449 -2.1457
14874TIP3   OH266036   5.905   3.118   4.882  0.2352  0.4055 -0.2114
14874TIP3    H166037   5.944   3.031   4.890  0.5463  0.5326 -0.3309
14874TIP3    H266038   5.974   3.172   4.843 -0.6663  0.1831 -2.2421
14875TIP3   OH266039   0.856   0.976   3.057  0.5660 -0.8846  0.3921
14875TIP3    H166040   0.865   1.047   2.993  1.6264 -1.5019 -0.1597
14875TIP3    H266041   0.893   1.011   3.138  0.5627 -0.6140  0.2762
14876TIP3   OH266042   4.774   0.011   1.366 -0.8498  0.4240  0.2642
14876TIP3    H166043   4.720  -0.053   1.412 -1.5214  1.1329  0.4812
14876TIP3    H266044   4.852   0.020   1.420 -0.9257  0.0872  0.4338
14877TIP3   OH266045   2.317   3.976  15.825 -0.4947  0.4409  0.0616
14877TIP3    H166046   2.246   4.041  15.817 -0.4840  0.5507  0.7626
14877TIP3    H266047   2.272   3.891  15.823 -0.5205  0.4676 -0.7394
14878TIP3   OH266048   3.132   0.236  14.376  0.4350  0.2540 -0.0311
14878TIP3    H166049   3.112   0.275  14.290 -0.0507 -0.7933 -0.4067
14878TIP3    H266050   3.047   0.208  14.410  0.7716 -0.4651  0.2361
14879TIP3   OH266051   0.528   4.920   1.063 -0.5755  0.0721 -0.6276
14879TIP3    H166052   0.473   4.894   0.990 -2.2038 -0.2323  0.6562
14879TIP3    H266053   0.470   4.920   1.139  1.0274  0.4642  0.6707
14880TIP3   OH266054   4.410   0.551  14.675 -0.0142 -0.3854  0.4459
14880TIP3    H166055   4.475   0.604  14.720 -0.5463 -0.9124  1.8943
14880TIP3    H266056   4.459   0.476  14.642  0.0370 -1.2350  2.2978
14881TIP3   OH266057   1.196   5.329  14.241 -0.2124  0.6618 -0.9344
14881TIP3    H166058   1.263   5.370  14.296 -0.1690  1.3430 -1.4749
14881TIP3    H266059   1.194   5.238  14.269  0.5599  0.7592 -0.5405
14882TIP3   OH266060   5.216   6.121   3.512 -0.5473 -0.0855  0.4074
14882TIP3    H166061   5.166   6.183   3.459 -1.3391 -0.1322  1.0738
14882TIP3    H266062   5.307   6.138   3.490 -0.8833 -1.2488 -2.2296
14883TIP3   OH266063   0.935   3.780   1.306 -0.4597  0.3600  0.0792
14883TIP3    H166064   1.026   3.766   1.332  0.3884  0.9254 -2.3327
14883TIP3    H266065   0.891   3.808   1.386  0.9982 -1.8192  1.7601
14884TIP3   OH266066   3.528   3.032   4.832  0.4836  0.2862  0.3704
14884TIP3    H166067   3.554   3.014   4.922  1.0602 -0.6220  0.0307
14884TIP3    H266068   3.586   2.979   4.778 -1.3377 -0.9711 -0.4506
14885TIP3   OH266069   4.551   3.068   1.092 -0.0715 -0.0727 -0.1821
14885TIP3    H166070   4.530   3.122   1.016  1.3401  2.3905  1.0612
14885TIP3    H266071   4.572   2.982   1.055  0.1426  0.9025 -2.5305
14886TIP3   OH266072   0.401   5.207  15.652 -0.3688  0.1093  0.4727
14886TIP3    H166073   0.377   5.199  15.560 -0.8566  1.1227  0.4979
14886TIP3    H266074   0.451   5.128  15.671 -0.8668 -0.4516 -0.4721
14887TIP3   OH266075   5.707   2.829  13.251  0.2946  0.0902  0.4975
14887TIP3    H166076   5.654   2.827  13.172  2.0126  2.3023 -0.8468
14887TIP3    H266077   5.668   2.898  13.305  0.2497 -0.1034  0.7139
14888TIP3   OH266078   2.660   5.522   6.717 -0.0187 -0.3840 -0.4639
14888TIP3    H166079   2.606   5.601   6.714 -2.7601 -1.9131  2.4844
14888TIP3    H266080   2.722   5.539   6.788  1.2492  0.0829 -1.6405
14889TIP3   OH266081   1.285   1.532  16.828 -0.0941  0.9951 -0.2721
14889TIP3    H166082   1.222   1.466  16.856  1.5184 -0.5462 -0.1271
14889TIP3    H266083   1.349   1.537  16.900  1.9861 -0.2427 -1.8994
14890TIP3   OH266084   5.078   2.757   4.522  0.3343 -0.7965  0.3798
14890TIP3    H166085   5.121   2.685   4.476  0.3521 -0.4870 -0.0927
14890TIP3    H266086   5.137   2.778   4.595  0.3746 -1.1936  0.4609
14891TIP3   OH266087   1.405   5.515   1.694  0.3971 -0.1878  0.2749
14891TIP3    H166088   1.363   5.433   1.667 -0.5764  0.3242  0.2126
14891TIP3    H266089   1.438   5.497   1.782 -2.4335  0.2358  1.5282
14892TIP3   OH266090   3.292   5.152   3.139  0.0662  0.2408 -0.1028
14892TIP3    H166091   3.222   5.217   3.144 -0.7980 -0.7230  0.8380
14892TIP3    H266092   3.358   5.192   3.082  0.1718  2.4837  1.4513
14893TIP3   OH266093   5.819   1.655  15.793  0.3462  0.6253  0.0134
14893TIP3    H166094   5.737   1.611  15.814  1.8043 -1.2418  2.2055
14893TIP3    H266095   5.823   1.729  15.853  0.0525  1.0343 -0.4612
14894TIP3   OH266096   1.824   3.789   4.850  0.3252 -0.4696 -0.3288
14894TIP3    H166097   1.890   3.819   4.913  0.4422 -0.4094 -0.4820
14894TIP3    H266098   1.821   3.857   4.783  0.7113 -0.8775 -0.7663
14895TIP3   OH266099   2.901   1.500  17.054  0.0246 -0.4057 -0.0831
14895TIP3    H166100   2.933   1.568  17.114 -0.8183 -0.0144 -0.0678
14895TIP3    H266101   2.976   1.481  16.998  0.4377  0.1392  0.2710
14896TIP3   OH266102   4.014   4.074  15.921  0.5594  0.1471  0.0404
14896TIP3    H166103   4.014   4.103  16.012  0.5864 -0.8188  0.3586
14896TIP3    H266104   3.930   4.103  15.886  0.4206  0.2536  0.4629
14897TIP3   OH266105   2.763   3.361   1.262  0.2493 -0.1734  0.0644
14897TIP3    H166106   2.754   3.314   1.180  0.8195  0.6064 -0.4611
14897TIP3    H266107   2.754   3.453   1.238  3.6634  0.3616  0.2914
14898TIP3   OH266108   6.652   6.585  14.236  0.2044 -0.0762  0.3920
14898TIP3    H166109   6.659   6.492  14.211 -0.6285 -0.2916  0.9176
14898TIP3    H266110   6.610   6.583  14.322  0.8527  0.7645  0.7338
14899TIP3   OH266111   2.071   3.492   0.222 -0.5071  0.2190  0.5410
14899TIP3    H166112   2.004   3.560   0.216 -1.5797 -0.6176  2.1529
14899TIP3    H266113   2.147   3.537   0.259 -0.9326  0.7137  0.8282
14900TIP3   OH266114   0.045   5.948   5.171 -0.0402 -0.0273  0.1292
14900TIP3    H166115   0.077   6.036   5.151  0.8083 -0.6894 -1.6236
14900TIP3    H266116   0.085   5.927   5.255 -0.1672  1.2001  0.5269
14901TIP3   OH266117   5.924   5.340   2.551  0.4251 -0.4453  0.0814
14901TIP3    H166118   5.886   5.298   2.474 -0.6608  1.7009 -0.6609
14901TIP3    H266119   5.892   5.289   2.625 -2.8748  0.3489 -0.6019
14902TIP3   OH266120   3.611   2.566   4.294 -0.6764  0.0122  0.3510
14902TIP3    H166121   3.678   2.517   4.343 -0.1827  0.3127 -0.0119
14902TIP3    H266122   3.579   2.504   4.229 -1.3878 -0.4127  1.0908
14903TIP3   OH266123   4.037   4.413   1.616  0.0494  0.1782  0.1249
14903TIP3    H166124   3.941   4.415   1.617 -0.0309 -1.3864 -1.4823
14903TIP3    H266125   4.060   4.342   1.557  2.2277  0.4677  0.5298
14904TIP3   OH266126   1.590   1.755   6.217  0.2329  0.1604 -0.1071
14904TIP3    H166127   1.502   1.761   6.179 -0.5786  0.0857  1.6470
14904TIP3    H266128   1.586   1.677   6.273  1.5849 -0.1197 -0.3627
14905TIP3   OH266129   5.063   4.033   3.853 -0.4353 -0.6496 -0.0287
14905TIP3    H166130   5.109   3.949   3.862 -0.6401 -0.6085  1.8074
14905TIP3    H266131   5.078   4.059   3.762  0.4587 -2.1931 -0.3602
14906TIP3   OH266132   2.828   6.706  13.356  0.4078  0.2444 -0.0360
14906TIP3    H166133   2.821   6.726  13.262 -1.3625  0.8456  0.1915
14906TIP3    H266134   2.921   6.687  13.369  0.8362  0.9486 -1.7510
14907TIP3   OH266135   2.323   3.365   3.135  0.0895 -0.2726 -0.5178
14907TIP3    H166136   2.287   3.289   3.181 -1.5951  0.8605  0.1601
14907TIP3    H266137   2.375   3.410   3.202  1.1872 -0.8459 -0.9516
14908TIP3   OH266138   1.529   1.367   2.987 -0.5554 -0.2097 -0.3541
14908TIP3    H166139   1.589   1.300   2.955  0.8095  1.3279 -1.1721
14908TIP3    H266140   1.553   1.446   2.937 -3.6912  0.3375 -1.1980
14909TIP3   OH266141   6.359   0.875   3.667  0.0547  0.0388 -0.4337
14909TIP3    H166142   6.373   0.949   3.727  2.9964  1.6060 -2.8120
14909TIP3    H266143   6.270   0.846   3.687 -1.1377  3.9211  0.9852
14910TIP3   OH266144   4.482   3.379  16.400  0.2201  0.2545  0.0184
14910TIP3    H166145   4.431   3.417  16.472  1.3580  2.3370 -0.2023
14910TIP3    H266146   4.570   3.413  16.413  0.7572 -0.4652 -1.5872
14911TIP3   OH266147   5.787   3.659   2.986 -0.0683 -0.5500 -0.3569
14911TIP3    H166148   5.854   3.685   3.049  0.5484  0.0424 -1.2388
14911TIP3    H266149   5.757   3.573   3.018  2.6732 -1.9013 -1.1036
14912TIP3   OH266150   2.992   2.120  16.049  0.0158 -0.0251 -0.1106
14912TIP3    H166151   3.041   2.158  15.976  1.2914  0.6519  1.0427
14912TIP3    H266152   2.968   2.194  16.104  0.3498 -0.6384  0.9024
14913TIP3   OH266153   1.484   1.822  17.297  0.2268  0.3066  0.0477
14913TIP3    H166154   1.468   1.736  17.337  0.3344  0.0005 -0.5565
14913TIP3    H266155   1.453   1.885  17.362  0.2715 -0.1868  0.5531
14914TIP3   OH266156   5.129   6.256   2.139 -0.2923  0.1940 -0.5174
14914TIP3    H166157   5.086   6.188   2.190  0.0832  0.5775  0.3378
14914TIP3    H266158   5.131   6.332   2.197  0.7728  0.4378 -0.8427
14915TIP3   OH266159   2.250   6.008   3.402  0.1967  1.0335  0.3987
14915TIP3    H166160   2.204   5.994   3.484 -0.0784 -0.4095  0.0253
14915TIP3    H266161   2.239   6.101   3.383  1.3817  1.6966  2.6464
14916TIP3   OH266162   0.153   5.469  15.168 -0.1153 -0.1468  0.4261
14916TIP3    H166163   0.078   5.411  15.183  0.4366 -0.5830  1.6299
14916TIP3    H266164   0.159   5.520  15.249  0.6408  0.1693  0.1735
14917TIP3   OH266165   4.554   3.503  15.821 -0.3613 -0.0803 -0.3963
14917TIP3    H166166   4.632   3.479  15.872 -0.4779  0.6842  0.1675
14917TIP3    H266167   4.580   3.490  15.730  0.5482  0.4756 -0.2286
14918TIP3   OH266168   0.975   1.763   2.340 -0.1549 -0.2952  0.3201
14918TIP3    H166169   1.027   1.765   2.259 -0.3739  2.0689  0.1752
14918TIP3    H266170   0.933   1.848   2.344 -0.9837 -0.7332  2.4307
14919TIP3   OH266171   5.594   2.096   5.929  0.8619 -0.6195 -0.0088
14919TIP3    H166172   5.665   2.135   5.878  0.0620  0.0755 -0.6257
14919TIP3    H266173   5.613   2.122   6.019  0.9957  0.1793 -0.2595
14920TIP3   OH266174   0.335   3.711  10.825  0.2492  0.0591  0.4073
14920TIP3    H166175   0.314   3.622  10.852 -0.0937 -0.6153 -1.8770
14920TIP3    H266176   0.302   3.718  10.736  0.4225  2.4411  0.4482
14921TIP3   OH266177   6.049   0.542  12.032 -0.6443  0.2717  0.1964
14921TIP3    H166178   6.089   0.508  12.112  0.4717 -0.2306 -0.5606
14921TIP3    H266179   6.016   0.629  12.058 -0.0045  0.2628  1.1148
14922TIP3   OH266180   6.326   6.294   3.485  0.8127 -0.2694  0.4879
14922TIP3    H166181   6.244   6.246   3.498  0.5564  0.1223  0.3350
14922TIP3    H266182   6.316   6.373   3.538  1.6985 -0.9152  1.6695
14923TIP3   OH266183   3.708   1.134  14.247  0.2997 -0.5717 -0.5911
14923TIP3    H166184   3.636   1.073  14.231  0.1915 -0.3103 -1.1322
14923TIP3    H266185   3.755   1.138  14.163  0.6678 -0.3827 -0.3787
14924TIP3   OH266186   6.705   3.985   2.628  0.0974 -0.2940 -0.0733
14924TIP3    H166187   6.630   4.026   2.586 -0.2229 -1.6715 -0.9100
14924TIP3    H266188   6.750   3.939   2.557  1.9582  0.7784  0.3294
14925TIP3   OH266189   6.490   1.075   1.559 -0.5414 -0.1754  0.1353
14925TIP3    H166190   6.584   1.095   1.559 -0.1930 -1.6789  0.1777
14925TIP3    H266191   6.448   1.158   1.582  0.7260  0.6988 -0.5767
14926TIP3   OH266192   0.668   2.617   0.679  0.1839  0.2617  0.2617
14926TIP3    H166193   0.755   2.579   0.693  1.1429  1.3128 -2.1442
14926TIP3    H266194   0.686   2.707   0.651 -1.5367  0.0167 -1.9149
14927TIP3   OH266195   4.249   0.223   1.930  0.7477 -0.1101  0.0832
14927TIP3    H166196   4.256   0.128   1.924  0.4795 -0.0544 -2.1977
14927TIP3    H266197   4.169   0.244   1.881 -0.9393  1.1221  3.0908
14928TIP3   OH266198   1.796   5.708  16.621  0.4976  0.7507  0.4911
14928TIP3    H166199   1.800   5.803  16.623 -0.0996  0.7699  1.2018
14928TIP3    H266200   1.703   5.687  16.632 -0.1443  0.1410 -4.0491
14929TIP3   OH266201   2.452   3.485   4.784 -0.0014 -0.0758  0.1118
14929TIP3    H166202   2.361   3.514   4.777  0.3752  1.0701 -0.1981
14929TIP3    H266203   2.445   3.390   4.796 -1.1857 -0.3036 -1.8677
14930TIP3   OH266204   5.015   2.666   2.287  0.4149 -0.0204  0.1130
14930TIP3    H166205   5.007   2.591   2.346 -0.4605 -0.0788 -0.0697
14930TIP3    H266206   5.004   2.743   2.343  4.5684  0.2112  0.9421
14931TIP3   OH266207   4.200   1.960  12.434 -0.0922  0.5504 -0.0063
14931TIP3    H166208   4.241   1.915  12.361 -0.2335 -0.3344  0.4428
14931TIP3    H266209   4.264   2.027  12.460  0.8275 -0.4197  0.3144
14932TIP3   OH266210   0.817   2.018  12.721 -0.2442  0.1089  0.3231
14932TIP3    H166211   0.770   1.966  12.786 -2.6350 -0.5671 -1.7683
14932TIP3    H266212   0.872   1.955  12.675  0.5122  0.3718  0.8325
14933TIP3   OH266213   4.479   4.499  13.452  0.5215 -0.2411 -0.1184
14933TIP3    H166214   4.554   4.446  13.423  0.8684 -0.4024  0.9915
14933TIP3    H266215   4.408   4.473  13.394  0.5774 -2.2336  0.6009
14934TIP3   OH266216   2.175   6.220   5.838  0.0016 -0.2427 -0.3712
14934TIP3    H166217   2.256   6.217   5.787  0.0815  0.1707 -0.2755
14934TIP3    H266218   2.117   6.158   5.794  0.0804  0.0785 -0.9503
14935TIP3   OH266219   5.149   4.149  14.533  0.5395 -0.0585  0.2241
14935TIP3    H166220   5.139   4.191  14.448  1.9629 -0.7359 -0.3135
14935TIP3    H266221   5.153   4.221  14.596 -2.2063  0.4195 -0.0198
14936TIP3   OH266222   5.553   1.342   0.114  0.2992 -0.2992  0.3608
14936TIP3    H166223   5.495   1.402   0.161  1.1241  0.5397  0.3408
14936TIP3    H266224   5.509   1.257   0.119 -0.7135  0.2268  0.7112
14937TIP3   OH266225   3.492   1.523   3.431 -0.4047  0.1112 -0.2373
14937TIP3    H166226   3.511   1.461   3.502  1.1196  0.4744 -0.3027
14937TIP3    H266227   3.554   1.500   3.362 -0.4395  1.1212 -0.6240
14938TIP3   OH266228   5.219   6.115  13.278  0.1088  0.2928 -0.7826
14938TIP3    H166229   5.295   6.133  13.223  1.2570  0.5476  0.7986
14938TIP3    H266230   5.210   6.019  13.276 -0.3108  0.3429 -1.9384
14939TIP3   OH266231   4.533   4.525   0.962 -0.3347  0.4449 -0.5697
14939TIP3    H166232   4.563   4.550   1.050 -1.0102 -0.1696 -0.1548
14939TIP3    H266233   4.602   4.466   0.931  1.1022  2.4532 -1.4261
14940TIP3   OH266234   1.360   1.426   2.564 -0.1492 -0.2723  0.1763
14940TIP3    H166235   1.331   1.409   2.475 -0.0089 -0.4812  0.1719
14940TIP3    H266236   1.455   1.420   2.561 -0.2212 -2.3129  0.7550
14941TIP3   OH266237   2.675   3.601   1.468 -0.0579 -0.0091  0.3617
14941TIP3    H166238   2.651   3.644   1.549  0.8301  1.2158 -0.0080
14941TIP3    H266239   2.664   3.667   1.400  1.3067 -0.3416 -0.2252
14942TIP3   OH266240   3.097   4.707  17.064  0.2533 -0.5519 -0.7336
14942TIP3    H166241   3.128   4.682  17.151  0.7352 -1.3787 -1.1340
14942TIP3    H266242   3.060   4.795  17.076  1.6327 -0.0523  0.0128
14943TIP3   OH266243   1.173   5.778   4.650 -0.6048  0.6292 -0.5918
14943TIP3    H166244   1.244   5.767   4.714  0.4308 -0.9228 -1.9176
14943TIP3    H266245   1.200   5.723   4.576 -3.1329  0.1131 -1.2015
14944TIP3   OH266246   1.080   4.267   0.318 -0.6129  0.3538 -0.0837
14944TIP3    H166247   1.016   4.287   0.386 -0.1712  2.2092 -0.1471
14944TIP3    H266248   1.028   4.240   0.243 -1.1759 -0.4554  0.5852
14945TIP3   OH266249   4.164   3.073   1.114 -0.2975  0.0957 -0.2169
14945TIP3    H166250   4.196   2.986   1.138 -0.6586  0.2764  0.9598
14945TIP3    H266251   4.082   3.056   1.068 -0.4734 -0.1771  0.1940
14946TIP3   OH266252   3.543   1.583  16.294  0.2207  0.3998  0.2242
14946TIP3    H166253   3.621   1.536  16.267  0.7069  0.2737  1.7738
14946TIP3    H266254   3.490   1.589  16.214  2.1581  1.2391 -1.0923
14947TIP3   OH266255   5.553   5.330   3.969 -0.4641 -1.0821 -0.1104
14947TIP3    H166256   5.498   5.383   3.910 -0.9880 -3.6300 -2.0917
14947TIP3    H266257   5.635   5.378   3.974 -1.3092  0.5263 -0.8068
14948TIP3   OH266258   5.180   5.688   1.972  1.0038 -0.0793 -0.6595
14948TIP3    H166259   5.157   5.765   2.025 -0.1350 -0.4599 -0.5718
14948TIP3    H266260   5.256   5.650   2.016  0.5522  0.0568  0.2600
14949TIP3   OH266261   0.085   3.767   3.491  0.0659 -0.0405  0.4802
14949TIP3    H166262   0.088   3.682   3.448 -0.1099 -0.1105  0.6063
14949TIP3    H266263   0.109   3.829   3.423 -0.5824 -0.1127  0.1733
14950TIP3   OH266264   6.187   1.358  15.854 -0.4466  0.0514 -0.2121
14950TIP3    H166265   6.141   1.403  15.783  0.5411 -0.0822 -0.9629
14950TIP3    H266266   6.191   1.422  15.925 -2.3539 -0.1555  0.1381
14951TIP3   OH266267   0.235   5.491  11.091 -0.0785  0.4522  0.2319
14951TIP3    H166268   0.260   5.420  11.032  0.8092  0.5808  0.4510
14951TIP3    H266269   0.139   5.484  11.098 -0.0926 -0.1255 -0.4990
14952TIP3   OH266270   2.042   5.126   3.783  0.0796 -0.2525 -0.3832
14952TIP3    H166271   1.959   5.088   3.810  1.0683 -0.5013  2.6911
14952TIP3    H266272   2.093   5.052   3.750 -0.1029 -0.5580  0.0094
14953TIP3   OH266273   0.047   1.514  14.819 -0.2307 -0.3802  0.0915
14953TIP3    H166274   0.069   1.491  14.910 -0.4120 -0.8017  0.0294
14953TIP3    H266275   0.018   1.605  14.824 -1.9797 -0.9298  0.7572
14954TIP3   OH266276   3.427   6.300   2.790  0.8613  0.1510  0.5280
14954TIP3    H166277   3.511   6.302   2.837  1.7756  0.6793 -1.0624
14954TIP3    H266278   3.437   6.365   2.721  0.1523 -1.6458 -1.3572
14955TIP3   OH266279   0.713   1.250   3.376 -0.1460  0.0461  0.1320
14955TIP3    H166280   0.791   1.200   3.352 -1.4351 -1.5859 -0.8497
14955TIP3    H266281   0.672   1.198   3.446  0.0443  1.3209  1.2317
14956TIP3   OH266282   4.851   3.992   0.873  0.7054  0.7950 -0.2074
14956TIP3    H166283   4.877   4.066   0.817 -3.2650  2.1321 -0.6384
14956TIP3    H266284   4.869   4.022   0.962  1.2880  1.3149 -0.4931
14957TIP3   OH266285   6.371   1.346   4.432  0.5196  0.0343 -0.4487
14957TIP3    H166286   6.370   1.350   4.336  0.4938 -0.6218 -0.4813
14957TIP3    H266287   6.403   1.432   4.459  0.4534  0.2521 -1.0443
14958TIP3   OH266288   2.787   2.670  11.017 -0.1190  0.2158  0.4173
14958TIP3    H166289   2.812   2.760  11.001 -0.7697  0.8128  2.4015
14958TIP3    H266290   2.691   2.672  11.023 -0.1183 -0.5331  0.7958
14959TIP3   OH266291   6.573   0.647  13.752  0.1399 -0.2218  0.4998
14959TIP3    H166292   6.636   0.662  13.822  0.3096 -2.4828  0.9258
14959TIP3    H266293   6.613   0.688  13.675  1.4476 -0.3645  1.0666
14960TIP3   OH266294   0.676   5.667  17.247 -0.6949  0.4358  0.1995
14960TIP3    H166295   0.712   5.609  17.315  0.0243 -1.1066 -1.4326
14960TIP3    H266296   0.703   5.755  17.275 -2.7413  0.2530  3.3352
14961TIP3   OH266297   1.747   0.520  13.348 -0.2651 -0.4782  0.0544
14961TIP3    H166298   1.716   0.610  13.332  0.2648 -0.1509  0.7797
14961TIP3    H266299   1.767   0.486  13.261  0.0691  0.3173 -0.1953
14962TIP3   OH266300   2.938   2.442   6.063  0.0756  0.0088  0.2690
14962TIP3    H166301   2.971   2.382   6.129 -0.9892  1.0035  1.7756
14962TIP3    H266302   2.857   2.477   6.100 -1.3932 -0.4848 -2.2041
14963TIP3   OH266303   2.391   6.684  11.602 -0.4098 -0.9115 -0.4020
14963TIP3    H166304   2.424   6.600  11.569 -1.6624 -0.4677 -3.0744
14963TIP3    H266305   2.449   6.749  11.562 -0.8160 -0.4079 -0.1722
14964TIP3   OH266306   1.063   4.685   5.234 -0.0413 -0.0794 -0.4587
14964TIP3    H166307   1.132   4.697   5.300 -0.9885  1.2240  0.3379
14964TIP3    H266308   0.994   4.637   5.281 -0.4157  0.1973 -0.7254
14965TIP3   OH266309   3.706   4.056  13.873  0.1058  0.2293 -0.4182
14965TIP3    H166310   3.740   4.029  13.958  1.2809 -1.2955 -1.3201
14965TIP3    H266311   3.614   4.028  13.874 -0.1343  1.0080  0.6523
14966TIP3   OH266312   1.115   0.638   1.053 -0.1704  0.6354 -0.0403
14966TIP3    H166313   1.106   0.582   1.130 -1.2674 -0.6502 -1.0565
14966TIP3    H266314   1.182   0.595   0.999 -0.3063  0.8422 -0.3816
14967TIP3   OH266315   6.538   3.606  16.959  0.3196  0.4374  0.2153
14967TIP3    H166316   6.592   3.672  17.003 -0.1329  1.7487 -1.1475
14967TIP3    H266317   6.448   3.636  16.972  0.0663 -0.2739  0.1469
14968TIP3   OH266318   3.476   1.957   1.977  0.0396  0.0118  0.9578
14968TIP3    H166319   3.399   1.899   1.982 -0.5700  0.6365 -0.6609
14968TIP3    H266320   3.550   1.898   1.967 -0.5753 -0.5321 -0.6768
14969TIP3   OH266321   5.264   3.632  16.006  0.0813  0.1414 -0.1387
14969TIP3    H166322   5.291   3.617  15.916 -0.7779 -1.3820 -0.1793
14969TIP3    H266323   5.336   3.598  16.059  0.4148  0.6791 -0.2384
14970TIP3   OH266324   0.515   4.565  15.689 -0.0716 -0.0455  0.0835
14970TIP3    H166325   0.488   4.565  15.597  2.0421  1.9466 -0.6291
14970TIP3    H266326   0.449   4.512  15.733 -1.9428  0.0922 -2.3408
14971TIP3   OH266327   0.849   3.734   5.741  0.2420 -0.3463  0.3094
14971TIP3    H166328   0.767   3.701   5.705 -0.8900  1.5966  0.9456
14971TIP3    H266329   0.914   3.667   5.720 -1.0269 -0.9007 -2.2599
14972TIP3   OH266330   2.400   1.841   3.094  0.1795 -0.0181 -0.1924
14972TIP3    H166331   2.400   1.897   3.171 -0.5862 -1.0303  0.5516
14972TIP3    H266332   2.363   1.896   3.025  1.4935  1.1223 -0.0464
14973TIP3   OH266333   6.403   2.987  15.381 -0.1037  0.6283  0.1081
14973TIP3    H166334   6.340   3.018  15.445  0.1347 -1.5257  1.4877
14973TIP3    H266335   6.488   3.016  15.413 -0.1350  1.1502 -0.2631
14974TIP3   OH266336   1.782   4.227   4.590 -0.3225 -0.1134 -0.2759
14974TIP3    H166337   1.867   4.246   4.550 -0.1847  0.0439  0.0846
14974TIP3    H266338   1.801   4.219   4.684 -0.7405  0.1326 -0.1695
14975TIP3   OH266339   2.949   6.556  16.616  0.2237 -0.2943  0.1104
14975TIP3    H166340   2.920   6.644  16.639 -0.3636 -0.0151 -1.5201
14975TIP3    H266341   2.972   6.515  16.699 -1.0629  0.8433  1.0682
14976TIP3   OH266342   1.358   3.564  12.589 -0.3266 -0.3396  0.1780
14976TIP3    H166343   1.296   3.492  12.599 -0.3520 -0.3348  0.0464
14976TIP3    H266344   1.424   3.531  12.527 -0.5415 -0.1114 -0.1704
14977TIP3   OH266345   6.680   2.372   2.770 -0.1479  0.7547 -0.2330
14977TIP3    H166346   6.679   2.285   2.810 -0.8943 -0.5794 -2.9070
14977TIP3    H266347   6.633   2.428   2.832 -1.0500 -1.0932  0.8321
14978TIP3   OH266348   0.249   0.653   0.924  0.7378  0.1581 -0.3072
14978TIP3    H166349   0.269   0.587   0.857 -0.6788 -0.6543  0.0315
14978TIP3    H266350   0.322   0.648   0.985 -0.3651 -2.7410  0.9387
14979TIP3   OH266351   4.519   3.727  12.482  0.6769 -0.1877 -0.2186
14979TIP3    H166352   4.494   3.661  12.547  0.7162 -1.1047 -1.1211
14979TIP3    H266353   4.530   3.678  12.401 -0.7644  1.1540 -1.2699
14980TIP3   OH266354   3.098   5.436  15.901 -0.5603  0.0034  0.0883
14980TIP3    H166355   3.172   5.402  15.951  0.0549  0.4092 -0.5187
14980TIP3    H266356   3.058   5.502  15.958 -1.4236 -1.3136  1.0412
14981TIP3   OH266357   2.379   0.653  14.245 -0.5015  0.1696 -0.1279
14981TIP3    H166358   2.436   0.625  14.317 -1.4105  1.4153  1.1231
14981TIP3    H266359   2.416   0.610  14.168 -0.0601 -1.9932  1.1971
14982TIP3   OH266360   6.207   2.859  12.155 -0.2213 -0.8128 -0.6766
14982TIP3    H166361   6.143   2.867  12.084 -2.4030 -0.9822  1.1425
14982TIP3    H266362   6.172   2.789  12.211  1.6795 -1.0357  0.3196
14983TIP3   OH266363   0.481   3.650   3.405 -0.2894 -0.4810 -0.1686
14983TIP3    H166364   0.567   3.665   3.444 -0.7349 -0.6152  0.8747
14983TIP3    H266365   0.431   3.729   3.428 -1.1580 -1.4105  1.2359
14984TIP3   OH266366   0.601   1.655   1.982 -0.2812  0.7596  0.6423
14984TIP3    H166367   0.691   1.645   1.950 -0.9128 -1.7633 -0.6844
14984TIP3    H266368   0.610   1.666   2.076  1.4521  2.1163  0.3619
14985TIP3   OH266369   3.322   3.238   2.367 -0.1488 -0.2066 -0.6787
14985TIP3    H166370   3.406   3.194   2.379 -0.1778  0.3082  1.7514
14985TIP3    H266371   3.260   3.166   2.351  0.4994 -0.6958 -1.0371
14986TIP3   OH266372   6.333   3.330  11.042  0.0681 -0.2512  0.1231
14986TIP3    H166373   6.409   3.344  11.098 -0.7447 -0.3899  1.2936
14986TIP3    H266374   6.367   3.337  10.953  1.1436  1.4230  0.6138
14987TIP3   OH266375   4.385   4.648  15.975 -0.2363 -0.2689 -0.0254
14987TIP3    H166376   4.338   4.567  15.993 -1.4689  0.2272 -0.8566
14987TIP3    H266377   4.433   4.630  15.894  0.5890 -0.5894  0.5192
14988TIP3   OH266378   6.057   5.542   6.218  0.5450 -0.6158 -0.0075
14988TIP3    H166379   5.963   5.556   6.215  0.6832  0.2767 -1.5457
14988TIP3    H266380   6.095   5.629   6.205  1.5260 -1.3137 -2.3258
14989TIP3   OH266381   1.177   5.919  12.038 -0.1414 -0.1322 -0.0019
14989TIP3    H166382   1.251   5.863  12.014 -0.3204 -0.6501  0.6435
14989TIP3    H266383   1.191   5.940  12.130 -0.8561 -0.3211  0.1529
14990TIP3   OH266384   2.526   5.539   4.106  0.1419 -0.2084 -0.4070
14990TIP3    H166385   2.608   5.585   4.126  0.3803 -1.0480  0.5754
14990TIP3    H266386   2.549   5.481   4.033  0.1219  0.4069 -0.9074
14991TIP3   OH266387   0.419   1.532  17.302  0.6261  0.5349  0.5192
14991TIP3    H166388   0.447   1.466  17.239  1.4485  0.7195  0.6817
14991TIP3    H266389   0.498   1.581  17.322 -0.1414  2.2583 -0.3953
14992TIP3   OH266390   5.235   2.704  14.093  0.2977  0.2977  1.1210
14992TIP3    H166391   5.245   2.769  14.162  1.7211  1.8839 -0.4745
14992TIP3    H266392   5.210   2.755  14.015 -1.1033 -1.3946  0.3741
14993TIP3   OH266393   2.095   3.404  15.555  0.0154  0.1691 -0.1224
14993TIP3    H166394   2.079   3.487  15.600  1.3260 -0.0066  0.7256
14993TIP3    H266395   2.034   3.405  15.481 -2.3776  0.3729  1.7349
14994TIP3   OH266396   3.885   5.272   1.242  0.4417 -0.0152  0.0668
14994TIP3    H166397   3.908   5.362   1.219  2.3832 -0.4844  0.0740
14994TIP3    H266398   3.867   5.276   1.336  2.1455  0.1012  0.4225
14995TIP3   OH266399   5.200   0.758  17.178  0.4090  0.2790  0.1388
14995TIP3    H166400   5.146   0.836  17.185  0.7050  0.4026  1.2369
14995TIP3    H266401   5.138   0.687  17.162 -0.0525  0.4697  1.0483
14996TIP3   OH266402   0.368   3.452   4.995  0.8802  0.0958  0.0371
14996TIP3    H166403   0.403   3.376   4.949  0.3237  1.0988 -2.1326
14996TIP3    H266404   0.278   3.428   5.016  1.2545 -0.5145  1.0096
14997TIP3   OH266405   2.252   4.932   0.717  0.1911 -0.0138  0.3312
14997TIP3    H166406   2.309   4.967   0.786 -0.0119  1.4754 -0.2227
14997TIP3    H266407   2.285   4.972   0.636 -0.8441 -0.1173 -0.1570
14998TIP3   OH266408   0.959   0.116  14.969 -0.2284 -0.1561  0.4242
14998TIP3    H166409   0.974   0.187  15.031 -1.8370  0.6426 -0.0341
14998TIP3    H266410   0.994   0.148  14.886 -2.0179  0.6514 -0.0609
14999TIP3   OH266411   2.692   0.775  15.918  0.7626 -0.1159  0.5042
14999TIP3    H166412   2.602   0.806  15.927  0.5793 -0.5629  0.2498
14999TIP3    H266413   2.705   0.767  15.824  1.6492  1.5923  0.4274
15000TIP3   OH266414   3.215   4.066  13.250 -0.3559 -0.4371 -0.1032
15000TIP3    H166415   3.273   4.123  13.199 -0.7748 -0.7941 -0.9910
15000TIP3    H266416   3.199   3.991  13.193 -1.1161 -0.6795  0.4141
15001TIP3   OH266417   0.678   1.752  16.522 -0.6805  0.1544  0.0120
15001TIP3    H166418   0.702   1.678  16.466  1.0594  0.8789 -0.2789
15001TIP3    H266419   0.748   1.756  16.587 -0.9433  1.2993  0.2518
15002TIP3   OH266420   4.112   3.084  14.797 -0.2597 -0.1726 -0.4246
15002TIP3    H166421   4.057   3.062  14.872 -1.4973  0.0656 -1.2308
15002TIP3    H266422   4.130   3.177  14.806 -2.8941  0.6045 -1.8913
15003TIP3   OH266423   3.733   4.155   5.218 -0.5650  0.1434  0.5736
15003TIP3    H166424   3.689   4.071   5.206 -1.2794  0.7697 -1.7071
15003TIP3    H266425   3.823   4.132   5.240 -0.9556 -1.1984  0.8607
15004TIP3   OH266426   1.562   1.643   5.664 -0.1170 -0.1592  0.0379
15004TIP3    H166427   1.560   1.673   5.755  0.5436  0.2214 -0.0642
15004TIP3    H266428   1.649   1.668   5.633  0.2385 -1.6488 -0.2374
15005TIP3   OH266429   4.358   0.009   1.385  0.3003  0.5526  0.2223
15005TIP3    H166430   4.373  -0.037   1.303 -0.3636 -2.1400  1.5111
15005TIP3    H266431   4.327  -0.058   1.445 -1.0881  2.7891  2.1714
15006TIP3   OH266432   0.763   3.778   0.018  0.2027 -0.2379 -1.2375
15006TIP3    H166433   0.833   3.843   0.022 -0.2577  0.2011  0.6584
15006TIP3    H266434   0.683   3.829   0.034 -0.2369 -1.1647 -0.3964
15007TIP3   OH266435   6.337   3.732   5.055  0.3121 -0.1298 -0.1487
15007TIP3    H166436   6.384   3.790   5.114  0.4877 -1.3049  0.8959
15007TIP3    H266437   6.288   3.673   5.113 -0.8324 -0.2387 -1.1898
15008TIP3   OH266438   6.236   3.447   4.373  0.1306 -0.2637 -0.3659
15008TIP3    H166439   6.213   3.371   4.426 -1.1920  2.1168  2.7804
15008TIP3    H266440   6.162   3.458   4.313 -0.4829 -0.5148  0.3278
15009TIP3   OH266441   6.714   5.464  11.479 -0.7022 -0.2770 -0.5966
15009TIP3    H166442   6.624   5.469  11.509 -0.8300  0.6730 -1.1052
15009TIP3    H266443   6.709   5.423  11.393 -0.5851 -0.7502 -0.3815
15010TIP3   OH266444   1.055   2.146   0.353  0.2495  0.4933  0.2896
15010TIP3    H166445   0.963   2.173   0.361  0.0593 -0.5024  1.9858
15010TIP3    H266446   1.104   2.228   0.348 -0.7055  1.0400 -0.4921
15011TIP3   OH266447   6.378   1.617   3.156  0.7575 -0.1883  0.1612
15011TIP3    H166448   6.467   1.582   3.150  0.8028  0.1191 -1.4072
15011TIP3    H266449   6.322   1.546   3.123  0.7141  0.5944 -1.5715
15012TIP3   OH266450   6.574   3.076   2.617  0.0937 -0.2854 -0.5160
15012TIP3    H166451   6.593   3.158   2.664  0.6385 -0.0104 -1.1946
15012TIP3    H266452   6.581   3.008   2.684 -0.8847  0.2615  0.1724
15013TIP3   OH266453   6.727   0.834   5.768  0.1212  0.1147 -0.1175
15013TIP3    H166454   6.696   0.769   5.704  0.2369  0.5217 -0.5903
15013TIP3    H266455   6.669   0.823   5.843  2.2519 -2.9995  1.3079
15014TIP3   OH266456   1.467   1.614   0.064 -0.4796 -0.6132 -0.0327
15014TIP3    H166457   1.501   1.526   0.048  1.6216  0.3557 -1.4128
15014TIP3    H266458   1.518   1.646   0.139  0.6563  0.3125 -1.1581
15015TIP3   OH266459   6.503   4.476  11.526  0.3299  0.1335  0.1218
15015TIP3    H166460   6.431   4.533  11.553  0.5111  1.0182 -1.1984
15015TIP3    H266461   6.530   4.432  11.607 -0.7524  0.8550  0.8981
15016TIP3   OH266462   0.591   2.924  12.525  0.1432 -0.2067  0.2658
15016TIP3    H166463   0.501   2.953  12.533  0.1714 -0.2575  0.8328
15016TIP3    H266464   0.616   2.946  12.436 -0.3107  0.1386  0.2210
15017TIP3   OH266465   1.817   5.517  12.118 -0.5710  0.4762 -0.0893
15017TIP3    H166466   1.767   5.436  12.117 -1.3006  0.8719  0.9774
15017TIP3    H266467   1.751   5.586  12.108 -0.3648  1.0353  1.8173
15018TIP3   OH266468   1.372   1.417  11.594  0.1700  0.2657  0.3403
15018TIP3    H166469   1.402   1.331  11.624  0.4794 -0.1278 -1.0408
15018TIP3    H266470   1.420   1.479  11.649  0.4378 -0.4344  0.9103
15019TIP3   OH266471   2.147   4.594   0.644 -0.1827  1.0594  0.0294
15019TIP3    H166472   2.162   4.658   0.714 -2.1379  1.0042  0.5678
15019TIP3    H266473   2.056   4.566   0.657  0.2956 -1.0890 -0.8009
15020TIP3   OH266474   6.230   5.553   2.290 -0.0115 -0.0612  0.5304
15020TIP3    H166475   6.160   5.529   2.229  0.6549  0.7163 -0.5728
15020TIP3    H266476   6.190   5.619   2.347 -0.7436 -1.0468  1.1739
15021TIP3   OH266477   0.968   2.814   0.246 -0.2082 -0.1324  0.1797
15021TIP3    H166478   0.897   2.876   0.229  0.2987  0.3324 -0.2877
15021TIP3    H266479   0.974   2.761   0.167 -1.0685 -1.2358  0.8231
15022TIP3   OH266480   2.836   2.763   5.912 -0.2860 -0.0962  0.4118
15022TIP3    H166481   2.908   2.745   5.851 -0.1106 -0.4252  0.7137
15022TIP3    H266482   2.879   2.807   5.986 -0.5321  0.5106  0.2003
15023TIP3   OH266483   0.224   4.692  13.977  0.6767 -0.2915  0.1106
15023TIP3    H166484   0.129   4.690  13.982  0.4908  1.6882 -1.3063
15023TIP3    H266485   0.253   4.709  14.066 -0.1394 -2.6850  0.9111
15024TIP3   OH266486   1.463   2.909  17.221  0.0845  0.1308 -0.0039
15024TIP3    H166487   1.440   2.860  17.143  0.4129 -0.1537  0.0741
15024TIP3    H266488   1.551   2.943  17.204  0.0871  0.2170  0.1716
15025TIP3   OH266489   1.722   0.665  16.364  0.1431  0.1806  0.6978
15025TIP3    H166490   1.736   0.756  16.391  1.9956  0.4441 -0.9550
15025TIP3    H266491   1.690   0.672  16.274  1.4534 -0.8264  0.1368
15026TIP3   OH266492   0.874   5.855   5.789  0.1613 -0.1668  0.0028
15026TIP3    H166493   0.863   5.833   5.696  0.0186 -0.6635  0.1300
15026TIP3    H266494   0.830   5.783   5.835  0.0149  0.2097  0.4495
15027TIP3   OH266495   3.402   1.570  16.052  0.5059 -0.7348 -0.0045
15027TIP3    H166496   3.382   1.660  16.028  1.8508 -0.4151  0.0330
15027TIP3    H266497   3.321   1.522  16.033 -0.6069  0.6436  1.0009
15028TIP3   OH266498   0.606   4.704   5.455 -0.0529  0.6907  0.5733
15028TIP3    H166499   0.580   4.697   5.363  0.1089  0.3978  0.5476
15028TIP3    H266500   0.694   4.666   5.458 -0.0929  0.6172  0.8667
15029TIP3   OH266501   2.116   1.793   6.137  0.0333 -0.0636 -0.2292
15029TIP3    H166502   2.186   1.806   6.201  0.1125  1.3215 -0.5657
15029TIP3    H266503   2.035   1.809   6.186  0.0420  0.0606 -0.2564
15030TIP3   OH266504   0.499   1.833  13.408  0.0606 -0.3707 -0.1048
15030TIP3    H166505   0.541   1.799  13.487 -1.9611 -1.1109  0.7219
15030TIP3    H266506   0.437   1.765  13.383 -2.0681  1.4698 -0.0907
15031TIP3   OH266507   3.013   0.656  15.130 -0.1615  0.1112 -0.6269
15031TIP3    H166508   2.962   0.694  15.059  1.1992  0.9857 -1.1724
15031TIP3    H266509   2.948   0.631  15.196 -1.2928  1.0278 -1.3633
15032TIP3   OH266510   5.884   2.275  11.329 -0.0355  0.2994  0.2127
15032TIP3    H166511   5.806   2.290  11.383  1.4701  0.7364  2.3946
15032TIP3    H266512   5.941   2.349  11.349  1.4976 -0.7121 -0.2649
15033TIP3   OH266513   3.805   2.278   1.703  0.0574  0.0699 -0.2177
15033TIP3    H166514   3.750   2.241   1.771  0.5275 -0.7071 -0.2477
15033TIP3    H266515   3.744   2.324   1.645 -0.5021 -0.3975 -0.0077
15034TIP3   OH266516   3.561   2.502  13.895  0.5842 -0.0768  0.3551
15034TIP3    H166517   3.644   2.496  13.847 -0.0533 -0.4003 -0.7385
15034TIP3    H266518   3.514   2.422  13.873  0.0747 -0.0172  1.1661
15035TIP3   OH266519   3.920   5.746   6.639 -0.1519 -0.2597 -0.1915
15035TIP3    H166520   3.931   5.774   6.730  0.2138 -1.9154  0.3224
15035TIP3    H266521   3.825   5.748   6.625 -0.3398 -1.4024  0.7409
15036TIP3   OH266522   1.658   0.385  10.990 -0.3874  0.3852 -0.0384
15036TIP3    H166523   1.565   0.364  10.993 -0.6611  1.2239 -1.6429
15036TIP3    H266524   1.674   0.411  10.899  1.8136 -1.5120 -0.2854
15037TIP3   OH266525   0.916   3.554  16.078 -0.3255 -0.1360  0.1083
15037TIP3    H166526   0.987   3.597  16.125  0.2894 -0.2442 -0.7007
15037TIP3    H266527   0.881   3.621  16.020  0.6444 -0.6998 -1.1662
15038TIP3   OH266528   4.603   0.303  13.753  0.3290 -0.3118 -0.6187
15038TIP3    H166529   4.587   0.378  13.811  1.1503  0.7119 -1.6566
15038TIP3    H266530   4.646   0.341  13.676  0.4180 -1.8080 -1.3484
15039TIP3   OH266531   3.645   1.979   2.489  0.3123  0.2869  0.0064
15039TIP3    H166532   3.588   1.905   2.469 -0.6649  1.2690 -1.0265
15039TIP3    H266533   3.708   1.980   2.417  0.9254 -0.1100  0.5340
15040TIP3   OH266534   6.615   1.325  14.700  0.1663  0.4184 -0.3610
15040TIP3    H166535   6.537   1.302  14.751 -0.3894  0.9780 -0.9483
15040TIP3    H266536   6.669   1.375  14.761  0.5893 -0.8776  0.3863
15041TIP3   OH266537   1.903   2.689  13.688  0.1822  0.3528 -0.5193
15041TIP3    H166538   1.997   2.695  13.671  0.7471 -0.5255  1.9130
15041TIP3    H266539   1.894   2.710  13.781 -2.1480  1.2357 -0.8936
15042TIP3   OH266540   4.181   6.092  12.751  0.6181  0.5133  0.4834
15042TIP3    H166541   4.240   6.148  12.700 -1.2854  1.0809 -1.2322
15042TIP3    H266542   4.129   6.045  12.686 -0.7744 -0.0285  1.9003
15043TIP3   OH266543   2.831   3.556  16.346 -0.2706 -0.1446 -0.0551
15043TIP3    H166544   2.884   3.541  16.424 -0.8632  2.1015  0.8827
15043TIP3    H266545   2.878   3.625  16.298 -1.1047  0.1773 -0.4379
15044TIP3   OH266546   3.281   5.240   0.078 -0.1403 -0.4299 -0.3166
15044TIP3    H166547   3.274   5.244   0.173  1.6630 -0.7050 -0.1296
15044TIP3    H266548   3.337   5.314   0.055 -1.3294  0.1934 -1.2737
15045TIP3   OH266549   3.939   2.384  12.473 -0.4111 -0.3520  0.6625
15045TIP3    H166550   3.954   2.445  12.401  0.4594 -0.6688  0.5640
15045TIP3    H266551   3.873   2.427  12.527 -0.2341  0.4076  0.2901
15046TIP3   OH266552   1.210   2.894   6.386 -0.0305 -0.3197 -0.7796
15046TIP3    H166553   1.303   2.884   6.370 -0.1387 -0.2926 -1.4309
15046TIP3    H266554   1.203   2.901   6.482  0.8210  1.5507 -0.7986
15047TIP3   OH266555   5.895   4.821  17.382 -0.3783 -0.4941 -0.1620
15047TIP3    H166556   5.949   4.869  17.319 -1.1954 -0.1688 -0.6277
15047TIP3    H266557   5.890   4.878  17.459 -0.4949 -0.2927 -0.3201
15048TIP3   OH266558   2.676   1.353  11.846  0.5774 -0.0302  0.7845
15048TIP3    H166559   2.633   1.273  11.815 -1.8709  1.1722  0.8055
15048TIP3    H266560   2.763   1.350  11.806  0.7213 -2.8454  1.0992
15049TIP3   OH266561   4.812   5.618  16.645  0.2738 -0.0058 -0.1805
15049TIP3    H166562   4.768   5.674  16.581 -0.8317  0.3993  0.8915
15049TIP3    H266563   4.773   5.531  16.632  0.2747  0.0052 -0.2568
15050TIP3   OH266564   3.580   4.990   3.075  0.7358 -0.5406 -0.1152
15050TIP3    H166565   3.664   5.014   3.114  0.7249 -0.8483  0.1023
15050TIP3    H266566   3.586   4.895   3.063 -0.1341 -0.7927  1.2347
15051TIP3   OH266567   5.421   2.475  12.513  0.0033 -0.1315  0.4452
15051TIP3    H166568   5.357   2.407  12.490 -0.4119 -0.4487  2.2981
15051TIP3    H266569   5.423   2.534  12.438 -1.3444 -0.9412 -0.2606
15052TIP3   OH266570   0.854   5.544  15.108  0.1334 -0.2246 -0.3033
15052TIP3    H166571   0.920   5.563  15.042  0.0739  2.4598  0.2901
15052TIP3    H266572   0.903   5.512  15.184  0.5115 -0.4090 -0.6259
15053TIP3   OH266573   0.001   3.253  15.471  0.0499  0.2600  0.4678
15053TIP3    H166574  -0.006   3.158  15.477 -1.1071  0.3453  0.7641
15053TIP3    H266575  -0.040   3.275  15.387 -0.5350  0.5591  0.8202
15054TIP3   OH266576   5.903   2.735  16.365  0.3968 -0.0554  0.0302
15054TIP3    H166577   5.819   2.705  16.400  0.7987 -2.3714 -0.8593
15054TIP3    H266578   5.878   2.794  16.293 -0.6651 -3.1213 -2.3358
15055TIP3   OH266579   2.923   4.977  14.416 -0.4268  0.0356  0.2741
15055TIP3    H166580   2.885   4.989  14.329 -0.5149 -0.1916  0.2814
15055TIP3    H266581   2.986   5.048  14.424 -0.9920  0.5437  0.3406
15056TIP3   OH266582   5.773   1.143   3.687  0.4822  0.1815  0.7644
15056TIP3    H166583   5.752   1.144   3.594 -0.8467 -2.2558  0.9425
15056TIP3    H266584   5.707   1.199   3.727  1.0959  1.2884  0.2562
15057TIP3   OH266585   6.426   1.346  15.619 -0.2482  0.4271  0.0232
15057TIP3    H166586   6.409   1.386  15.705 -0.9047 -0.6432  0.4138
15057TIP3    H266587   6.509   1.299  15.630 -0.2169  0.4798  0.0104
15058TIP3   OH266588   3.359   5.907   4.613  0.6925 -0.3290 -0.2238
15058TIP3    H166589   3.366   5.816   4.642 -0.3719 -0.1202  0.7406
15058TIP3    H266590   3.268   5.918   4.587  1.0822  0.1509 -1.4783
15059TIP3   OH266591   2.525   2.502   3.517  0.2300 -0.0499  0.2336
15059TIP3    H166592   2.596   2.543   3.468 -1.3212  1.0967 -1.1783
15059TIP3    H266593   2.555   2.413   3.532  2.2281  0.5788  0.2711
15060TIP3   OH266594   3.724   5.518   4.965 -0.4366  0.5050 -0.8492
15060TIP3    H166595   3.747   5.447   5.025  0.0011  0.1027 -1.4846
15060TIP3    H266596   3.644   5.489   4.922  0.2261 -0.0365 -1.7710
15061TIP3   OH266597   4.918   2.526  13.007 -0.1882 -0.2257 -0.0598
15061TIP3    H166598   4.995   2.486  13.048  0.8409  1.3396 -0.3963
15061TIP3    H266599   4.943   2.617  12.991 -1.9075  0.1754 -0.7281
15062TIP3   OH266600   0.062   5.852  15.907 -0.4047 -0.2376  0.1629
15062TIP3    H166601   0.028   5.784  15.967  0.1964 -0.3031  0.4317
15062TIP3    H266602   0.065   5.809  15.822 -1.1572 -0.1807  0.0940
15063TIP3   OH266603   5.566   4.059   4.822 -0.1269 -0.5677  0.0124
15063TIP3    H166604   5.511   3.982   4.809  0.2003 -0.8320  0.2051
15063TIP3    H266605   5.562   4.105   4.739 -0.4565 -0.7031 -0.0501
15064TIP3   OH266606   5.267   5.113  17.023  0.4745 -0.2823 -0.1574
15064TIP3    H166607   5.248   5.032  16.976 -1.7229 -0.2894  0.6343
15064TIP3    H266608   5.297   5.174  16.956  0.9931 -1.3751 -0.9447
15065TIP3   OH266609   3.568   1.585   1.572 -0.1726 -0.4435 -0.6444
15065TIP3    H166610   3.631   1.544   1.631 -1.0821 -1.4548 -0.3463
15065TIP3    H266611   3.519   1.512   1.534 -0.9165  0.2978 -1.1434
15066TIP3   OH266612   6.312   3.056   1.444  0.1740  0.9686 -0.8061
15066TIP3    H166613   6.287   2.963   1.450  2.0025  0.5186  0.7913
15066TIP3    H266614   6.299   3.090   1.532  0.3572  2.0174 -1.1744
15067TIP3   OH266615   6.048   3.156  16.152  0.1059 -0.1217 -0.7954
15067TIP3    H166616   6.123   3.198  16.194 -1.2477  0.2554  1.3799
15067TIP3    H266617   6.027   3.081  16.208 -0.7902 -0.5781 -1.6938
15068TIP3   OH266618   1.324   2.201  14.980  0.7228  1.2039  1.0776
15068TIP3    H166619   1.262   2.160  14.920  0.8037  3.0308 -0.3408
15068TIP3    H266620   1.343   2.133  15.045 -0.9356 -0.1682  0.2109
15069TIP3   OH266621   4.717   0.727  13.611  0.0592  0.6481  0.0609
15069TIP3    H166622   4.652   0.797  13.615 -2.0116 -0.9415 -2.3720
15069TIP3    H266623   4.793   0.768  13.570 -0.3516  1.9526  0.5553
15070TIP3   OH266624   4.242   0.520  15.807  0.9531 -0.1868  0.3175
15070TIP3    H166625   4.253   0.579  15.733  1.9693  0.1518  0.7278
15070TIP3    H266626   4.153   0.538  15.839  1.0516  0.7296  0.1056
15071TIP3   OH266627   5.491   3.246   1.017 -0.1018 -0.2739 -0.2191
15071TIP3    H166628   5.584   3.238   1.036 -0.3960 -1.8334  0.7264
15071TIP3    H266629   5.485   3.240   0.921  0.8294  0.8339 -0.3678
15072TIP3   OH266630   3.920   5.716  16.327  0.3983  0.1667  0.0659
15072TIP3    H166631   3.865   5.693  16.402 -0.6849  1.5395 -0.2764
15072TIP3    H266632   3.929   5.634  16.279 -0.9794 -0.2080  0.3888
15073TIP3   OH266633   5.185   0.225   1.134 -0.6286  0.4443  0.1185
15073TIP3    H166634   5.275   0.254   1.128 -0.6202  0.8822  1.8277
15073TIP3    H266635   5.152   0.227   1.044  0.8833  0.8032 -0.4422
15074TIP3   OH266636   2.652   2.886   6.339  0.0637  0.2087  0.1602
15074TIP3    H166637   2.585   2.850   6.398 -0.5659  1.7742  0.4344
15074TIP3    H266638   2.691   2.808   6.298  0.1820 -0.9164  2.2389
15075TIP3   OH266639   4.133   4.263   0.684 -0.1270 -0.1560 -0.1549
15075TIP3    H166640   4.068   4.330   0.706  0.6575  0.2738  0.9315
15075TIP3    H266641   4.210   4.312   0.656  0.0052 -0.6443 -0.6730
15076TIP3   OH266642   5.002   2.484   4.575  0.1951 -0.4623 -0.6002
15076TIP3    H166643   5.066   2.465   4.506 -0.1006  0.1729 -1.0621
15076TIP3    H266644   4.918   2.458   4.538  0.1564 -1.1734 -0.0411
15077TIP3   OH266645   1.359   3.216  16.682  0.0883 -0.1188 -0.2863
15077TIP3    H166646   1.351   3.253  16.770 -0.0093  2.0057 -1.1511
15077TIP3    H266647   1.445   3.173  16.682  0.2408  0.1543  0.7207
15078TIP3   OH266648   3.879   1.501  17.120  0.2326 -0.1035  0.0042
15078TIP3    H166649   3.834   1.422  17.089 -0.0865  0.0309  0.1194
15078TIP3    H266650   3.809   1.554  17.159  0.3351  0.5449 -0.6929
15079TIP3   OH266651   3.329   1.420  12.298  0.1646 -0.3809 -0.4476
15079TIP3    H166652   3.333   1.407  12.203  0.0332  0.9792 -0.6617
15079TIP3    H266653   3.420   1.427  12.324  0.3566 -3.1454 -0.0570
15080TIP3   OH266654   3.501   5.800  12.441  0.5526  0.2760 -0.1215
15080TIP3    H166655   3.526   5.731  12.380  0.7943 -0.9154  1.2502
15080TIP3    H266656   3.411   5.779  12.466  0.8946 -0.0188  0.9048
15081TIP3   OH266657   4.081   2.473  17.309  0.2880 -0.2360  0.2165
15081TIP3    H166658   4.133   2.526  17.249  0.3756 -0.4113  0.1343
15081TIP3    H266659   4.140   2.456  17.383  0.9625 -1.8509 -0.6290
15082TIP3   OH266660   2.594   2.573   4.318  0.0518  0.3386  0.1415
15082TIP3    H166661   2.649   2.585   4.240  0.7816  0.2334  0.6258
15082TIP3    H266662   2.505   2.592   4.288  0.3303  0.3738 -0.6982
15083TIP3   OH266663   3.205   1.108  17.072 -0.4093  0.4331 -0.1304
15083TIP3    H166664   3.275   1.168  17.047 -0.2989  0.2060 -0.3790
15083TIP3    H266665   3.127   1.163  17.078 -1.1171  0.1273 -3.9069
15084TIP3   OH266666   6.417   1.160   3.661 -0.0675  0.3340 -0.1897
15084TIP3    H166667   6.379   1.244   3.687 -2.3695 -0.3809 -0.9657
15084TIP3    H266668   6.480   1.140   3.730 -2.1245  0.9991  2.0218
15085TIP3   OH266669   2.565   3.613  15.359 -0.4061 -0.0868  0.4585
15085TIP3    H166670   2.548   3.519  15.368 -0.8623  0.1400  2.7292
15085TIP3    H266671   2.660   3.621  15.370 -0.1278 -0.3915 -1.4219
15086TIP3   OH266672   4.886   4.899  15.896 -0.5899  0.4480 -0.4339
15086TIP3    H166673   4.837   4.981  15.907  0.0127  0.7885 -0.2658
15086TIP3    H266674   4.844   4.857  15.821 -0.0820  1.5239 -1.3622
15087TIP3   OH266675   4.829   4.877  16.904 -0.1786 -0.0186  0.3115
15087TIP3    H166676   4.884   4.815  16.855 -1.3284 -0.1150 -0.9154
15087TIP3    H266677   4.883   4.903  16.979  0.7742 -1.5902  0.2076
15088TIP3   OH266678   1.581   4.603  16.566  0.0425  0.4994 -0.0789
15088TIP3    H166679   1.550   4.578  16.479 -1.4085  0.7020  0.3586
15088TIP3    H266680   1.671   4.632  16.551 -0.3172  0.9613 -1.5800
15089TIP3   OH266681   5.677   3.183  14.530  0.1687 -0.3124 -0.3739
15089TIP3    H166682   5.637   3.231  14.602 -1.1347  1.9565 -2.4406
15089TIP3    H266683   5.620   3.106  14.518  1.0055 -1.2855  1.5958
15090TIP3   OH266684   1.528   2.539   2.780  0.7924 -0.4169 -0.5899
15090TIP3    H166685   1.491   2.458   2.814 -0.3588  0.6307  0.8579
15090TIP3    H266686   1.457   2.603   2.792  1.3582  0.6214 -2.4739
15091TIP3   OH266687   1.923   4.231   1.278 -0.1673  0.4254 -0.4341
15091TIP3    H166688   1.901   4.321   1.298  0.8256  1.0052 -1.8143
15091TIP3    H266689   2.019   4.229   1.279 -0.1702 -0.5221 -0.8082
15092TIP3   OH266690   2.754   5.364   2.935 -0.6194 -0.1379  0.0094
15092TIP3    H166691   2.795   5.279   2.920 -0.6682  0.2138 -2.6034
15092TIP3    H266692   2.825   5.427   2.922 -1.2178  0.3244 -1.1345
15093TIP3   OH266693   0.683   6.674   3.690  0.1630  0.4374  0.1557
15093TIP3    H166694   0.707   6.631   3.772  0.5284  0.5730  0.1262
15093TIP3    H266695   0.589   6.688   3.696 -0.2233 -1.5936 -0.4130
15094TIP3   OH266696   0.382   3.248  15.946 -0.0556 -0.0373 -0.3059
15094TIP3    H166697   0.387   3.246  16.042  0.8384  0.2157 -0.3318
15094TIP3    H266698   0.327   3.323  15.926  1.6456  1.3711  0.0038
15095TIP3   OH266699   4.774   2.027  16.580 -0.0847 -0.2233  0.1126
15095TIP3    H166700   4.774   2.053  16.488  1.5436 -1.9345 -0.4274
15095TIP3    H266701   4.847   2.075  16.619  1.2691 -1.9044 -0.2777
15096TIP3   OH266702   3.368   2.112   5.668 -0.0158 -0.4396 -0.1131
15096TIP3    H166703   3.452   2.143   5.702 -0.1254 -0.9698  0.6927
15096TIP3    H266704   3.386   2.088   5.577  0.6120 -0.1794 -0.0650
15097TIP3   OH266705   2.485   0.241   0.138 -1.2918  0.4301  0.1979
15097TIP3    H166706   2.393   0.222   0.121 -1.6368  1.9729  0.2275
15097TIP3    H266707   2.484   0.317   0.196 -0.0448 -1.2113  2.5928
15098TIP3   OH266708   1.118   0.988   5.948 -0.0178 -0.3211  0.0627
15098TIP3    H166709   1.052   0.945   6.001  2.2512  0.3297  3.7367
15098TIP3    H266710   1.080   1.074   5.928 -0.9454 -0.5986  0.5737
15099TIP3   OH266711   2.416   2.231   4.862 -0.0844 -0.4909 -0.4317
15099TIP3    H166712   2.501   2.210   4.900  1.1044  0.1043 -2.5659
15099TIP3    H266713   2.408   2.172   4.787 -1.6824 -0.7056 -0.1197
15100TIP3   OH266714   4.267   2.549   4.249 -0.0935 -0.0430  0.1258
15100TIP3    H166715   4.285   2.510   4.164  0.2578 -0.3641  0.3452
15100TIP3    H266716   4.346   2.598   4.271 -0.9413  1.7660 -0.6625
15101TIP3   OH266717   4.700   4.582   2.199 -0.6906 -0.3441  0.2886
15101TIP3    H166718   4.666   4.533   2.274  0.1022 -1.4284 -0.0339
15101TIP3    H266719   4.795   4.578   2.208 -0.5754 -0.7318 -0.9015
15102TIP3   OH266720   0.856   2.504  12.180 -0.3347 -0.7479  0.6186
15102TIP3    H166721   0.900   2.494  12.096 -0.1278 -1.0962  0.7693
15102TIP3    H266722   0.805   2.585  12.171  0.1714 -0.4547  0.3761
15103TIP3   OH266723   1.868   1.677   0.010 -0.2297 -0.6513 -0.1742
15103TIP3    H166724   1.925   1.641   0.078 -0.1544 -1.0689 -0.4546
15103TIP3    H266725   1.790   1.621   0.011 -0.0757 -0.8813 -0.6716
15104TIP3   OH266726   1.748   3.839   5.195 -0.2846  0.2483 -0.3265
15104TIP3    H166727   1.826   3.864   5.146 -1.9741 -1.2675 -4.1828
15104TIP3    H266728   1.759   3.746   5.212 -1.2347 -0.0066 -1.0205
15105TIP3   OH266729   3.814   4.062  11.126 -0.0299 -0.4572  1.2921
15105TIP3    H166730   3.825   3.981  11.077 -0.1162 -0.6184  1.5385
15105TIP3    H266731   3.720   4.068  11.142 -0.3250  0.7716 -0.5543
15106TIP3   OH266732   5.766   1.657  13.326  0.4996  0.2075 -0.5091
15106TIP3    H166733   5.817   1.735  13.348  1.3145 -0.9790  2.2126
15106TIP3    H266734   5.676   1.680  13.349  1.1396 -0.5335  3.4101
15107TIP3   OH266735   4.135   2.843   1.772 -0.4191 -0.1020 -0.5130
15107TIP3    H166736   4.113   2.759   1.812  1.4714 -0.9506 -1.1231
15107TIP3    H266737   4.206   2.877   1.827 -1.5243  1.4200  0.0626
15108TIP3   OH266738   1.929   5.613  15.708  0.5423  0.1827 -0.3853
15108TIP3    H166739   1.945   5.707  15.705  2.0548 -0.0696 -0.7546
15108TIP3    H266740   1.844   5.602  15.666  0.4152  1.3605 -0.4698
15109TIP3   OH266741   1.443   1.641  13.228  0.3750  0.9356 -0.2603
15109TIP3    H166742   1.447   1.727  13.269 -0.5826  0.8790 -0.0284
15109TIP3    H266743   1.351   1.615  13.235  0.8740 -0.6773  0.8465
15110TIP3   OH266744   1.939   6.117   5.720 -0.3737  0.0452  0.0457
15110TIP3    H166745   1.920   6.123   5.627  0.5441 -0.4991 -0.1953
15110TIP3    H266746   1.878   6.051   5.753 -1.5105  1.0899  0.0801
15111TIP3   OH266747   3.117   1.249   0.897 -0.4135  0.1183 -0.5780
15111TIP3    H166748   3.160   1.295   0.825 -1.0732 -1.6299 -2.1581
15111TIP3    H266749   3.178   1.179   0.921 -0.8621 -0.2445 -0.4882
15112TIP3   OH266750   4.294   5.034   3.103 -0.2610 -0.2982 -0.0116
15112TIP3    H166751   4.245   5.026   3.185 -1.1810  2.3273 -0.2441
15112TIP3    H266752   4.238   5.085   3.046  1.3368 -0.1349 -1.5117
15113TIP3   OH266753   5.525   4.214   3.269  0.0205 -0.5205 -0.7007
15113TIP3    H166754   5.461   4.228   3.339 -0.4265 -0.2387 -1.1594
15113TIP3    H266755   5.485   4.149   3.212 -0.0436 -0.0253 -1.2218
15114TIP3   OH266756   4.743   1.659  13.421 -0.0834 -0.2550 -0.4212
15114TIP3    H166757   4.725   1.583  13.364  0.2749 -1.7614  1.3674
15114TIP3    H266758   4.665   1.713  13.414 -1.4458 -2.0610  0.1520
15115TIP3   OH266759   0.854   2.858   3.436  0.0179  0.3265 -0.5768
15115TIP3    H166760   0.920   2.828   3.499  0.1326  0.2700 -0.7227
15115TIP3    H266761   0.774   2.813   3.462  0.2332 -0.2627 -0.9149
15116TIP3   OH266762   2.137   5.934  14.905  0.0887 -0.5375 -0.1258
15116TIP3    H166763   2.067   5.919  14.842  2.8927 -1.4137 -3.3694
15116TIP3    H266764   2.150   6.029  14.904  2.0700 -0.6951 -3.5104
15117TIP3   OH266765   6.113   4.074   5.084  0.5682 -0.1004  0.4619
15117TIP3    H166766   6.048   4.127   5.037  1.1675  0.1623 -0.0951
15117TIP3    H266767   6.184   4.135   5.102  0.1765 -0.0992  2.1019
15118TIP3   OH266768   4.393   0.789   3.756  0.1314  0.4388 -0.2614
15118TIP3    H166769   4.452   0.845   3.807  0.2219  0.2229 -0.1271
15118TIP3    H266770   4.424   0.700   3.773 -0.6068  0.2796  0.3016
15119TIP3   OH266771   0.785   3.731   0.337 -0.3695 -0.2933 -0.0322
15119TIP3    H166772   0.827   3.732   0.251 -1.0385 -0.2779 -0.3717
15119TIP3    H266773   0.818   3.652   0.379 -1.2065 -1.1533 -0.9263
15120TIP3   OH266774   2.608   3.499  13.510 -0.9749  0.0122 -0.3336
15120TIP3    H166775   2.682   3.536  13.560 -1.1826 -0.0216 -0.0004
15120TIP3    H266776   2.646   3.425  13.463 -0.4849  0.8002 -1.2257
15121TIP3   OH266777   1.919   5.111  11.409  0.0360 -0.2804 -0.4519
15121TIP3    H166778   1.849   5.053  11.379 -1.2191  0.6969  0.4888
15121TIP3    H266779   1.984   5.108  11.339 -0.3297 -2.2185 -0.7664
15122TIP3   OH266780   3.864   5.170   0.957  0.4408  0.6680  0.2518
15122TIP3    H166781   3.932   5.103   0.953 -1.0590 -0.9003 -0.0785
15122TIP3    H266782   3.877   5.212   1.042 -0.3950 -2.0942  1.8732
15123TIP3   OH266783   2.393   1.197  15.270  0.3768  0.4182  0.0581
15123TIP3    H166784   2.349   1.252  15.205 -1.0747  0.8770  1.3756
15123TIP3    H266785   2.442   1.133  15.218 -0.9270  0.6050 -1.4755
15124TIP3   OH266786   5.217   2.636   0.129  0.2786 -0.3685 -0.0131
15124TIP3    H166787   5.140   2.690   0.143  0.1837 -0.0418 -1.6076
15124TIP3    H266788   5.291   2.697   0.137  0.1840 -0.0040 -1.5589
15125TIP3   OH266789   2.418   3.480  16.647 -0.3087  0.4608 -0.0443
15125TIP3    H166790   2.494   3.537  16.657 -0.8530  1.5366 -1.5194
15125TIP3    H266791   2.383   3.470  16.735  0.7129  1.1267  0.4545
15126TIP3   OH266792   4.491   2.410   1.375  0.0569  0.3770  0.3240
15126TIP3    H166793   4.435   2.337   1.403  0.2006  0.2180  0.1986
15126TIP3    H266794   4.553   2.371   1.314 -0.3389  0.7512 -0.3232
15127TIP3   OH266795   1.798   0.370   2.003  0.0521  0.4381 -0.3268
15127TIP3    H166796   1.776   0.343   2.092 -0.4309  1.1173 -0.2328
15127TIP3    H266797   1.864   0.439   2.014  1.7664 -1.0832 -0.5857
15128TIP3   OH266798   2.450   1.422  13.604 -0.2891 -0.0649 -0.9266
15128TIP3    H166799   2.400   1.351  13.644  0.3159  0.5673  1.0586
15128TIP3    H266800   2.402   1.501  13.627  0.5994  0.3937 -0.6282
15129TIP3   OH266801   2.853   3.613   4.905 -0.1271 -0.3665 -0.3652
15129TIP3    H166802   2.938   3.624   4.946  0.0898 -0.2289 -0.8424
15129TIP3    H266803   2.806   3.551   4.961 -0.5164  1.1891  1.1065
15130TIP3   OH266804   2.469   1.489   3.928 -0.2343  0.0459  0.0126
15130TIP3    H166805   2.450   1.449   3.843 -2.6459  0.3835  0.3317
15130TIP3    H266806   2.562   1.510   3.924  0.2029 -1.8927 -1.7054
15131TIP3   OH266807   5.501   3.196   2.140  0.1986  1.0335 -0.0577
15131TIP3    H166808   5.416   3.165   2.109  0.9528  0.2401 -1.4460
15131TIP3    H266809   5.558   3.191   2.063  1.9953 -0.3850  1.2672
15132TIP3   OH266810   0.085   2.204  14.094 -0.0096 -0.3209 -0.2042
15132TIP3    H166811   0.056   2.155  14.171  0.6862 -0.9372 -0.3183
15132TIP3    H266812   0.050   2.155  14.020  0.8764 -0.8060 -0.3265
15133TIP3   OH266813   1.340   5.303  10.699 -0.7373  0.1133 -0.1181
15133TIP3    H166814   1.402   5.322  10.629 -1.4449  0.4587 -0.6541
15133TIP3    H266815   1.254   5.316  10.660 -1.1298  1.3206  1.0842
15134TIP3   OH266816   2.408   0.870  15.933  0.0230 -0.1961  0.3124
15134TIP3    H166817   2.337   0.812  15.960 -0.4331  0.3686  0.3323
15134TIP3    H266818   2.377   0.909  15.851 -0.1914  0.9327  0.9148
15135TIP3   OH266819   0.474   1.045   6.085 -0.4893  0.2003  0.2213
15135TIP3    H166820   0.410   1.088   6.141  1.4790  0.4392  2.4348
15135TIP3    H266821   0.526   0.991   6.144  2.0918  0.9084 -1.2419
15136TIP3   OH266822   4.393   3.737   3.682  0.0029  0.8117 -0.2045
15136TIP3    H166823   4.484   3.725   3.707 -0.8953 -1.1459  2.5922
15136TIP3    H266824   4.350   3.769   3.761 -2.1963 -1.0108 -0.5516
15137TIP3   OH266825   0.042   2.587   1.827  0.9019  0.4223 -0.0053
15137TIP3    H166826   0.093   2.509   1.807  0.6429  0.0929  0.5889
15137TIP3    H266827   0.074   2.616   1.912 -0.9503 -0.6960  1.1328
15138TIP3   OH266828   6.117   4.652   3.031 -0.1986 -0.6006  0.1555
15138TIP3    H166829   6.059   4.577   3.044  0.5117 -1.0861  0.5648
15138TIP3    H266830   6.058   4.728   3.030 -0.6865 -0.8759  2.5574
15139TIP3   OH266831   3.706   0.829   5.956 -0.1791  0.4109 -0.1270
15139TIP3    H166832   3.711   0.848   6.050  2.2599 -2.4429  0.4811
15139TIP3    H266833   3.775   0.883   5.918  0.3410 -0.0795  0.1037
15140TIP3   OH266834   2.366   3.398   0.877  0.1629 -0.6718  0.0905
15140TIP3    H166835   2.278   3.364   0.891  0.2569 -0.4333  1.3408
15140TIP3    H266836   2.353   3.477   0.825 -0.3418 -0.7366  0.1150
15141TIP3   OH266837   4.715   2.421  13.164  0.2064  0.0076  0.4364
15141TIP3    H166838   4.721   2.330  13.135  0.7602 -0.2149  1.2244
15141TIP3    H266839   4.793   2.463  13.126 -0.0675  0.1702  0.0434
15142TIP3   OH266840   3.573   0.557   4.758  0.3060 -0.2638  0.6047
15142TIP3    H166841   3.610   0.477   4.721  1.6489  0.5264  0.2019
15142TIP3    H266842   3.649   0.607   4.789 -0.4951  0.9505  0.6672
15143TIP3   OH266843   5.419   3.574   5.443 -0.0986 -0.1771 -0.4238
15143TIP3    H166844   5.461   3.491   5.422  0.6075  0.3669 -1.2059
15143TIP3    H266845   5.489   3.639   5.434 -0.5399  0.4607  0.5657
15144TIP3   OH266846   5.930   0.287   5.651  0.0003  0.4264 -0.0662
15144TIP3    H166847   5.900   0.210   5.699  0.6493 -0.0851 -0.4752
15144TIP3    H266848   5.891   0.361   5.698  0.5615 -0.0663  1.2027
15145TIP3   OH266849   4.840   5.243   1.828 -0.6886  0.1635  0.0041
15145TIP3    H166850   4.862   5.321   1.777 -1.5359  0.4062 -0.0162
15145TIP3    H266851   4.854   5.269   1.919 -2.3643  0.8549  0.1066
15146TIP3   OH266852   2.193   0.325  11.984  0.4724  0.3589 -0.0161
15146TIP3    H166853   2.254   0.381  11.936 -0.4474  1.3419 -0.0612
15146TIP3    H266854   2.191   0.243  11.934 -1.2277  1.7009 -2.2662
15147TIP3   OH266855   0.734   0.492  16.147 -0.1494 -0.4847 -0.1273
15147TIP3    H166856   0.674   0.498  16.072  0.7090 -1.6519 -0.9422
15147TIP3    H266857   0.789   0.570  16.139 -0.0661 -0.5964 -0.7303
15148TIP3   OH266858   6.270   3.904   1.934  0.4135 -0.5659 -0.1282
15148TIP3    H166859   6.336   3.970   1.913  0.8122 -1.3158 -1.4190
15148TIP3    H266860   6.311   3.850   2.002 -0.4450  1.2511  1.9243
15149TIP3   OH266861   4.646   5.239  10.803 -0.3847 -0.4845 -0.1903
15149TIP3    H166862   4.693   5.160  10.777  1.4289  0.2658  0.6605
15149TIP3    H266863   4.578   5.208  10.864 -0.7952 -1.5391 -1.1445
15150TIP3   OH266864   2.170   1.475  13.932  0.0177 -0.1900 -0.5343
15150TIP3    H166865   2.248   1.461  13.987  0.0595 -0.2085 -0.5981
15150TIP3    H266866   2.205   1.498  13.846 -0.0544  1.5072 -0.1332
15151TIP3   OH266867   0.983   3.510   5.646 -0.2259  0.0795  0.3255
15151TIP3    H166868   1.041   3.486   5.574  2.1428 -1.4560  2.5695
15151TIP3    H266869   0.921   3.438   5.652 -0.1613  0.0054  0.1037
15152TIP3   OH266870   6.276   0.439   0.864  0.8465 -0.4074  0.2075
15152TIP3    H166871   6.353   0.421   0.918  1.2387 -1.3758 -0.6487
15152TIP3    H266872   6.311   0.450   0.776  0.5327  3.6927  0.4296
15153TIP3   OH266873   6.427   1.972   3.220 -0.1756 -0.0273 -0.8793
15153TIP3    H166874   6.348   1.940   3.176 -1.7297 -0.0774  1.7518
15153TIP3    H266875   6.423   2.067   3.211 -0.8190  0.0021 -0.3508
15154TIP3   OH266876   0.659   4.407   0.548  0.4031  0.9283 -0.1364
15154TIP3    H166877   0.683   4.489   0.505  2.9824  0.9743  1.1754
15154TIP3    H266878   0.592   4.431   0.611 -1.3954  1.3442 -2.0990
15155TIP3   OH266879   1.220   5.782   2.739 -0.0330  0.3336 -0.4069
15155TIP3    H166880   1.188   5.703   2.783  2.5664  0.5867  2.1718
15155TIP3    H266881   1.142   5.816   2.694 -3.1516  0.0848  4.0659
15156TIP3   OH266882   2.838   4.627  15.814 -0.2974  0.3111 -0.0914
15156TIP3    H166883   2.811   4.600  15.902  0.8230 -0.8232 -0.0732
15156TIP3    H266884   2.903   4.695  15.828 -0.5910  0.5926 -0.0701
15157TIP3   OH266885   3.307   4.239  16.669 -0.4710  0.0704  0.0132
15157TIP3    H166886   3.214   4.232  16.648 -0.3972 -0.9486 -0.0595
15157TIP3    H266887   3.340   4.149  16.660  0.8333  0.6431 -1.3972
15158TIP3   OH266888   1.969   4.832  15.069 -0.2751  0.1365 -1.2250
15158TIP3    H166889   1.912   4.906  15.045 -0.7169  0.3912  0.4713
15158TIP3    H266890   1.909   4.766  15.104  0.3694  0.0785 -0.1752
15159TIP3   OH266891   4.236   5.168  13.521  0.6764 -0.1508 -0.7332
15159TIP3    H166892   4.144   5.160  13.547  0.8529 -3.2034 -0.7363
15159TIP3    H266893   4.249   5.262  13.507 -1.9027  0.5850  1.1312
15160TIP3   OH266894   6.142   4.219   3.142  0.3099  0.0320  0.8665
15160TIP3    H166895   6.091   4.197   3.064  0.1819 -3.8497  1.8445
15160TIP3    H266896   6.232   4.229   3.110  0.2491 -1.4768  0.1184
15161TIP3   OH266897   0.418   4.588   0.327 -0.1788  0.1565 -0.0509
15161TIP3    H166898   0.437   4.562   0.236 -0.0525 -2.0667  0.5474
15161TIP3    H266899   0.378   4.510   0.366 -0.0218  0.9838  1.8720
15162TIP3   OH266900   0.290   0.398   3.698 -0.6191  0.0044  0.4957
15162TIP3    H166901   0.199   0.419   3.677 -1.0618 -0.6725  1.6290
15162TIP3    H266902   0.304   0.439   3.784  0.9232  2.1806 -0.6953
15163TIP3   OH266903   5.216   1.331   0.690 -0.6125 -0.2253 -0.0917
15163TIP3    H166904   5.192   1.266   0.755 -1.0189  0.1833  0.1740
15163TIP3    H266905   5.292   1.293   0.645  0.0849 -0.2319  1.0484
15164TIP3   OH266906   5.579   6.455  15.310  0.2258 -0.2369  0.0335
15164TIP3    H166907   5.594   6.534  15.362 -1.0086  0.8623 -1.1736
15164TIP3    H266908   5.665   6.415  15.302  1.4635  2.4226 -1.5076
15165TIP3   OH266909   5.616   6.067   0.271 -0.1050 -0.5140  0.1195
15165TIP3    H166910   5.631   6.079   0.177  0.6946 -0.9480  0.1882
15165TIP3    H266911   5.687   6.010   0.300 -0.2146 -0.2003  1.0373
15166TIP3   OH266912   5.980   4.521  13.194  0.0199  0.1901 -0.3004
15166TIP3    H166913   5.970   4.437  13.240 -1.0712  0.4637 -0.0188
15166TIP3    H266914   5.988   4.496  13.102  0.4086 -0.2659 -0.1458
15167TIP3   OH266915   2.535   5.461  16.474  0.1822  0.0090 -0.1890
15167TIP3    H166916   2.537   5.505  16.389 -0.7474 -0.2458 -0.3504
15167TIP3    H266917   2.485   5.519  16.530  1.6879  0.6985  0.5104
15168TIP3   OH266918   1.722   0.557   3.347  0.2157 -0.1527 -0.1628
15168TIP3    H166919   1.684   0.508   3.274  1.7353 -0.0322 -1.0834
15168TIP3    H266920   1.798   0.601   3.309 -0.3846  1.9374  0.9412
15169TIP3   OH266921   1.168   4.227  14.621  0.2732  0.6067 -0.0528
15169TIP3    H166922   1.263   4.229  14.609  0.1472  3.1846 -1.3475
15169TIP3    H266923   1.134   4.206  14.534 -0.4075 -2.0023  0.7387
15170TIP3   OH266924   2.521   5.745   1.467  0.7331 -0.2186 -0.4548
15170TIP3    H166925   2.533   5.650   1.471 -1.2598 -0.4760  1.1879
15170TIP3    H266926   2.609   5.779   1.448  1.6343 -2.3468 -0.4386
15171TIP3   OH266927   4.868   6.387   4.110 -0.2062 -0.3732 -0.0639
15171TIP3    H166928   4.802   6.433   4.163  1.2334  0.5632  0.9907
15171TIP3    H266929   4.873   6.438   4.029 -0.4017 -0.1203  0.0791
15172TIP3   OH266930   0.124   5.406  12.038 -0.0630 -0.3042 -0.2248
15172TIP3    H166931   0.078   5.473  11.987 -1.5248 -0.9846  0.1346
15172TIP3    H266932   0.145   5.338  11.975 -0.8247 -0.6198 -0.1480
15173TIP3   OH266933   1.663   6.182  16.874  0.2779  0.0166  0.4627
15173TIP3    H166934   1.709   6.263  16.892 -0.0364 -0.2190  2.5873
15173TIP3    H266935   1.712   6.115  16.923  0.2036 -0.9915 -0.7905
15174TIP3   OH266936   2.108   0.529  15.461 -0.2220  0.0418 -0.5502
15174TIP3    H166937   2.096   0.438  15.433 -0.7534  0.1374 -0.6291
15174TIP3    H266938   2.203   0.542  15.457 -0.2303 -0.1117 -1.8045
15175TIP3   OH266939   3.451   2.437  15.909  0.1131 -0.2524 -0.6626
15175TIP3    H166940   3.504   2.358  15.919 -1.2225 -1.8227 -4.3783
15175TIP3    H266941   3.507   2.498  15.862  0.1894 -0.0761 -0.3450
15176TIP3   OH266942   4.462   2.762   0.070  0.1824  0.0626 -0.4015
15176TIP3    H166943   4.450   2.769   0.165  1.9931 -0.2490 -0.1116
15176TIP3    H266944   4.423   2.842   0.035 -1.6172 -0.3838  0.4632
15177TIP3   OH266945   3.684   2.283  13.574 -0.0122 -0.1385  0.5615
15177TIP3    H166946   3.636   2.286  13.657  0.4446  0.4850  0.8034
15177TIP3    H266947   3.617   2.258  13.510 -0.4992 -0.0403  1.0192
15178TIP3   OH266948   6.737   4.456   6.045  0.2302  0.2115  0.9345
15178TIP3    H166949   6.702   4.372   6.016  1.3248 -1.4463  3.9670
15178TIP3    H266950   6.828   4.457   6.016  0.5216 -0.1805  1.7939
15179TIP3   OH266951   5.399   2.483   4.866  0.1422  0.0149  0.1734
15179TIP3    H166952   5.444   2.458   4.946  1.3395 -1.8952 -1.0102
15179TIP3    H266953   5.349   2.405   4.841 -0.5871  0.7317 -0.6858
15180TIP3   OH266954   0.087   2.431  12.586  0.4234 -0.6146  0.5026
15180TIP3    H166955   0.101   2.389  12.671  0.8664  0.2168  0.8507
15180TIP3    H266956   0.125   2.519  12.596 -0.2803 -0.2067 -0.2720
15181TIP3   OH266957   0.549   1.548   5.040  0.2390  0.1694 -0.3758
15181TIP3    H166958   0.632   1.501   5.047  0.2465 -0.4807 -3.3392
15181TIP3    H266959   0.572   1.640   5.053  1.2435 -0.0993 -0.1923
15182TIP3   OH266960   2.640   6.026   3.679  0.1823 -0.7110 -0.5378
15182TIP3    H166961   2.621   6.119   3.672  1.7868 -0.2523  0.6370
15182TIP3    H266962   2.554   5.983   3.674 -0.5987  0.8302 -0.7939
15183TIP3   OH266963   2.419   6.506  12.931 -0.2247  0.4576  0.6900
15183TIP3    H166964   2.431   6.413  12.948  0.1828  0.5132  0.7113
15183TIP3    H266965   2.350   6.510  12.864 -0.4704  0.1589  0.9229
15184TIP3   OH266966   1.104   1.242   6.229 -0.5215  0.4075 -0.1905
15184TIP3    H166967   1.195   1.272   6.230 -0.0991 -0.5839  2.8698
15184TIP3    H266968   1.058   1.307   6.283 -1.5391  0.5898 -1.2485
15185TIP3   OH266969   2.385   6.390   1.711  0.4132 -0.0652  0.0697
15185TIP3    H166970   2.295   6.400   1.680 -0.1295  0.3838  1.6811
15185TIP3    H266971   2.427   6.334   1.646 -1.3661 -1.2876 -0.1038
15186TIP3   OH266972   3.032   1.047   5.524  0.0778  0.0328 -0.0684
15186TIP3    H166973   2.984   1.092   5.454  1.5529  0.7873 -0.6377
15186TIP3    H266974   3.019   1.102   5.601 -0.6397 -0.2166  0.0028
15187TIP3   OH266975   0.923   3.657   2.408  0.2542  0.4267 -0.3676
15187TIP3    H166976   0.920   3.611   2.492  1.9036  0.7433 -0.1084
15187TIP3    H266977   0.856   3.613   2.355 -2.1146  1.3561  1.6297
15188TIP3   OH266978   4.421   6.141   3.662 -0.4459  0.2712  0.4533
15188TIP3    H166979   4.476   6.183   3.729 -0.0458  0.5796 -0.0603
15188TIP3    H266980   4.450   6.181   3.579 -1.0143 -0.0212  0.1104
15189TIP3   OH266981   3.715   0.249  14.288  0.0567  0.4302 -0.2156
15189TIP3    H166982   3.700   0.319  14.352 -0.6464  1.6273 -1.6524
15189TIP3    H266983   3.631   0.239  14.244  0.3656 -0.8208 -0.5451
15190TIP3   OH266984   3.994   4.351  12.022  0.5784 -0.3938  0.1542
15190TIP3    H166985   3.956   4.265  12.004  0.3337 -0.0677 -1.0232
15190TIP3    H266986   4.089   4.336  12.022  0.6636 -0.3512 -2.2448
15191TIP3   OH266987   4.993   1.542   1.934 -0.1302  0.0357  0.2406
15191TIP3    H166988   4.900   1.564   1.929  0.0322  0.9840  0.9887
15191TIP3    H266989   5.021   1.576   2.019  0.7415 -0.8772  0.3362
15192TIP3   OH266990   5.508   1.714   5.567 -0.7566 -0.5915  0.1049
15192TIP3    H166991   5.451   1.655   5.615 -0.7902 -0.6291  0.0186
15192TIP3    H266992   5.587   1.720   5.620 -1.0838 -0.0380  0.5509
15193TIP3   OH266993   3.278   6.663   5.713  0.4457 -0.3334 -0.0424
15193TIP3    H166994   3.281   6.576   5.673  0.4473 -1.6252  2.5719
15193TIP3    H266995   3.344   6.714   5.665 -0.0267 -1.5238 -2.0576
15194TIP3   OH266996   1.070   5.308   5.977 -0.7352 -0.3648 -0.1371
15194TIP3    H166997   0.986   5.281   6.013 -1.4317 -0.8296 -2.0244
15194TIP3    H266998   1.115   5.349   6.051 -2.7284  0.2075  0.8278
15195TIP3   OH266999   5.263   4.664   6.068  0.0029  0.4257 -0.0087
15195TIP3    H167000   5.315   4.612   6.129 -0.5574  2.0168  1.9507
15195TIP3    H267001   5.177   4.623   6.069 -0.4746  1.3528  1.6285
15196TIP3   OH267002   2.178   2.124   3.276 -0.2186 -0.2479  0.1246
15196TIP3    H167003   2.247   2.134   3.341 -1.1063  0.1457  1.0306
15196TIP3    H267004   2.185   2.033   3.247  1.1156 -0.0261 -0.3287
15197TIP3   OH267005   0.768   1.319   1.491  0.0339  0.4593 -0.1107
15197TIP3    H167006   0.800   1.404   1.459 -2.0958  1.5422  0.4664
15197TIP3    H267007   0.788   1.320   1.585  0.3528  0.1404 -0.1732
15198TIP3   OH267008   4.440   6.347  14.902  0.5059  0.5638 -0.2114
15198TIP3    H167009   4.481   6.304  14.827 -0.1387  0.1313 -0.3237
15198TIP3    H267010   4.500   6.418  14.924  2.4798 -1.3816  1.0489
15199TIP3   OH267011   6.475   1.031   4.233  0.3626 -0.0639  0.1733
15199TIP3    H167012   6.463   1.020   4.327 -1.0632  1.3301  0.1773
15199TIP3    H267013   6.487   0.942   4.200 -0.7514 -0.7112  1.4528
15200TIP3   OH267014   2.998   4.408   1.145  0.2753  0.0399 -0.0143
15200TIP3    H167015   2.951   4.357   1.211 -0.0249  1.1811  0.6759
15200TIP3    H267016   3.029   4.486   1.191 -0.9032  1.4261 -1.4085
15201TIP3   OH267017   6.440   5.726   6.361  0.1149  0.2246  0.4953
15201TIP3    H167018   6.358   5.721   6.313  0.8730 -0.5771 -0.7914
15201TIP3    H267019   6.438   5.811   6.404  0.2466  2.0001 -2.6795
15202TIP3   OH267020   5.894   3.386   0.785  0.0384 -0.1941  0.0941
15202TIP3    H167021   5.927   3.468   0.822  0.6161 -0.3330 -0.1028
15202TIP3    H267022   5.972   3.339   0.758 -0.3042 -0.7151 -0.0025
15203TIP3   OH267023   2.842   3.941   5.470  0.6041  0.4289 -0.5804
15203TIP3    H167024   2.934   3.917   5.481  0.8001  0.2526 -2.2918
15203TIP3    H267025   2.832   3.957   5.376 -1.4473 -1.0040 -0.6825
15204TIP3   OH267026   2.368   1.851  17.028 -0.0380 -0.7523 -0.2112
15204TIP3    H167027   2.454   1.857  16.986  0.5683  0.6484  1.0974
15204TIP3    H267028   2.366   1.764  17.067  0.9091 -0.7007 -0.0288
15205TIP3   OH267029   6.585   3.881   4.193  0.1534  0.1795 -0.0295
15205TIP3    H167030   6.583   3.951   4.258  1.3511 -0.0587  0.3069
15205TIP3    H267031   6.676   3.851   4.194 -0.3488 -1.4705 -0.0616
15206TIP3   OH267032   2.306   1.129   3.770  0.4503  0.4918 -0.3152
15206TIP3    H167033   2.249   1.065   3.727  1.4413 -1.5873  1.2334
15206TIP3    H267034   2.257   1.211   3.768 -1.4904 -0.6229 -1.2149
15207TIP3   OH267035   4.957   3.815   6.409  0.2047  0.0256 -0.1634
15207TIP3    H167036   4.883   3.760   6.384 -0.5945  0.6658  0.6861
15207TIP3    H267037   4.920   3.904   6.412  0.6565  0.2040  1.5153
15208TIP3   OH267038   6.578   4.441   1.844 -0.1889  0.1044  0.2027
15208TIP3    H167039   6.649   4.505   1.841  0.1547 -0.2956 -0.6183
15208TIP3    H267040   6.621   4.359   1.870 -0.1468 -0.3540 -1.1933
15209TIP3   OH267041   5.801   5.510  15.134 -0.1544  0.2375  0.4126
15209TIP3    H167042   5.890   5.533  15.162  0.0694 -0.9073  0.7155
15209TIP3    H267043   5.744   5.572  15.179  0.4556  0.6210  0.6645
15210TIP3   OH267044   2.958   0.419  16.890  0.1799 -0.4518 -0.4902
15210TIP3    H167045   2.942   0.387  16.801 -1.1539 -2.8861  0.5323
15210TIP3    H267046   2.874   0.456  16.918  0.1317 -1.0918  0.2613
15211TIP3   OH267047   1.946   6.269  15.854  0.0580 -0.2341  0.2091
15211TIP3    H167048   1.853   6.250  15.870  0.0971  0.4435  1.3607
15211TIP3    H267049   1.981   6.291  15.941  1.2916 -0.4532 -0.2128
15212TIP3   OH267050   2.002   2.374   2.739 -0.1971 -0.2421 -0.7340
15212TIP3    H167051   1.915   2.335   2.749 -0.6238  1.1999  3.8841
15212TIP3    H267052   1.987   2.455   2.691 -1.2585 -0.4622 -0.7920
15213TIP3   OH267053   1.335   5.135   2.275 -0.2741 -0.0935 -0.1881
15213TIP3    H167054   1.275   5.080   2.325 -1.3329 -0.2044 -1.5196
15213TIP3    H267055   1.352   5.086   2.195 -0.9575  1.3308 -1.2494
15214TIP3   OH267056   6.450   3.890   1.678 -0.2458  0.1751  0.3716
15214TIP3    H167057   6.412   3.806   1.652 -0.0890  0.1143  0.3306
15214TIP3    H267058   6.496   3.870   1.760 -1.0788  0.4587  0.9186
15215TIP3   OH267059   2.710   4.982  13.080 -0.1979 -0.1920  0.8837
15215TIP3    H167060   2.646   4.947  13.143  0.2785  0.2044  1.6022
15215TIP3    H267061   2.692   5.076  13.077 -0.7041 -0.3054 -0.1550
15216TIP3   OH267062   5.206   3.883  14.523  0.2075 -0.4020  0.0881
15216TIP3    H167063   5.117   3.884  14.488  0.7101  1.7322 -1.2979
15216TIP3    H267064   5.228   3.975  14.537  1.8804 -0.9216  1.3225
15217TIP3   OH267065   0.536   1.087   3.574  0.1362 -0.3911 -0.0466
15217TIP3    H167066   0.514   1.179   3.592 -3.2574 -1.2700  1.0319
15217TIP3    H267067   0.465   1.056   3.519  0.1784 -2.8530  1.1720
15218TIP3   OH267068   4.618   6.133  11.268  0.4047  0.2649 -0.1508
15218TIP3    H167069   4.644   6.102  11.182  2.1974  1.6187 -0.1706
15218TIP3    H267070   4.656   6.070  11.329  1.1488  0.5558 -0.2997
15219TIP3   OH267071   1.272   3.470   2.474  0.0068 -0.5066  0.3510
15219TIP3    H167072   1.343   3.512   2.522  0.0757 -0.9910  0.6768
15219TIP3    H267073   1.288   3.494   2.382  0.1896 -0.0431  0.4994
15220TIP3   OH267074   3.017   4.847   1.679 -0.7963  0.4766  0.2358
15220TIP3    H167075   2.942   4.905   1.687 -0.7276  1.1887 -2.8820
15220TIP3    H267076   3.082   4.897   1.630  0.9436 -0.8332  1.0642
15221TIP3   OH267077   0.166   4.002   4.021  0.9578  0.0831 -0.1630
15221TIP3    H167078   0.206   4.089   4.029  0.3418  0.3473  0.1161
15221TIP3    H267079   0.073   4.016   4.040  0.9743 -0.7597  0.6145
15222TIP3   OH267080   6.492   0.912  12.201 -0.2196 -0.3407  0.5717
15222TIP3    H167081   6.523   0.936  12.288  0.8146  0.7530 -0.0595
15222TIP3    H267082   6.421   0.974  12.183 -0.0542 -0.1898  0.4259
15223TIP3   OH267083   2.238   6.593  11.866 -0.1104  0.1492  0.0021
15223TIP3    H167084   2.321   6.555  11.837 -0.4418  0.5935 -1.6806
15223TIP3    H267085   2.180   6.518  11.877  0.1481 -0.0689 -0.0890
15224TIP3   OH267086   6.349   0.057   1.745  0.2001 -0.1422  0.4979
15224TIP3    H167087   6.371   0.150   1.750  2.1848 -0.5410  0.3109
15224TIP3    H267088   6.334   0.040   1.652 -0.7722  0.1080  0.6070
15225TIP3   OH267089   2.231   3.845  16.709 -0.1641  0.0305 -0.2983
15225TIP3    H167090   2.170   3.792  16.761 -0.1598 -1.0762 -1.3603
15225TIP3    H267091   2.318   3.814  16.735 -0.0512  1.2293  0.8221
15226TIP3   OH267092   0.836   3.767   2.041 -0.4337  0.1265 -0.7820
15226TIP3    H167093   0.902   3.702   2.018 -0.8225 -1.6124  2.3771
15226TIP3    H267094   0.788   3.784   1.960  0.4438 -2.6484 -1.9869
15227TIP3   OH267095   5.123   1.950  15.399 -0.4539 -0.6061 -0.0360
15227TIP3    H167096   5.135   2.028  15.345 -0.3845 -0.3697  0.3142
15227TIP3    H267097   5.211   1.931  15.432 -0.3468 -1.2323 -0.6555
15228TIP3   OH267098   1.518   1.823  16.792 -0.2572  0.7703  0.2046
15228TIP3    H167099   1.522   1.746  16.736 -0.8195  0.6598  0.3056
15228TIP3    H267100   1.603   1.825  16.837 -0.1431  0.3565  0.0088
15229TIP3   OH267101   1.637   2.341   1.957  0.3260  0.2762  0.1844
15229TIP3    H167102   1.712   2.359   1.899 -0.0730 -1.8520 -1.0923
15229TIP3    H267103   1.618   2.426   1.998  1.9547  1.3958 -1.2149
15230TIP3   OH267104   3.294   3.906   6.268  0.2984 -0.0012  0.0543
15230TIP3    H167105   3.301   3.811   6.258  1.9241 -0.0621  1.3719
15230TIP3    H267106   3.385   3.937   6.265 -0.0906  1.3328  1.1768
15231TIP3   OH267107   5.123   0.650  14.258 -0.3804 -0.2866  0.6582
15231TIP3    H167108   5.055   0.691  14.312 -0.9275  1.6084 -1.3446
15231TIP3    H267109   5.196   0.712  14.262  0.0362 -0.7478  0.2243
15232TIP3   OH267110   6.407   5.194  13.359 -0.2662 -0.4969  0.0254
15232TIP3    H167111   6.391   5.120  13.417 -0.1408 -0.5675 -0.0290
15232TIP3    H267112   6.377   5.165  13.273  2.0446 -1.4249 -0.5409
15233TIP3   OH267113   0.874   5.757   4.542  1.0883 -0.5587 -0.6330
15233TIP3    H167114   0.962   5.795   4.540  0.7296  0.2919 -0.6881
15233TIP3    H267115   0.830   5.796   4.466  1.2431 -2.4454 -1.7723
15234TIP3   OH267116   4.022   3.797   0.833 -0.4902  0.0511  0.3682
15234TIP3    H167117   4.057   3.754   0.911 -1.7416 -0.2085  0.8170
15234TIP3    H267118   4.089   3.860   0.808 -0.2261  0.4128  1.8929
15235TIP3   OH267119   5.221   3.460   5.284  0.4273  0.2059  0.0029
15235TIP3    H167120   5.276   3.510   5.344 -0.0050  0.5164  0.1399
15235TIP3    H267121   5.269   3.378   5.270  1.9917  1.3159 -1.5589
15236TIP3   OH267122   3.633   2.585  12.105 -0.0260 -0.8720 -0.2934
15236TIP3    H167123   3.587   2.604  12.187  1.3101 -0.7665  0.4504
15236TIP3    H267124   3.680   2.503  12.122  4.7703  1.7898  1.0957
15237TIP3   OH267125   5.312   3.599   3.497 -0.1718 -0.9410  0.0069
15237TIP3    H167126   5.395   3.632   3.531  0.5189 -1.2561 -1.2813
15237TIP3    H267127   5.311   3.627   3.406 -1.9158 -0.1872  0.2229
15238TIP3   OH267128   0.874   0.325   1.667 -0.7553 -0.6377 -0.4232
15238TIP3    H167129   0.937   0.285   1.607 -0.4905 -0.2675 -0.3978
15238TIP3    H267130   0.922   0.330   1.750 -0.9568 -0.7128 -0.3024
15239TIP3   OH267131   3.144   3.257   5.690 -0.4876 -0.0910 -0.0721
15239TIP3    H167132   3.220   3.307   5.720 -0.2579 -0.9707  0.8541
15239TIP3    H267133   3.180   3.196   5.625 -0.3169 -0.7522  0.6245
15240TIP3   OH267134   2.878   0.053  16.701  0.5241 -0.4978 -0.1611
15240TIP3    H167135   2.890   0.145  16.677 -0.1305 -0.6765 -1.2398
15240TIP3    H267136   2.783   0.042  16.709  0.5477 -1.2399 -0.7669
15241TIP3   OH267137   1.370   3.777   5.185  0.1351 -0.5453 -0.3170
15241TIP3    H167138   1.302   3.769   5.118 -0.9115  0.6042  0.5570
15241TIP3    H267139   1.449   3.799   5.135 -0.7763  1.0386 -1.1699
15242TIP3   OH267140   5.005   5.051  16.301  0.4885 -0.0303 -0.6875
15242TIP3    H167141   4.939   4.982  16.310 -0.6836  1.1721  0.3360
15242TIP3    H267142   4.956   5.127  16.269  1.2895  0.9997  0.4518
15243TIP3   OH267143   0.815   5.689  17.001  0.1231 -0.3512  0.2459
15243TIP3    H167144   0.764   5.630  17.057  1.0507 -1.4513 -0.0365
15243TIP3    H267145   0.830   5.766  17.056 -1.5372 -0.1323  0.4428
15244TIP3   OH267146   6.510   3.383   0.230  0.3513 -0.3261  0.6355
15244TIP3    H167147   6.512   3.383   0.325 -0.3066 -0.1198  0.6528
15244TIP3    H267148   6.422   3.413   0.207  0.1564 -1.3554 -0.0316
15245TIP3   OH267149   0.978   2.409   0.925  0.2942  0.6190  0.2269
15245TIP3    H167150   0.948   2.496   0.897  1.8935  1.1392  0.0397
15245TIP3    H267151   1.010   2.423   1.014 -2.4708 -0.5154  1.5178
15246TIP3   OH267152   2.253   0.035  16.514  0.3789 -0.8075  0.0344
15246TIP3    H167153   2.259  -0.047  16.466 -0.9026 -0.4582 -0.7870
15246TIP3    H267154   2.159   0.054  16.518  0.5818  0.1437  1.0336
15247TIP3   OH267155   5.309   5.838   4.154  0.7548 -0.8796  0.6585
15247TIP3    H167156   5.375   5.776   4.184  0.3832 -2.1395 -0.9859
15247TIP3    H267157   5.323   5.845   4.060 -1.2863 -1.0269  0.2940
15248TIP3   OH267158   3.609   5.931  13.802  0.6020 -0.3888  0.4514
15248TIP3    H167159   3.570   5.848  13.829 -0.7995 -0.1483 -0.7186
15248TIP3    H267160   3.649   5.913  13.717  1.2735 -0.1155  0.6945
15249TIP3   OH267161   3.347   5.531   2.390 -0.5661 -0.6774  0.3032
15249TIP3    H167162   3.421   5.532   2.451  0.7852 -1.2068 -1.2331
15249TIP3    H267163   3.310   5.618   2.395 -1.1992 -1.0315  2.6556
15250TIP3   OH267164   5.136   2.644  12.637  0.2555  0.7921 -0.1268
15250TIP3    H167165   5.149   2.550  12.644 -2.2164  0.4763  1.3774
15250TIP3    H267166   5.125   2.660  12.543  0.2205 -0.4942 -0.3580
15251TIP3   OH267167   4.621   6.681   2.473  0.0592 -0.4071 -0.0922
15251TIP3    H167168   4.565   6.715   2.403 -1.4829 -0.9963  0.7970
15251TIP3    H267169   4.638   6.590   2.448  2.1806  0.2450 -1.2596
15252TIP3   OH267170   4.400   0.794  13.379  0.9268 -0.2396 -0.0802
15252TIP3    H167171   4.351   0.712  13.378  0.4048  0.0464  0.9220
15252TIP3    H267172   4.473   0.779  13.318 -1.0152 -0.2472 -2.5668
15253TIP3   OH267173   6.718   2.936  14.792  0.3437  0.2516 -0.1251
15253TIP3    H167174   6.691   2.888  14.870 -0.9912  1.9896  0.5599
15253TIP3    H267175   6.784   2.998  14.824  1.9636 -0.9597 -0.9729
15254TIP3   OH267176   1.685   5.056  16.881  0.3055 -0.1099  0.2465
15254TIP3    H167177   1.713   5.076  16.792  2.3636 -1.9220  0.3984
15254TIP3    H267178   1.766   5.034  16.927 -0.7284  0.6216  2.5413
15255TIP3   OH267179   1.836   0.375   4.543  0.1902  0.7692 -0.4923
15255TIP3    H167180   1.828   0.390   4.449 -1.7303 -2.5223 -1.0224
15255TIP3    H267181   1.753   0.406   4.580 -0.2117 -0.3949 -0.3601
15256TIP3   OH267182   2.660   0.381   1.763 -0.3886 -0.1459 -0.3332
15256TIP3    H167183   2.651   0.385   1.859  0.6616 -1.4984 -0.1569
15256TIP3    H267184   2.651   0.472   1.735  0.0553  0.3763  1.1326
15257TIP3   OH267185   1.238   5.065  10.539  0.0465  0.3865  1.1217
15257TIP3    H167186   1.198   5.152  10.537 -0.0148  0.4475 -3.2310
15257TIP3    H267187   1.165   5.005  10.523  0.6485 -0.0409 -0.1874
15258TIP3   OH267188   1.984   6.200   3.671  0.3591 -0.8581 -0.0246
15258TIP3    H167189   1.956   6.210   3.581  0.3869  1.0672  0.1534
15258TIP3    H267190   2.080   6.204   3.667  0.3488 -0.4524  0.1218
15259TIP3   OH267191   5.683   1.030  11.460  0.1822 -0.2522  0.0583
15259TIP3    H167192   5.706   0.970  11.389  0.8551 -0.4878  0.4689
15259TIP3    H267193   5.589   1.045  11.448 -0.0146 -1.4323 -0.0194
15260TIP3   OH267194   3.335   1.509   3.805 -0.2115  0.1412 -0.3562
15260TIP3    H167195   3.263   1.517   3.868 -0.2446  0.6111 -0.4506
15260TIP3    H267196   3.364   1.600   3.791  0.5448 -0.0585 -0.1431
15261TIP3   OH267197   6.028   4.350  15.148 -0.0516  0.0108  0.1598
15261TIP3    H167198   6.095   4.398  15.197 -0.0881  1.1509 -0.8297
15261TIP3    H267199   5.962   4.417  15.127 -1.0203 -0.8878  0.2922
15262TIP3   OH267200   5.644   3.206  13.969  0.2480  0.2903  0.3678
15262TIP3    H167201   5.567   3.216  14.026  0.1898 -0.9948  0.5446
15262TIP3    H267202   5.660   3.294  13.934 -0.5727  0.8129  1.2663
15263TIP3   OH267203   5.402   6.470  14.672 -0.0936 -0.1950  0.8798
15263TIP3    H167204   5.458   6.499  14.601  0.2524  0.7787  1.5327
15263TIP3    H267205   5.397   6.375  14.661 -0.0869 -0.0589 -0.4560
15264TIP3   OH267206   5.053   5.415  13.968 -0.0587  0.0201 -0.6987
15264TIP3    H167207   5.030   5.337  14.019 -2.7250  1.5812  0.6640
15264TIP3    H267208   5.148   5.423  13.979 -0.2912 -0.5970  2.8245
15265TIP3   OH267209   1.437   2.323  11.369  0.2252  0.3192 -0.9571
15265TIP3    H167210   1.470   2.383  11.435  0.9867 -1.9258  0.8131
15265TIP3    H267211   1.497   2.248  11.371 -0.0219 -0.1028 -3.8477
15266TIP3   OH267212   3.041   1.905  15.637 -0.4825  0.3731  0.2551
15266TIP3    H167213   3.082   1.981  15.677  0.3601 -0.5024  1.1051
15266TIP3    H267214   3.092   1.889  15.558 -1.2152  1.2068 -0.4018
15267TIP3   OH267215   1.629   0.820  12.201  0.2775  0.4955  0.5448
15267TIP3    H167216   1.573   0.836  12.125  2.0270 -0.0103 -0.9112
15267TIP3    H267217   1.627   0.902  12.250 -1.4546  0.5871  0.3714
15268TIP3   OH267218   0.622   0.140   0.743  0.4329 -0.1034 -0.6359
15268TIP3    H167219   0.690   0.110   0.683 -0.3116 -0.9038 -1.1067
15268TIP3    H267220   0.570   0.202   0.692 -0.4999 -1.1580 -1.0067
15269TIP3   OH267221   4.204   5.779   1.681 -0.0512 -0.6761  0.2493
15269TIP3    H167222   4.218   5.775   1.587 -0.8381  2.2150 -0.0736
15269TIP3    H267223   4.116   5.815   1.691  1.2595  2.4193  1.9926
15270TIP3   OH267224   4.876   2.499  16.188  0.2249 -0.8926 -0.4844
15270TIP3    H167225   4.809   2.468  16.247 -0.5435 -0.2634 -1.0032
15270TIP3    H267226   4.832   2.564  16.133  1.5754  0.5805  0.0768
15271TIP3   OH267227   3.637   2.110   3.014 -0.0602 -0.3207 -0.8549
15271TIP3    H167228   3.658   2.197   2.981  0.2665  0.3089  0.9195
15271TIP3    H267229   3.700   2.095   3.084 -1.5909 -0.9814  0.4541
15272TIP3   OH267230   5.482   5.100   1.975  0.2161 -0.3321 -0.4313
15272TIP3    H167231   5.424   5.160   1.930  0.6738 -0.9730 -1.9668
15272TIP3    H267232   5.535   5.061   1.905  1.0247 -1.3231  0.6813
15273TIP3   OH267233   6.640   4.953  16.849 -0.2711  0.9957 -0.1115
15273TIP3    H167234   6.654   5.036  16.803 -0.6417  0.2982 -1.5481
15273TIP3    H267235   6.661   4.886  16.784 -0.7675 -0.0378  0.7657
15274TIP3   OH267236   4.312   4.025  14.245  0.1586 -0.1808  0.2736
15274TIP3    H167237   4.343   4.042  14.156 -1.1997 -0.4797 -0.2801
15274TIP3    H267238   4.387   3.984  14.289  0.5138 -1.0389 -1.0587
15275TIP3   OH267239   2.575   2.380  16.347  0.5605 -0.1363  0.3182
15275TIP3    H167240   2.597   2.433  16.424  1.5450  0.4753 -0.3471
15275TIP3    H267241   2.538   2.300  16.382  0.2946  0.4450  1.4031
15276TIP3   OH267242   1.762   1.943  12.525  0.0871  0.0486  0.3464
15276TIP3    H167243   1.837   1.901  12.482  0.8186  0.4423  1.1940
15276TIP3    H267244   1.791   2.034  12.538 -0.6690  0.2857  0.3984
15277TIP3   OH267245   4.260   0.136   4.825  0.0437 -0.1826  0.6476
15277TIP3    H167246   4.214   0.052   4.820 -0.3418 -0.0435  1.5922
15277TIP3    H267247   4.302   0.134   4.911 -0.1634  0.6974  0.7734
15278TIP3   OH267248   2.903   3.332  11.085 -0.0896  0.3444 -0.2795
15278TIP3    H167249   2.845   3.399  11.120 -1.5771 -0.0924 -1.7795
15278TIP3    H267250   2.849   3.283  11.023  1.3828 -1.2588 -0.3876
15279TIP3   OH267251   4.005   6.064  15.702  0.7816  0.7575 -0.5298
15279TIP3    H167252   3.911   6.064  15.683  0.8219 -1.7784 -0.9983
15279TIP3    H267253   4.035   6.150  15.673 -0.5703  0.0076 -4.7558
15280TIP3   OH267254   2.676   0.355   1.028  0.2052 -0.1689  0.0057
15280TIP3    H167255   2.644   0.442   1.053  2.5703  1.0727 -0.9113
15280TIP3    H267256   2.618   0.294   1.073 -1.8884  1.8591  0.2575
15281TIP3   OH267257   5.211   5.060  16.512 -0.1685  0.3272 -0.1985
15281TIP3    H167258   5.153   5.108  16.572 -1.7758 -1.5575 -0.1627
15281TIP3    H267259   5.152   5.019  16.448  1.0279 -2.0435  0.1001
15282TIP3   OH267260   3.338   2.396  17.157  0.1780  0.1043  0.0227
15282TIP3    H167261   3.389   2.343  17.218 -1.0691 -0.1466  0.8806
15282TIP3    H267262   3.350   2.486  17.188 -1.9028 -0.1639  1.8315
15283TIP3   OH267263   6.421   2.031   1.358  0.7164 -0.0123  0.0027
15283TIP3    H167264   6.346   2.044   1.416  0.8140 -0.3252  0.1958
15283TIP3    H267265   6.482   2.101   1.381  0.2872  0.5369 -0.4773
15284TIP3   OH267266   0.297   5.343  13.907 -0.0825 -0.1113 -0.0052
15284TIP3    H167267   0.390   5.338  13.883 -0.5164 -1.0768 -1.6363
15284TIP3    H267268   0.298   5.370  13.999  1.8119 -0.0969  0.0181
15285TIP3   OH267269   1.308   0.753   0.003  0.1586  0.2213  0.0284
15285TIP3    H167270   1.395   0.780   0.034  0.0561 -0.8808  1.4149
15285TIP3    H267271   1.268   0.712   0.080 -1.4256  0.3178 -0.7159
15286TIP3   OH267272   4.222   1.459  13.584 -0.2040  0.6388 -0.1151
15286TIP3    H167273   4.146   1.511  13.559 -0.2655  0.1896 -0.9189
15286TIP3    H267274   4.262   1.507  13.656 -1.6240  0.5412  0.7756
15287TIP3   OH267275   5.024   5.620   0.088 -0.5211 -0.3952 -0.0488
15287TIP3    H167276   4.941   5.587   0.122 -1.3140  0.0294 -1.4939
15287TIP3    H267277   5.024   5.712   0.111 -0.0532 -0.5788  0.6919
15288TIP3   OH267278   3.524   5.769  16.767  0.3334 -0.7354 -0.3524
15288TIP3    H167279   3.440   5.744  16.805  0.1223  1.7136  1.0539
15288TIP3    H267280   3.508   5.772  16.673 -1.3484  0.1097 -0.0869
15289TIP3   OH267281   5.845   6.061   4.072 -0.1082  0.0581 -0.4051
15289TIP3    H167282   5.909   6.093   4.008 -0.7466 -1.2967 -1.7839
15289TIP3    H267283   5.897   6.042   4.150  1.1718 -0.8348 -1.4232
15290TIP3   OH267284   6.475   4.251   4.794  0.6026 -0.1962 -0.2284
15290TIP3    H167285   6.502   4.213   4.878  0.5526  0.9208  0.3174
15290TIP3    H267286   6.471   4.345   4.811 -0.4928 -0.0501 -1.1904
15291TIP3   OH267287   3.122   6.674  15.019  0.2125  0.6147 -0.3807
15291TIP3    H167288   3.060   6.747  15.028 -0.7524 -0.3385  1.1756
15291TIP3    H267289   3.203   6.705  15.059 -0.1636  0.8802  0.1834
15292TIP3   OH267290   1.631   1.499   3.789  0.0618  0.0372  0.1377
15292TIP3    H167291   1.543   1.472   3.763  0.1437  0.2276 -0.3554
15292TIP3    H267292   1.618   1.582   3.835 -0.0009  0.1848 -0.1382
15293TIP3   OH267293   4.852   5.227  15.150  0.4464 -0.2897 -0.0352
15293TIP3    H167294   4.778   5.267  15.105  1.2262  0.2924 -0.8391
15293TIP3    H267295   4.862   5.279  15.230  0.9733  0.6671 -0.7055
15294TIP3   OH267296   2.081   1.893   1.733  0.0799 -0.1439  0.4002
15294TIP3    H167297   2.079   1.853   1.820 -0.5591 -0.1284  0.3971
15294TIP3    H267298   2.143   1.965   1.742  1.7605 -1.4911  0.2390
15295TIP3   OH267299   6.251   3.448   3.298 -0.1833 -0.3135 -0.1932
15295TIP3    H167300   6.222   3.384   3.363  0.0663  0.6110  0.8607
15295TIP3    H267301   6.220   3.532   3.332  4.1331  0.9267  1.4685
15296TIP3   OH267302   4.834   4.047   1.494  0.2313 -0.3256 -0.6904
15296TIP3    H167303   4.776   4.054   1.570  0.1005 -1.7266 -0.6410
15296TIP3    H267304   4.782   4.080   1.421  0.4666  1.3396 -0.1595
15297TIP3   OH267305   4.299   3.061  16.000  0.4423  0.7508  0.6494
15297TIP3    H167306   4.273   3.121  16.071 -1.5718 -0.5891  1.1388
15297TIP3    H267307   4.230   3.072  15.934  0.8304  0.0154  0.1109
15298TIP3   OH267308   5.544   1.585  17.028 -0.3536 -0.5454  0.6453
15298TIP3    H167309   5.586   1.499  17.041 -0.6968 -0.5109  2.1857
15298TIP3    H267310   5.594   1.625  16.956  0.2054 -1.7827  0.3122
15299TIP3   OH267311   0.781   2.297  11.922 -0.1028 -0.1365 -0.5211
15299TIP3    H167312   0.714   2.293  11.990 -0.0290  0.1803 -0.4331
15299TIP3    H267313   0.772   2.213  11.876 -0.7290  0.0033 -0.6690
15300TIP3   OH267314   5.396   2.318   3.177 -0.0303 -0.8873  0.2736
15300TIP3    H167315   5.376   2.407   3.150 -0.2745 -1.1203 -0.3293
15300TIP3    H267316   5.485   2.322   3.211 -0.6744 -0.0361  2.0206
15301TIP3   OH267317   1.673   5.019   4.509 -0.0229  0.9167 -0.7677
15301TIP3    H167318   1.695   5.108   4.533 -2.3659  2.0297 -2.3395
15301TIP3    H267319   1.731   4.999   4.435  1.2606  0.6549  0.2620
15302TIP3   OH267320   4.525   0.765  12.466 -0.3929  0.3981  0.3776
15302TIP3    H167321   4.610   0.803  12.489 -1.0347  2.9136 -0.9449
15302TIP3    H267322   4.541   0.722  12.382 -0.5473  1.7161 -0.3702
15303TIP3   OH267323   3.360   2.062   3.092 -0.5177  0.7569 -0.5614
15303TIP3    H167324   3.379   2.004   3.165 -0.3351  0.8802 -0.5109
15303TIP3    H267325   3.445   2.079   3.052 -0.7540 -0.3241 -1.5711
15304TIP3   OH267326   4.593   2.466  14.801  0.2664  0.5528  0.4516
15304TIP3    H167327   4.638   2.397  14.751  1.2756  1.9763 -0.6708
15304TIP3    H267328   4.655   2.490  14.870 -0.8616 -0.9461  2.0848
15305TIP3   OH267329   3.666   0.662   3.470 -0.4832 -0.2845 -0.0313
15305TIP3    H167330   3.602   0.726   3.441 -1.7295 -0.8588  1.3072
15305TIP3    H267331   3.717   0.707   3.537  0.5422  0.1598 -1.0681
15306TIP3   OH267332   4.415   3.595   1.325  0.2307  0.5795 -0.6754
15306TIP3    H167333   4.415   3.506   1.359 -0.0367  0.5590 -0.7339
15306TIP3    H267334   4.423   3.650   1.403 -1.2235  0.5637 -0.4967
15307TIP3   OH267335   0.701   4.387  15.386 -0.6034  0.1826 -0.1024
15307TIP3    H167336   0.742   4.301  15.385  1.9848  1.3351 -0.3777
15307TIP3    H267337   0.629   4.380  15.324  1.2380 -1.0471 -2.2291
15308TIP3   OH267338   3.800   3.731   1.188  0.2711 -0.2333  0.2872
15308TIP3    H167339   3.747   3.744   1.110  1.2786 -1.4625 -0.6419
15308TIP3    H267340   3.889   3.753   1.161  0.9418 -2.4097  0.5092
15309TIP3   OH267341   2.812   3.922   4.229  0.5285  0.1497  0.5473
15309TIP3    H167342   2.773   3.935   4.315 -0.1928 -0.5006  0.3274
15309TIP3    H267343   2.885   3.862   4.244  0.8352  0.5818  0.8041
15310TIP3   OH267344   0.336   4.220   7.005  0.0374 -0.7578 -0.8299
15310TIP3    H167345   0.275   4.146   7.003 -1.5048  0.4363  0.0450
15310TIP3    H267346   0.313   4.267   7.085  1.2497  0.4519 -1.1758
15311TIP3   OH267347   4.184   0.446  17.255  0.3678  0.0506  0.8612
15311TIP3    H167348   4.105   0.500  17.253  0.7123  0.5535  0.5207
15311TIP3    H267349   4.197   0.419  17.164 -0.0448 -0.9840  1.0880
15312TIP3   OH267350   6.508   4.047   1.466  0.1545  0.4996 -0.1623
15312TIP3    H167351   6.479   4.131   1.502  0.9201  0.5553  0.3638
15312TIP3    H267352   6.493   3.984   1.537  2.3505  0.7343  0.5936
15313TIP3   OH267353   5.974   2.108   0.324  0.0188 -0.1697 -0.3883
15313TIP3    H167354   5.925   2.102   0.406  1.3543  0.0638  0.4717
15313TIP3    H267355   6.002   2.018   0.307 -0.2414 -0.2148 -0.5864
15314TIP3   OH267356   1.868   4.575   3.662 -0.4713  0.2208 -0.1085
15314TIP3    H167357   1.817   4.561   3.583  0.1510 -1.2479 -0.2861
15314TIP3    H267358   1.868   4.490   3.706  1.9298  0.1071 -0.2078
15315TIP3   OH267359   6.165   2.013  12.621  0.0173  0.7086  0.8486
15315TIP3    H167360   6.090   1.969  12.660  0.7416 -1.7194 -0.3317
15315TIP3    H267361   6.240   1.961  12.649  0.7934  0.4342 -1.5814
15316TIP3   OH267362   1.317   1.057  11.553  0.2777  0.0134  0.2183
15316TIP3    H167363   1.389   1.080  11.493  0.4705  1.3552  0.9228
15316TIP3    H267364   1.264   0.994  11.504  0.4657  1.0157 -1.3490
15317TIP3   OH267365   3.541   1.748   1.349 -0.4631  0.4210  0.3273
15317TIP3    H167366   3.564   1.708   1.432  0.1842 -4.7855 -1.9500
15317TIP3    H267367   3.620   1.792   1.320 -0.1296  0.7084  1.6350
15318TIP3   OH267368   6.145   0.198   0.514  0.1463  0.1853  0.5481
15318TIP3    H167369   6.198   0.156   0.582 -0.6925 -1.4152  0.2686
15318TIP3    H267370   6.163   0.148   0.435 -1.9245 -0.5940  0.4950
15319TIP3   OH267371   4.911   4.586   1.201  0.3727 -0.6513 -0.7865
15319TIP3    H167372   4.938   4.516   1.141 -0.2740 -0.4220 -1.3512
15319TIP3    H267373   4.965   4.661   1.176 -0.1112 -0.4688 -1.2795
15320TIP3   OH267374   5.163   1.910   5.055 -0.4999 -0.4601  0.0421
15320TIP3    H167375   5.246   1.927   5.011 -1.4455 -2.7248 -2.9457
15320TIP3    H267376   5.129   1.997   5.075  1.6742  0.5690 -0.4510
15321TIP3   OH267377   5.042   1.728   0.334  0.1039 -0.7134  0.2355
15321TIP3    H167378   5.060   1.676   0.412 -0.9497 -1.7523 -0.1749
15321TIP3    H267379   5.090   1.683   0.264  1.9163  0.8268  0.4395
15322TIP3   OH267380   0.337   4.397   6.508  0.9360 -0.2044  0.4474
15322TIP3    H167381   0.344   4.340   6.585  3.2062  0.5313  0.8617
15322TIP3    H267382   0.293   4.343   6.442 -0.7568 -0.9695  2.1169
15323TIP3   OH267383   0.764   0.515   5.724 -0.7987 -0.2988 -0.1102
15323TIP3    H167384   0.742   0.553   5.809 -4.3386 -0.0724 -0.9957
15323TIP3    H267385   0.750   0.421   5.735  1.0110 -0.5824  0.1158
15324TIP3   OH267386   5.696   6.270   0.464 -0.6952  0.0801 -0.1729
15324TIP3    H167387   5.706   6.341   0.400 -1.7255 -0.3922 -0.8892
15324TIP3    H267388   5.672   6.194   0.411  1.3225 -1.0731  0.4825
15325TIP3   OH267389   1.535   6.621  17.177  0.0721 -0.3646  1.0610
15325TIP3    H167390   1.454   6.632  17.127 -0.0992  0.1789  1.4467
15325TIP3    H267391   1.515   6.551  17.239  0.2803 -1.0319  0.3863
15326TIP3   OH267392   5.255   2.048   5.440 -0.2440  0.2489  0.2370
15326TIP3    H167393   5.348   2.049   5.416 -0.4632 -0.3795 -0.6941
15326TIP3    H267394   5.233   2.140   5.455  0.8196  0.2975  1.6956
15327TIP3   OH267395   6.418   5.421   3.243  0.1927  0.4452  0.0672
15327TIP3    H167396   6.389   5.489   3.304 -0.2073  0.8210 -0.5332
15327TIP3    H267397   6.352   5.420   3.174 -0.0698 -0.8904  0.3066
15328TIP3   OH267398   2.691   0.975   1.007 -0.0949  0.5420 -0.8393
15328TIP3    H167399   2.597   0.958   1.014  0.0771 -0.0241  0.3921
15328TIP3    H267400   2.726   0.899   0.959 -0.0255 -0.1662  0.3035
15329TIP3   OH267401   6.031   5.348   1.176  0.3033 -0.4603 -0.1661
15329TIP3    H167402   6.023   5.406   1.252  2.7803 -1.1848  0.7509
15329TIP3    H267403   5.958   5.287   1.184 -0.1242  0.1741  0.9946
15330TIP3   OH267404   1.477   0.616  11.081  0.1060 -0.4363  0.1701
15330TIP3    H167405   1.540   0.597  11.012  1.4695 -1.6180  1.6732
15330TIP3    H267406   1.415   0.544  11.078 -0.3188 -0.0619 -0.3184
15331TIP3   OH267407   0.581   2.159   4.650  0.3754 -0.0252  0.5118
15331TIP3    H167408   0.499   2.108   4.651  0.4759 -0.1876  0.5067
15331TIP3    H267409   0.578   2.209   4.732  0.8102 -0.9007  1.0802
15332TIP3   OH267410   3.138   2.431   4.628  0.2451 -0.6551 -0.6613
15332TIP3    H167411   3.193   2.484   4.686 -0.3221 -1.8787  1.0876
15332TIP3    H267412   3.111   2.491   4.559 -1.4690  1.8078  1.9058
15333TIP3   OH267413   4.132   6.657  11.312 -0.0644  0.0034 -0.6149
15333TIP3    H167414   4.138   6.751  11.328  0.0292 -0.3747  2.0600
15333TIP3    H267415   4.040   6.641  11.290 -0.8723  0.4112  2.0644
15334TIP3   OH267416   3.126   6.039  14.163 -0.5832  0.0492 -0.4350
15334TIP3    H167417   3.142   6.099  14.090 -0.2868 -0.1521 -0.5345
15334TIP3    H267418   3.161   6.085  14.239 -0.8611  0.2438 -0.4230
15335TIP3   OH267419   5.465   3.453   3.163  0.0799 -0.7596  0.1779
15335TIP3    H167420   5.396   3.388   3.175  0.4485 -1.0822  0.5733
15335TIP3    H267421   5.478   3.492   3.249  2.2749 -2.6313  0.7856
15336TIP3   OH267422   0.785   3.162   0.487  0.2714  0.4591  0.0728
15336TIP3    H167423   0.705   3.177   0.437 -0.9244 -0.5569  1.5657
15336TIP3    H267424   0.778   3.220   0.563  1.8308  1.6405 -0.6231
15337TIP3   OH267425   0.518   6.207   4.718 -0.5845 -0.0136  0.3684
15337TIP3    H167426   0.509   6.120   4.758 -0.5068 -0.6820 -1.0028
15337TIP3    H267427   0.600   6.202   4.669 -0.0788  1.1812  1.0684
15338TIP3   OH267428   5.355   2.138   4.494 -0.1374  0.2953 -0.3427
15338TIP3    H167429   5.346   2.085   4.414  0.0240  0.9461 -0.8056
15338TIP3    H267430   5.414   2.209   4.468  1.4776 -0.5369  0.8936
15339TIP3   OH267431   5.854   1.688  14.121 -0.0744  0.2704 -0.2905
15339TIP3    H167432   5.846   1.707  14.215 -0.4862 -0.4865 -0.1585
15339TIP3    H267433   5.849   1.773  14.079 -0.2563  0.5891  0.3557
15340TIP3   OH267434   6.313   2.937  14.542  0.1877  0.1465 -0.3049
15340TIP3    H167435   6.281   2.949  14.631 -1.0081  1.4367 -0.8607
15340TIP3    H267436   6.356   3.020  14.521  1.1548 -0.4287 -0.6739
15341TIP3   OH267437   3.768   5.344   0.803 -0.0969  0.2615  0.3508
15341TIP3    H167438   3.779   5.262   0.851 -1.6710 -0.9289 -1.1703
15341TIP3    H267439   3.675   5.365   0.812  0.2370  1.8024  0.5297
15342TIP3   OH267440   6.693   4.466  12.917  0.1897 -0.3646 -0.0908
15342TIP3    H167441   6.620   4.405  12.926 -0.4123  0.2205 -0.9053
15342TIP3    H267442   6.771   4.410  12.919 -0.3372 -1.1200 -0.4311
15343TIP3   OH267443   5.339   1.242   1.152 -0.7773 -0.4510  0.4508
15343TIP3    H167444   5.276   1.283   1.210 -0.1775  0.2696  0.6071
15343TIP3    H267445   5.406   1.207   1.211 -0.5148 -0.3159  0.2346
15344TIP3   OH267446   3.413   5.690  16.533  0.8101 -0.7626 -0.2775
15344TIP3    H167447   3.400   5.635  16.610  1.1342  0.3468  0.5925
15344TIP3    H267448   3.364   5.770  16.552  1.4394 -0.2093 -0.9252
15345TIP3   OH267449   4.618   4.996  12.911  0.6363  0.1106 -0.0713
15345TIP3    H167450   4.678   5.001  12.985 -1.0111 -0.1001  1.3506
15345TIP3    H267451   4.618   5.083  12.873  1.8525  0.0988 -0.1403
15346TIP3   OH267452   4.759   5.827   3.191 -0.6530  0.3844  0.3012
15346TIP3    H167453   4.837   5.859   3.237 -0.0868 -0.4237 -0.0802
15346TIP3    H267454   4.701   5.796   3.261 -0.6754  1.0492  0.5904
15347TIP3   OH267455   2.584   5.793  14.024  0.1013 -0.2286 -0.5906
15347TIP3    H167456   2.642   5.759  13.955 -0.8150  0.4116 -1.7147
15347TIP3    H267457   2.500   5.808  13.979 -0.2159  1.2160  0.4195
15348TIP3   OH267458   3.983   0.354  14.038 -0.3351 -0.2940 -0.3750
15348TIP3    H167459   4.025   0.402  14.109 -0.6567  2.8542 -2.0885
15348TIP3    H267460   4.054   0.308  13.994  0.1318 -0.8059  0.8792
15349TIP3   OH267461   0.954   0.659  14.289  0.4547  0.0074 -0.1194
15349TIP3    H167462   0.881   0.688  14.234 -0.7391  0.4040  1.5675
15349TIP3    H267463   1.028   0.653  14.230 -1.0244 -0.7841 -1.9863
15350TIP3   OH267464   3.861   5.071  15.065 -0.3219 -0.1681  0.4048
15350TIP3    H167465   3.941   5.020  15.077 -0.4390  0.0738  2.6296
15350TIP3    H267466   3.868   5.105  14.976  2.4041  0.4107  0.7393
15351TIP3   OH267467   1.265   3.627   1.602  0.6831 -0.0388  0.9627
15351TIP3    H167468   1.310   3.678   1.669  0.8425 -2.2151  2.6090
15351TIP3    H267469   1.220   3.558   1.650  0.3142 -1.3393 -1.1277
15352TIP3   OH267470   3.213   5.447  14.292  0.1112  0.3757 -0.3297
15352TIP3    H167471   3.148   5.496  14.341 -0.5029 -0.8282  0.1103
15352TIP3    H267472   3.229   5.499  14.214 -1.1509  0.8520 -0.2946
15353TIP3   OH267473   1.905   6.184  15.027  0.0544 -0.0620  0.4186
15353TIP3    H167474   1.846   6.123  14.984 -0.2840  1.0423 -0.7364
15353TIP3    H267475   1.987   6.136  15.036 -0.1842 -0.6729 -0.5170
15354TIP3   OH267476   2.148   5.365  14.483  0.1124 -0.6881  0.0174
15354TIP3    H167477   2.154   5.459  14.468 -0.3966 -0.6826 -0.1601
15354TIP3    H267478   2.184   5.352  14.571  1.5613 -0.5126 -0.5153
15355TIP3   OH267479   1.211   0.906   1.071  0.1593 -0.3683  0.3161
15355TIP3    H167480   1.159   0.826   1.076  0.2070 -0.4721 -0.5491
15355TIP3    H267481   1.153   0.975   1.104  0.1239 -0.7557  1.0811
15356TIP3   OH267482   1.888   1.525   2.006 -0.3525  0.5597 -0.1309
15356TIP3    H167483   1.945   1.482   1.942  1.0325  0.0952  1.3605
15356TIP3    H267484   1.825   1.573   1.952 -0.0996 -0.8960 -1.8558
15357TIP3   OH267485   4.143   1.720   4.758 -0.0918  0.4919 -0.0001
15357TIP3    H167486   4.146   1.631   4.794 -1.6296  0.1388 -0.6532
15357TIP3    H267487   4.167   1.709   4.666  2.0277  1.1285  0.4287
15358TIP3   OH267488   5.160   2.324   1.694 -0.1179  0.5312  0.3288
15358TIP3    H167489   5.250   2.344   1.721  0.9690 -1.5646 -1.4193
15358TIP3    H267490   5.162   2.322   1.599 -1.9878  0.2859  0.2461
15359TIP3   OH267491   1.956   0.544   1.302 -0.3520 -0.2223  0.3335
15359TIP3    H167492   1.879   0.516   1.352 -0.2089  1.0271  1.3084
15359TIP3    H267493   1.942   0.507   1.215 -0.6491 -2.4255  1.2259
15360TIP3   OH267494   1.696   3.007   3.476  0.0448  0.3237  0.4762
15360TIP3    H167495   1.631   3.050   3.532  1.2497  0.1032  2.1227
15360TIP3    H267496   1.659   2.920   3.458 -0.8358  0.7771 -0.0048
15361TIP3   OH267497   0.873   5.613  13.964  0.2550 -0.4263 -0.4558
15361TIP3    H167498   0.932   5.631  14.037 -0.9045 -0.3659  0.4959
15361TIP3    H267499   0.821   5.692  13.954 -1.0648 -1.1843  0.0997
15362TIP3   OH267500   0.275   0.976  13.447 -0.6325  0.5568 -0.3242
15362TIP3    H167501   0.203   0.951  13.505 -0.3218  0.2132 -0.0769
15362TIP3    H267502   0.308   1.058  13.484 -1.0994  0.8854 -0.6271
15363TIP3   OH267503   3.216   2.910   5.067  0.1675  0.1120  0.1836
15363TIP3    H167504   3.274   2.909   5.143  0.2279 -0.4723  0.1316
15363TIP3    H267505   3.246   2.837   5.013 -1.3603 -0.9442  0.7036
15364TIP3   OH267506   6.581   4.649  16.883  0.5539 -0.0065 -0.2890
15364TIP3    H167507   6.560   4.714  16.816  0.5309  0.1637 -0.1154
15364TIP3    H267508   6.672   4.666  16.905  0.5912 -0.1282 -0.3500
15365TIP3   OH267509   2.761   4.806  16.496 -0.0738  0.3695 -0.0630
15365TIP3    H167510   2.825   4.877  16.485 -0.4447  0.6321 -0.5715
15365TIP3    H267511   2.684   4.850  16.533 -0.0971  0.1246  0.1790
15366TIP3   OH267512   6.720   3.367  14.972 -0.5720  0.1774 -0.3513
15366TIP3    H167513   6.726   3.427  15.046 -1.2098  1.1325 -1.0380
15366TIP3    H267514   6.645   3.400  14.921  0.8822  0.6168 -2.3237
15367TIP3   OH267515   5.343   6.443   1.457  0.1057  0.0150 -0.7480
15367TIP3    H167516   5.425   6.402   1.484 -0.4479  0.7338  2.4342
15367TIP3    H267517   5.275   6.388   1.495 -0.7040  1.9775  0.8510
15368TIP3   OH267518   6.138   5.249  15.988  0.2677  0.1213  0.4222
15368TIP3    H167519   6.045   5.250  15.964  0.4329 -1.7971 -0.4133
15368TIP3    H267520   6.164   5.341  15.983 -1.5788  0.7091  0.7153
15369TIP3   OH267521   6.621   1.411   2.510  0.5654  0.1441 -0.0015
15369TIP3    H167522   6.679   1.449   2.577 -0.4185  1.7512 -0.0070
15369TIP3    H267523   6.538   1.396   2.556  0.3120 -0.0492 -0.5237
15370TIP3   OH267524   1.490   0.829   1.109 -0.2286 -0.0031  0.2100
15370TIP3    H167525   1.476   0.886   1.033 -0.0605  1.0962  0.9805
15370TIP3    H267526   1.403   0.818   1.147 -0.0869  0.8184  0.7988
15371TIP3   OH267527   5.072   4.694  11.845 -0.0701  0.2318 -0.1855
15371TIP3    H167528   5.046   4.738  11.926  2.1288  0.9554  0.1753
15371TIP3    H267529   5.167   4.705  11.841  0.0936 -1.4067 -1.9322
15372TIP3   OH267530   0.718   0.375  14.242 -0.5262  0.2272  0.4458
15372TIP3    H167531   0.719   0.297  14.186 -1.8377  0.0094  0.6886
15372TIP3    H267532   0.626   0.388  14.263 -0.0876  0.3333  2.5355
15373TIP3   OH267533   4.868   1.794   1.706 -0.3018  0.2217 -0.1752
15373TIP3    H167534   4.803   1.770   1.771  1.4598 -2.7632  0.6746
15373TIP3    H267535   4.834   1.759   1.624 -0.8548  0.8334 -0.2179
15374TIP3   OH267536   4.140   4.280   3.600  0.5348  0.2993  0.1135
15374TIP3    H167537   4.173   4.326   3.677  0.3198  1.2483 -0.3403
15374TIP3    H267538   4.163   4.338   3.527 -0.8346  0.2865 -0.3535
15375TIP3   OH267539   0.871   3.907   4.005 -0.1318 -0.3137  0.0741
15375TIP3    H167540   0.959   3.941   3.987 -0.7800  1.4003 -0.0579
15375TIP3    H267541   0.885   3.834   4.065  1.2850  0.8692  1.2677
15376TIP3   OH267542   0.076   5.390  15.723 -0.3124 -0.2304 -0.1061
15376TIP3    H167543   0.015   5.393  15.649  1.4633  1.3314 -1.6272
15376TIP3    H267544   0.040   5.453  15.785 -0.2872  0.7256 -1.0159
15377TIP3   OH267545   5.754   5.108  13.411  0.1398  0.6850  0.3610
15377TIP3    H167546   5.698   5.042  13.452 -0.2444  0.9439  0.2485
15377TIP3    H267547   5.788   5.064  13.333 -2.9834  1.7461 -1.7917
15378TIP3   OH267548   6.612   0.726   6.027  0.0622  0.1185 -0.0564
15378TIP3    H167549   6.668   0.755   6.099  2.9003  0.9006 -2.3769
15378TIP3    H267550   6.616   0.630   6.030  2.2624  0.1381 -0.5831
15379TIP3   OH267551   5.789   6.642   4.524 -0.1882 -0.0264 -0.0315
15379TIP3    H167552   5.831   6.557   4.533 -0.0233  0.0214 -0.3129
15379TIP3    H267553   5.784   6.676   4.613  0.6813  0.1112 -0.0256
15380TIP3   OH267554   5.827   3.326  16.091 -0.4129  0.0148 -0.0247
15380TIP3    H167555   5.890   3.257  16.109 -0.6161  0.2463  1.7838
15380TIP3    H267556   5.874   3.407  16.111 -0.6583  0.3081 -0.6217
15381TIP3   OH267557   5.986   5.951  13.103 -0.0445  0.4368  0.1957
15381TIP3    H167558   5.966   5.859  13.084  1.8572 -0.0161  0.1545
15381TIP3    H267559   5.995   5.954  13.198 -0.0745  0.5652  0.1942
15382TIP3   OH267560   5.347   2.335  15.924 -0.1902 -0.5029 -0.7069
15382TIP3    H167561   5.264   2.331  15.972  0.4336 -1.7640  0.3280
15382TIP3    H267562   5.410   2.290  15.980  1.0416 -0.2335 -1.8112
15383TIP3   OH267563   5.498   0.337  15.334 -0.0024  0.5064 -0.4722
15383TIP3    H167564   5.426   0.274  15.328  0.7854 -0.5062  0.1216
15383TIP3    H267565   5.541   0.333  15.248 -0.1907  0.5168 -0.5655
15384TIP3   OH267566   3.598   2.795  14.244  0.7014  0.0193 -0.3008
15384TIP3    H167567   3.550   2.826  14.321  0.6497 -0.5101 -0.1184
15384TIP3    H267568   3.670   2.742  14.280  1.5078  0.8996 -0.5632
15385TIP3   OH267569   2.130   1.288   2.302  0.1551  0.8249  0.6556
15385TIP3    H167570   2.130   1.382   2.287  1.1700  0.5350 -1.5380
15385TIP3    H267571   2.107   1.250   2.217 -1.2672 -0.9133  1.7317
15386TIP3   OH267572   2.547   1.026   3.808 -0.2857  0.2225 -0.1950
15386TIP3    H167573   2.538   0.947   3.754 -0.9706 -1.1410  1.8067
15386TIP3    H267574   2.463   1.072   3.797 -0.5695 -0.2450  0.0011
15387TIP3   OH267575   3.106   6.341  15.811 -0.4532 -0.0383  0.2314
15387TIP3    H167576   3.173   6.378  15.868  0.2160 -0.4715 -0.2508
15387TIP3    H267577   3.103   6.248  15.833  1.9414 -0.8763 -2.3717
15388TIP3   OH267578   5.424   0.261  11.991 -0.3076 -0.0194 -0.6465
15388TIP3    H167579   5.485   0.332  11.973  1.4812 -1.6518 -1.3101
15388TIP3    H267580   5.459   0.217  12.068 -1.6411  0.0357  0.0302
15389TIP3   OH267581   6.564   5.156  12.589 -0.4864 -0.1221  0.3509
15389TIP3    H167582   6.611   5.085  12.544  0.6202  0.5138  0.4869
15389TIP3    H267583   6.612   5.169  12.671 -1.3888 -0.0044  0.8769
15390TIP3   OH267584   5.630   4.144   2.628  1.1364 -0.0796 -0.6869
15390TIP3    H167585   5.667   4.056   2.632  0.8091 -0.2914 -1.9155
15390TIP3    H267586   5.578   4.145   2.548  0.5425  1.0069 -0.3123
15391TIP3   OH267587   5.498   3.348   2.362 -0.9173 -0.0721 -0.1545
15391TIP3    H167588   5.464   3.428   2.321  2.5414  1.3955 -0.5201
15391TIP3    H267589   5.498   3.283   2.292 -0.1969  0.7919 -0.9855
15392TIP3   OH267590   1.056   3.588  13.852  0.4480  0.4429  0.5712
15392TIP3    H167591   1.071   3.497  13.826  1.8874  0.7341  0.3313
15392TIP3    H267592   0.973   3.612  13.809  0.7906 -0.3078 -0.5387
15393TIP3   OH267593   4.619   3.918   4.620 -0.0097  0.8707 -0.0407
15393TIP3    H167594   4.616   3.986   4.687 -3.4189 -0.4592  1.4371
15393TIP3    H267595   4.536   3.928   4.573 -0.1578 -1.5788 -0.4179
15394TIP3   OH267596   2.864   0.842   2.633 -0.6446  0.3327  0.3792
15394TIP3    H167597   2.780   0.797   2.624 -0.5528  0.2064  0.1220
15394TIP3    H267598   2.843   0.934   2.619 -0.6138  0.2119 -0.5547
15395TIP3   OH267599   1.124   3.365   3.572  0.0915 -0.4419  0.2282
15395TIP3    H167600   1.167   3.446   3.545 -1.5039 -0.4453 -2.7693
15395TIP3    H267601   1.109   3.317   3.490 -3.3981 -1.4886  1.3028
15396TIP3   OH267602   3.891   3.003   4.478 -0.2176  0.0862  0.1630
15396TIP3    H167603   3.981   3.004   4.446  0.7001  1.5662  2.4815
15396TIP3    H267604   3.861   3.094   4.469 -1.3163 -0.2930 -0.1621
15397TIP3   OH267605   6.268   1.558  13.839  0.0710  0.8317  0.5295
15397TIP3    H167606   6.189   1.514  13.811 -0.1117  0.4082  1.6382
15397TIP3    H267607   6.331   1.544  13.768 -0.4800  0.1575  0.1693
15398TIP3   OH267608   5.918   6.190   2.202 -0.3462 -0.1315 -0.5479
15398TIP3    H167609   5.860   6.126   2.243  0.5750 -1.0638 -0.6600
15398TIP3    H267610   5.975   6.220   2.273 -0.6083  0.3833 -0.5509
15399TIP3   OH267611   6.431   6.757  11.298  0.2007 -0.3352 -0.4228
15399TIP3    H167612   6.480   6.817  11.354  0.1062 -2.0997  1.6657
15399TIP3    H267613   6.491   6.737  11.226  0.7413  1.1437 -0.4177
15400TIP3   OH267614   5.852   0.197   2.494 -0.0580 -0.2369  0.1555
15400TIP3    H167615   5.763   0.195   2.529 -0.3950  0.0929 -0.6503
15400TIP3    H267616   5.898   0.128   2.542 -0.4189  0.3668  1.4133
15401TIP3   OH267617   0.978   4.872   4.186  0.3624  0.7073  0.1987
15401TIP3    H167618   0.950   4.803   4.247  1.0452  0.4460  0.2254
15401TIP3    H267619   0.998   4.825   4.104 -0.2052  1.0104 -0.1163
15402TIP3   OH267620   6.056   1.180  16.421 -0.7456 -0.1672 -0.4209
15402TIP3    H167621   6.048   1.149  16.511  0.1374  0.0181 -0.2672
15402TIP3    H267622   5.998   1.257  16.417 -0.9011 -0.2633 -0.0586
15403TIP3   OH267623   0.261   4.669   5.094  0.2955 -0.3559 -0.0871
15403TIP3    H167624   0.312   4.749   5.086  1.2758 -0.8039  1.2478
15403TIP3    H267625   0.183   4.683   5.039  1.7487  0.4056 -2.0397
15404TIP3   OH267626   5.278   1.772  11.551 -0.0075  0.2262 -0.0560
15404TIP3    H167627   5.370   1.749  11.544  0.3554  0.2696  3.0304
15404TIP3    H267628   5.233   1.711  11.492  1.9330  0.0304 -1.4110
15405TIP3   OH267629   5.487   4.133  11.522 -0.5820 -0.1116  0.3669
15405TIP3    H167630   5.416   4.154  11.461 -1.1765 -1.2236  0.6546
15405TIP3    H267631   5.508   4.041  11.505  2.6124  0.8021 -1.5303
15406TIP3   OH267632   1.725   4.573   0.890 -0.1672  0.1272 -0.1054
15406TIP3    H167633   1.664   4.580   0.817  0.0326 -0.8934 -0.3935
15406TIP3    H267634   1.767   4.487   0.878  3.0010  1.6526 -1.2519
15407TIP3   OH267635   2.531   6.120  16.502 -0.1480  0.3885 -0.4249
15407TIP3    H167636   2.607   6.065  16.484 -0.2322  0.0068  0.3569
15407TIP3    H267637   2.480   6.118  16.421  0.1988 -0.1171 -0.6314
15408TIP3   OH267638   5.725   2.217   5.073 -0.6764  0.6590 -0.3792
15408TIP3    H167639   5.771   2.148   5.121 -0.3839  1.0572 -0.0864
15408TIP3    H267640   5.728   2.293   5.131 -3.1685  0.2546  0.4076
15409TIP3   OH267641   5.057   3.218   1.552  0.2994  0.7929 -0.2978
15409TIP3    H167642   4.977   3.268   1.568 -0.3970  0.0850 -1.3763
15409TIP3    H267643   5.100   3.213   1.637 -2.2478 -1.2148  1.0485
15410TIP3   OH267644   2.688   2.541   4.012 -0.6810  0.3007  0.0114
15410TIP3    H167645   2.618   2.552   3.948 -2.0434  0.9102  1.5291
15410TIP3    H267646   2.719   2.451   3.999 -1.8322 -0.0207 -0.6195
15411TIP3   OH267647   1.844   1.387  12.491  0.0787  0.2072  0.1068
15411TIP3    H167648   1.807   1.301  12.471  1.2088 -0.2162 -0.2021
15411TIP3    H267649   1.821   1.442  12.416 -1.3366  0.4225  0.6581
15412TIP3   OH267650   0.957   4.106   1.312 -0.2667 -0.7815 -0.2056
15412TIP3    H167651   0.880   4.111   1.254 -0.2006  0.4283 -0.2136
15412TIP3    H267652   0.924   4.134   1.397  0.3653  0.8182 -0.4450
15413TIP3   OH267653   2.641   2.002  11.919  0.1739  0.3640 -0.1602
15413TIP3    H167654   2.574   1.997  11.987  0.1257  0.6655 -0.1864
15413TIP3    H267655   2.724   1.998  11.966  0.1392  0.2843 -0.1057
15414TIP3   OH267656   6.552   2.911   0.926 -0.0921 -0.3696 -0.0541
15414TIP3    H167657   6.514   2.917   1.013 -0.6121  1.3498 -0.3519
15414TIP3    H267658   6.567   3.002   0.900  0.8923 -0.8780 -1.3971
15415TIP3   OH267659   6.540   4.643   4.529 -0.1311  0.2214  0.0632
15415TIP3    H167660   6.487   4.567   4.506  0.2162 -0.6685  2.0705
15415TIP3    H267661   6.550   4.690   4.446 -1.4441 -1.2047 -0.9691
15416TIP3   OH267662   4.449   5.112  16.747  0.0382 -0.1578 -0.2838
15416TIP3    H167663   4.446   5.017  16.738  1.0629 -0.1435 -0.9771
15416TIP3    H267664   4.358   5.139  16.748 -0.2735 -1.1700  0.2137
15417TIP3   OH267665   0.541   1.929   4.371  0.2946 -0.5327  0.1051
15417TIP3    H167666   0.463   1.911   4.318 -0.0315  1.1972 -0.0477
15417TIP3    H267667   0.510   1.924   4.462  0.2684 -0.9203  0.0785
15418TIP3   OH267668   4.786   1.296  14.718 -0.6469 -0.1340  0.2009
15418TIP3    H167669   4.714   1.341  14.674 -1.8112 -0.7914  1.3637
15418TIP3    H267670   4.863   1.349  14.698 -1.6518  1.3075 -0.0502
15419TIP3   OH267671   3.893   4.282  16.541 -0.1352  0.3853 -0.5832
15419TIP3    H167672   3.926   4.358  16.590  0.1087 -0.1211  0.0499
15419TIP3    H267673   3.823   4.318  16.487 -0.7099  0.8955  0.4547
15420TIP3   OH267674   6.679   5.609  16.632  0.2346 -0.0916  0.4239
15420TIP3    H167675   6.674   5.560  16.714  3.6690 -1.4780 -0.0093
15420TIP3    H267676   6.731   5.553  16.574 -1.9868  0.8532 -2.7492
15421TIP3   OH267677   5.241   4.892  13.613  0.4957 -0.4499  0.8033
15421TIP3    H167678   5.269   4.939  13.692 -0.3804 -0.2492  1.0080
15421TIP3    H267679   5.165   4.942  13.582  1.3686  0.0149 -0.6983
15422TIP3   OH267680   1.658   3.079  16.464 -0.1417  0.1521  0.2383
15422TIP3    H167681   1.582   3.029  16.433 -1.4107  2.4630 -0.5636
15422TIP3    H267682   1.634   3.170  16.450  2.5186  0.9852  0.6706
15423TIP3   OH267683   0.777   0.268  12.923 -0.0374 -0.3358  0.5087
15423TIP3    H167684   0.829   0.306  12.852  0.6214  0.1550  1.2349
15423TIP3    H267685   0.689   0.304  12.910  0.1856  0.1099  0.2035
15424TIP3   OH267686   1.540   0.667   2.282  0.1482 -0.7021 -0.7562
15424TIP3    H167687   1.499   0.668   2.369 -0.9789  1.1605 -1.2646
15424TIP3    H267688   1.634   0.670   2.300 -0.0145 -1.5823  0.3850
15425TIP3   OH267689   1.745   0.832  14.037 -0.0632 -0.1897  0.0638
15425TIP3    H167690   1.813   0.877  13.987 -0.1453 -2.5338 -2.3684
15425TIP3    H267691   1.793   0.766  14.088 -0.3578 -0.6793 -0.2893
15426TIP3   OH267692   5.029   0.632   0.480 -0.5257 -0.3916  0.4892
15426TIP3    H167693   4.974   0.560   0.447 -0.3912 -0.2084 -0.1583
15426TIP3    H267694   4.972   0.681   0.539 -1.0029 -0.3116 -0.0297
15427TIP3   OH267695   0.915   2.548   0.407 -0.1045 -0.2498 -0.2711
15427TIP3    H167696   0.934   2.606   0.481 -0.3022 -1.2103  0.5615
15427TIP3    H267697   0.929   2.602   0.330 -0.6855  1.0222  0.4839
15428TIP3   OH267698   2.720   6.223   0.170 -0.5339 -0.6111  0.7407
15428TIP3    H167699   2.720   6.316   0.147  2.9306 -0.2135  1.8211
15428TIP3    H267700   2.775   6.182   0.104 -0.0580 -1.4609  1.6409
15429TIP3   OH267701   0.491   4.874  15.132 -0.4228 -0.5380  0.6739
15429TIP3    H167702   0.572   4.831  15.103  0.7194 -0.5945  3.5881
15429TIP3    H267703   0.421   4.816  15.103  0.6623 -1.3378 -0.4812
15430TIP3   OH267704   0.230   2.412  14.252 -0.3164 -0.3584 -0.0586
15430TIP3    H167705   0.188   2.402  14.338  1.9352 -1.7706  0.9462
15430TIP3    H267706   0.206   2.332  14.204 -0.3239 -0.2773 -0.1916
15431TIP3   OH267707   6.225   3.140   2.097 -0.1948  0.1876 -0.5409
15431TIP3    H167708   6.185   3.191   2.167  0.8092  0.5573 -0.2186
15431TIP3    H267709   6.273   3.071   2.142  1.5086  1.1702 -0.7546
15432TIP3   OH267710   5.823   3.219  12.446 -0.0132 -0.0191  0.2486
15432TIP3    H167711   5.890   3.157  12.417 -1.1372 -0.4845 -1.4899
15432TIP3    H267712   5.752   3.164  12.479 -0.1581  0.4171  0.6767
15433TIP3   OH267713   3.827   3.369  16.748  0.3857  0.0690 -0.0399
15433TIP3    H167714   3.796   3.337  16.833  0.1364 -0.8747 -0.4775
15433TIP3    H267715   3.810   3.463  16.750 -2.5570 -0.3679 -0.2453
15434TIP3   OH267716   3.239   1.490   0.325 -0.2507 -0.3800 -0.2825
15434TIP3    H167717   3.156   1.497   0.372  0.4818  1.0421  0.8667
15434TIP3    H267718   3.299   1.549   0.372  1.7080 -2.1000 -0.4760
15435TIP3   OH267719   0.235   5.454  13.356  0.3981  0.2655  0.5217
15435TIP3    H167720   0.272   5.383  13.304  0.2756  2.1830 -2.4119
15435TIP3    H267721   0.145   5.462  13.324  0.0951  1.0956  1.5469
15436TIP3   OH267722   4.306   3.859  16.142  0.5396 -0.3233 -0.0672
15436TIP3    H167723   4.248   3.828  16.072  1.4878  0.5230 -1.2833
15436TIP3    H267724   4.352   3.781  16.171 -2.0472 -1.2743  1.8376
15437TIP3   OH267725   2.718   2.924  12.311 -0.3104 -0.7247  0.1073
15437TIP3    H167726   2.797   2.960  12.352 -0.1700  0.7853 -1.3518
15437TIP3    H267727   2.683   2.862  12.375 -0.0009  1.3094  2.3663
15438TIP3   OH267728   0.145   0.605   6.562 -0.4660  0.3220 -0.4547
15438TIP3    H167729   0.199   0.673   6.603  0.6119 -0.7204 -0.0736
15438TIP3    H267730   0.083   0.579   6.630 -1.4061  1.4535 -0.8592
15439TIP3   OH267731   0.960   6.059   0.270 -0.1064 -0.0781 -0.0752
15439TIP3    H167732   0.994   6.104   0.348 -0.3708  0.4885 -0.2873
15439TIP3    H267733   0.887   6.008   0.303  0.0280 -0.1496  0.1186
15440TIP3   OH267734   2.351   5.655  16.600 -0.1892  0.1246 -0.3162
15440TIP3    H167735   2.260   5.654  16.571 -0.6667  1.0762  1.0021
15440TIP3    H267736   2.377   5.747  16.594 -0.2677  0.3543  1.9586
15441TIP3   OH267737   3.353   4.178   5.483  0.0086  0.4645  0.0214
15441TIP3    H167738   3.270   4.174   5.434  1.3292 -0.9435 -2.3039
15441TIP3    H267739   3.375   4.086   5.500  1.1028  0.8203  0.5878
15442TIP3   OH267740   1.353   1.477  13.643 -0.0142  0.3659  0.0369
15442TIP3    H167741   1.344   1.469  13.738 -0.2260 -2.5029 -0.1236
15442TIP3    H267742   1.446   1.461  13.626 -0.6673 -5.4029 -0.4092
15443TIP3   OH267743   1.543   4.321   6.418 -0.9044  0.1000  0.2315
15443TIP3    H167744   1.633   4.292   6.404 -0.5511  1.4741 -0.5059
15443TIP3    H267745   1.542   4.350   6.509 -0.5516  0.2098  0.2052
15444TIP3   OH267746   2.062   4.434   0.980 -0.4446  0.4160 -0.1596
15444TIP3    H167747   2.068   4.510   0.922  0.9942 -0.8822 -1.8340
15444TIP3    H267748   2.120   4.455   1.053  0.6108  0.6118 -1.0280
15445TIP3   OH267749   0.855   4.336   2.562  0.2483 -0.1616  0.0575
15445TIP3    H167750   0.930   4.358   2.616  0.0723 -0.3923  0.3972
15445TIP3    H267751   0.888   4.270   2.500  0.0193 -1.2364  1.0451
15446TIP3   OH267752   1.833   4.779   3.089 -0.0933  0.0773  0.0099
15446TIP3    H167753   1.788   4.841   3.031 -0.0335  0.2614  0.1594
15446TIP3    H267754   1.789   4.695   3.074  0.9569 -0.2434 -1.4780
15447TIP3   OH267755   2.839   5.697  14.266 -0.0787 -0.9802 -0.8183
15447TIP3    H167756   2.794   5.668  14.187 -1.1684 -2.3979  0.2465
15447TIP3    H267757   2.774   5.750  14.313 -0.5791 -2.6814  0.5264
15448TIP3   OH267758   4.542   2.809   6.220 -0.7061  0.4285  0.3100
15448TIP3    H167759   4.453   2.784   6.194 -0.0297 -1.7623 -0.1834
15448TIP3    H267760   4.575   2.732   6.267  0.4624  1.7402  1.7000
15449TIP3   OH267761   1.626   2.204   3.345 -0.2371 -0.2828 -0.2264
15449TIP3    H167762   1.699   2.265   3.352  1.0125 -1.6234 -1.1419
15449TIP3    H267763   1.644   2.137   3.411 -1.3597  0.0390  0.4504
15450TIP3   OH267764   1.092   2.877   5.651 -0.2711 -0.1981 -0.0215
15450TIP3    H167765   1.035   2.837   5.717 -0.7869  0.1338 -0.2667
15450TIP3    H267766   1.179   2.875   5.691 -0.7089  0.7582  1.0243
15451TIP3   OH267767   1.619   1.858  12.940 -0.2966  0.2103 -0.2359
15451TIP3    H167768   1.548   1.795  12.929 -0.6566  0.7957 -1.4914
15451TIP3    H267769   1.583   1.926  12.998 -0.5618  0.2189 -0.4121
15452TIP3   OH267770   1.142   0.625   5.683 -0.0020 -0.4199 -0.1997
15452TIP3    H167771   1.236   0.608   5.671 -0.5536 -2.5009 -2.4068
15452TIP3    H267772   1.106   0.619   5.595 -2.1908  0.7170  0.5570
15453TIP3   OH267773   5.856   4.499  12.349  0.2516  0.0714  0.8418
15453TIP3    H167774   5.869   4.582  12.304 -0.7241  0.2911  0.9314
15453TIP3    H267775   5.926   4.495  12.414  0.3647  0.7734  0.7657
15454TIP3   OH267776   4.694   0.726   1.744  0.1014  0.1945  0.0377
15454TIP3    H167777   4.701   0.797   1.809 -1.5229 -0.2884  0.7708
15454TIP3    H267778   4.679   0.647   1.796  0.8436 -0.5408 -0.8344
15455TIP3   OH267779   1.567   2.205  14.758 -0.1093  0.6432 -0.4282
15455TIP3    H167780   1.480   2.228  14.790 -0.0076  1.5450 -0.7755
15455TIP3    H267781   1.563   2.222  14.664 -0.0515 -0.8782 -0.7367
15456TIP3   OH267782   3.693   1.007   5.692  0.2082  0.6191 -0.2907
15456TIP3    H167783   3.782   0.972   5.687  0.8687  2.3558 -2.6113
15456TIP3    H267784   3.677   1.019   5.785  0.9641 -3.0298  0.4420
15457TIP3   OH267785   6.040   0.526   1.964  0.6458  0.3724  0.0672
15457TIP3    H167786   6.125   0.508   2.004  0.6726 -0.8763 -0.5030
15457TIP3    H267787   6.059   0.538   1.871  0.2492  0.4986  0.0004
15458TIP3   OH267788   0.544   1.104   6.360  0.3922 -0.3177 -0.2551
15458TIP3    H167789   0.451   1.114   6.381  0.2755 -0.1425 -0.8351
15458TIP3    H267790   0.576   1.194   6.350  0.3362 -0.3987 -1.2579
15459TIP3   OH267791   6.729   2.818   4.933  0.7008  0.6898 -1.0578
15459TIP3    H167792   6.807   2.873   4.920  1.4761 -0.0774  0.1784
15459TIP3    H267793   6.763   2.729   4.939 -0.2540  0.3656 -0.3217
15460TIP3   OH267794   1.706   4.596   2.682  0.0218 -0.2069  0.2663
15460TIP3    H167795   1.738   4.679   2.648  0.7423 -0.7708 -0.4758
15460TIP3    H267796   1.764   4.576   2.755  1.2607 -1.1033 -0.9185
15461TIP3   OH267797   5.852   4.471   4.127 -0.4884 -0.1857 -0.0124
15461TIP3    H167798   5.758   4.488   4.124 -0.8145 -1.4357  1.6364
15461TIP3    H267799   5.892   4.558   4.127 -1.7418  0.4291  1.0887
15462TIP3   OH267800   4.329   4.728   3.651  0.2505  0.1921 -0.0160
15462TIP3    H167801   4.425   4.728   3.643  0.2930  0.1217  0.4254
15462TIP3    H267802   4.302   4.814   3.621  0.8109  1.7806  3.5160
15463TIP3   OH267803   6.356   3.471  12.868 -0.5986  0.0420  0.2654
15463TIP3    H167804   6.332   3.452  12.778  1.2851  0.5374 -0.4065
15463TIP3    H267805   6.306   3.550  12.891  1.7083  2.2877 -1.7868
15464TIP3   OH267806   0.030   2.710   2.369  0.0648 -0.4478 -0.3687
15464TIP3    H167807   0.059   2.661   2.292 -1.4591 -0.1491 -1.1683
15464TIP3    H267808  -0.005   2.792   2.334  1.4804  0.7442  0.8590
15465TIP3   OH267809   0.287   3.971   5.111 -0.4980  0.0975 -0.1413
15465TIP3    H167810   0.243   4.053   5.088  0.0931  0.9714  1.6827
15465TIP3    H267811   0.237   3.937   5.185 -1.2117 -1.6526 -1.3593
15466TIP3   OH267812   0.316   4.206   3.634  0.6943  0.1876  0.6191
15466TIP3    H167813   0.411   4.195   3.626  0.7211 -0.4137  1.6045
15466TIP3    H267814   0.305   4.252   3.717  0.0150 -1.9245  1.7700
15467TIP3   OH267815   5.461   0.941   3.359 -0.5183 -0.3472 -0.1786
15467TIP3    H167816   5.416   0.889   3.292  1.4958 -2.0705 -0.3239
15467TIP3    H267817   5.431   0.904   3.442  0.9113 -1.8948 -0.2814
15468TIP3   OH267818   5.287   1.660  15.096  0.2865 -0.0455 -0.0897
15468TIP3    H167819   5.357   1.648  15.032  0.1907  0.1702 -0.2362
15468TIP3    H267820   5.309   1.599  15.167 -0.3996 -1.3823 -0.9735
15469TIP3   OH267821   3.116   2.358  13.441  0.0773 -0.0494  0.1619
15469TIP3    H167822   3.131   2.384  13.532  0.6573 -0.2812  0.1417
15469TIP3    H267823   3.175   2.414  13.391 -1.3632  1.1767 -0.2298
15470TIP3   OH267824   2.912   0.717   3.403  0.0459 -0.5568  1.1793
15470TIP3    H167825   3.006   0.702   3.417  0.5859  0.4291 -1.0061
15470TIP3    H267826   2.900   0.811   3.416 -0.1718 -0.2937 -0.6008
15471TIP3   OH267827   1.863   0.773  11.248 -1.1289 -0.1437 -0.0393
15471TIP3    H167828   1.887   0.734  11.164 -1.1109  0.5735 -0.3751
15471TIP3    H267829   1.778   0.814  11.233 -0.3805  1.4296 -0.2035
15472TIP3   OH267830   1.189   0.184  13.127 -0.1281  0.6342  0.1636
15472TIP3    H167831   1.197   0.277  13.106  1.3961  0.1514 -1.6865
15472TIP3    H267832   1.255   0.169  13.194 -1.0502  1.0391  1.1969
15473TIP3   OH267833   2.070   5.712   5.827  0.5000  0.2018 -0.2464
15473TIP3    H167834   1.999   5.770   5.855  1.9045  1.1261  1.5812
15473TIP3    H267835   2.148   5.747   5.868  1.6079 -2.3591  0.0589
15474TIP3   OH267836   4.302   2.465   0.070 -0.0414 -0.2940  0.4119
15474TIP3    H167837   4.352   2.384   0.054 -1.2602 -0.7778 -1.2362
15474TIP3    H267838   4.343   2.530   0.014 -1.5095 -0.8335 -1.3863
15475TIP3   OH267839   2.032   4.360  10.680  0.4530  0.5682  0.3196
15475TIP3    H167840   1.961   4.401  10.729  0.8641  2.6575 -0.7093
15475TIP3    H267841   2.111   4.384  10.727  0.6298 -0.1915  0.4268
15476TIP3   OH267842   5.188   4.240  15.563  0.0155  0.0517 -0.1359
15476TIP3    H167843   5.217   4.278  15.480  0.1747 -2.6866 -1.4400
15476TIP3    H267844   5.092   4.249  15.560  0.1441  2.3511  0.7001
15477TIP3   OH267845   5.493   6.432  13.759 -0.0603 -0.2681 -0.2996
15477TIP3    H167846   5.419   6.480  13.721  0.1980  0.9566  0.7094
15477TIP3    H267847   5.455   6.386  13.834 -0.1421 -1.0560 -0.8081
15478TIP3   OH267848   5.741   1.681   1.735  0.0218 -0.1182  0.3571
15478TIP3    H167849   5.799   1.723   1.671  0.1297  1.2628  1.3064
15478TIP3    H267850   5.681   1.629   1.682  0.6032  0.3547 -0.8156
15479TIP3   OH267851   4.246   2.160   5.813 -0.2929  0.0233  0.1532
15479TIP3    H167852   4.197   2.198   5.886 -0.0857 -0.8071  0.7289
15479TIP3    H267853   4.300   2.092   5.852  2.7300  2.0356 -0.1497
15480TIP3   OH267854   0.891   1.197  12.399 -0.0664 -0.2446  0.4355
15480TIP3    H167855   0.947   1.198  12.321 -1.6139 -0.3899 -0.7324
15480TIP3    H267856   0.815   1.145  12.373 -1.7455  1.6620  1.2126
15481TIP3   OH267857   6.635   1.644   3.836  0.5730  0.6299 -0.3266
15481TIP3    H167858   6.659   1.559   3.875 -0.3745  1.1619  1.5169
15481TIP3    H267859   6.648   1.631   3.742  0.0875 -1.6915 -0.1376
15482TIP3   OH267860   6.354   4.060   2.528  0.2356  0.2761 -0.0576
15482TIP3    H167861   6.298   4.109   2.588  0.3946  0.6690 -0.2203
15482TIP3    H267862   6.305   3.981   2.508 -0.0258  0.3674  0.2194
15483TIP3   OH267863   5.220   3.453   2.172 -0.3810 -0.1918 -0.6350
15483TIP3    H167864   5.136   3.461   2.127  0.2785 -1.1324 -2.0973
15483TIP3    H267865   5.213   3.370   2.220  0.0290 -0.7257 -1.4848
15484TIP3   OH267866   4.188   4.143   2.476 -0.3930  0.4242  0.5948
15484TIP3    H167867   4.146   4.148   2.561  0.1038 -1.2666  0.9759
15484TIP3    H267868   4.162   4.058   2.441  0.5094  0.5115 -0.3472
15485TIP3   OH267869   3.774   6.314   4.123  0.0664 -0.3568  0.2090
15485TIP3    H167870   3.847   6.339   4.181  0.7943 -1.6223 -0.1199
15485TIP3    H267871   3.763   6.220   4.139 -1.3391 -0.2267  0.0583
15486TIP3   OH267872   2.487   0.525   4.844  0.0062  0.2021 -0.1335
15486TIP3    H167873   2.431   0.600   4.824 -0.2147 -0.4169 -2.0445
15486TIP3    H267874   2.464   0.460   4.778 -1.2000 -2.3689  2.5595
15487TIP3   OH267875   4.049   2.308  15.867 -0.4864 -0.6268 -0.1974
15487TIP3    H167876   4.080   2.240  15.807  0.1964  0.2321 -0.8470
15487TIP3    H267877   3.991   2.362  15.814  0.8287  0.6786 -0.3923
15488TIP3   OH267878   5.998   0.982  11.372  0.2831 -0.2983  0.1060
15488TIP3    H167879   5.951   0.908  11.411  0.0240 -1.8974 -2.8472
15488TIP3    H267880   6.084   0.946  11.351  1.2602  1.2277  1.3724
15489TIP3   OH267881   3.269   5.334   2.767 -0.1405 -0.5374 -0.1257
15489TIP3    H167882   3.303   5.338   2.857  0.1120  0.7146 -0.2510
15489TIP3    H267883   3.212   5.411   2.761  0.3751 -0.2255 -1.2423
15490TIP3   OH267884   5.946   5.100  12.867 -0.1976 -0.5736  0.3533
15490TIP3    H167885   6.008   5.147  12.811  1.4204 -0.8431  1.8417
15490TIP3    H267886   5.924   5.021  12.817  1.4072 -0.9368  0.1650
15491TIP3   OH267887   2.452   5.305  10.541 -0.6260  0.1349 -0.0529
15491TIP3    H167888   2.425   5.365  10.472  0.3797  0.0140 -0.5596
15491TIP3    H267889   2.547   5.298  10.532 -0.6176 -0.8109  0.5803
15492TIP3   OH267890   0.940   1.476  12.383  0.1877  0.4247 -0.2772
15492TIP3    H167891   0.899   1.391  12.400  0.7155  0.0152 -1.0195
15492TIP3    H267892   1.002   1.488  12.455  0.0799  0.2037 -0.1484
15493TIP3   OH267893   2.231   6.037  15.697  0.1006  0.0897 -0.2081
15493TIP3    H167894   2.174   5.960  15.691  1.3403 -0.8308 -0.6080
15493TIP3    H267895   2.270   6.030  15.784  0.4116  0.1191 -0.3452
15494TIP3   OH267896   3.170   2.207  10.451  0.0605  0.4379 -0.2663
15494TIP3    H167897   3.152   2.129  10.504  1.9331 -0.4473 -0.8519
15494TIP3    H267898   3.246   2.247  10.491  0.9031  0.3020 -1.6606
15495TIP3   OH267899   4.098   5.924   0.062  0.7012 -0.4919  0.5760
15495TIP3    H167900   4.124   5.832   0.066  2.4886 -0.0925 -0.6419
15495TIP3    H267901   4.117   5.951  -0.028 -1.9519  0.5049  0.2302
15496TIP3   OH267902   1.778   2.536   2.612  0.0386  0.4643 -0.3245
15496TIP3    H167903   1.687   2.517   2.636  0.1366  1.2680  0.7989
15496TIP3    H267904   1.791   2.627   2.639  0.5362  1.0903 -2.5083
15497TIP3   OH267905   5.542   1.762   1.257 -0.2896 -0.2196 -0.9071
15497TIP3    H167906   5.511   1.849   1.281  1.0667 -0.1064  0.6006
15497TIP3    H267907   5.635   1.773   1.240 -0.1188 -1.3518 -0.8126
15498TIP3   OH267908   5.485   2.905  15.852 -0.4797 -0.0718  0.4682
15498TIP3    H167909   5.453   2.831  15.799 -0.9242  0.6625 -0.3034
15498TIP3    H267910   5.415   2.970  15.846 -0.1750  0.3412  1.3109
15499TIP3   OH267911   0.454   1.584  12.034 -0.1707 -0.3161  0.6952
15499TIP3    H167912   0.479   1.672  12.060 -0.9621  0.5527 -1.2718
15499TIP3    H267913   0.360   1.579  12.053 -0.2422 -0.5353  0.2931
15500TIP3   OH267914   1.557   1.903   3.168  0.3859  0.3303  0.4157
15500TIP3    H167915   1.570   1.903   3.073  1.3451 -0.6699  0.5291
15500TIP3    H267916   1.586   1.989   3.197  1.2399  0.2068 -0.0534
15501TIP3   OH267917   2.052   2.506   6.597  0.0518  0.0683 -0.0866
15501TIP3    H167918   1.968   2.461   6.601 -0.9702  1.8358 -1.0364
15501TIP3    H267919   2.031   2.598   6.585  2.0858  0.8699  1.6702
15502TIP3   OH267920   0.893   0.433  17.354 -0.2147 -0.3376 -0.2746
15502TIP3    H167921   0.911   0.344  17.324  0.8919 -0.2943  0.2429
15502TIP3    H267922   0.803   0.429  17.387 -1.1257 -0.6286 -2.5939
15503TIP3   OH267923   0.980   5.251   5.186 -0.1129 -0.0268 -0.5822
15503TIP3    H167924   1.064   5.291   5.210 -1.6384  2.9611  0.2912
15503TIP3    H267925   0.951   5.302   5.110 -3.0755  2.1154  1.7655
15504TIP3   OH267926   3.370   0.223  17.305 -0.7943 -0.4448 -0.0532
15504TIP3    H167927   3.326   0.184  17.230  0.2705  0.5395 -1.2428
15504TIP3    H267928   3.323   0.305  17.320  0.4872  0.5577 -1.2605
15505TIP3   OH267929   4.780   2.069   4.917  0.3244  0.4604 -0.1602
15505TIP3    H167930   4.735   2.033   4.994 -0.8113  1.2579 -0.4429
15505TIP3    H267931   4.844   2.130   4.954 -1.8658  2.7182  0.1308
15506TIP3   OH267932   2.161   5.905  16.800 -0.4048  0.7521 -0.0036
15506TIP3    H167933   2.145   5.901  16.894 -1.1591  0.6232 -0.1340
15506TIP3    H267934   2.078   5.935  16.763 -0.2186  0.4640 -0.6619
15507TIP3   OH267935   5.516   4.016  17.331  0.2434  0.2680 -0.5612
15507TIP3    H167936   5.592   3.990  17.278  0.4172 -1.4246  0.4384
15507TIP3    H267937   5.547   4.092  17.380  1.7054 -1.0258  0.6227
15508TIP3   OH267938   3.736   2.338   2.916  0.3300  0.1753 -0.5633
15508TIP3    H167939   3.705   2.364   2.829 -0.7499 -1.0311 -0.5587
15508TIP3    H267940   3.806   2.275   2.898  0.7853  0.6670 -0.5490
15509TIP3   OH267941   6.715   0.287  12.291 -0.4232 -0.0951 -0.3170
15509TIP3    H167942   6.740   0.367  12.245 -1.4888 -0.3146 -1.3206
15509TIP3    H267943   6.794   0.261  12.339  0.3808  0.7402 -1.1507
15510TIP3   OH267944   2.881   2.907   3.835 -0.6132 -0.1978  0.1309
15510TIP3    H167945   2.901   2.829   3.784  0.8531 -0.2386  0.7090
15510TIP3    H267946   2.821   2.876   3.903 -1.0749 -0.5312 -0.4192
15511TIP3   OH267947   1.514   4.749   2.807 -0.1238  0.5815 -0.3851
15511TIP3    H167948   1.433   4.702   2.828  1.0825 -1.3842  0.1379
15511TIP3    H267949   1.563   4.689   2.751  1.5149  1.1826  0.3523
15512TIP3   OH267950   1.375   0.974   3.846  0.1129  0.0180 -0.2966
15512TIP3    H167951   1.323   0.942   3.773  0.2185  0.4590 -0.5658
15512TIP3    H267952   1.439   0.904   3.861 -0.0169 -0.1503 -0.5093
15513TIP3   OH267953   5.814   0.031   1.771  0.0769  0.1479  0.6711
15513TIP3    H167954   5.876   0.005   1.703  1.8086 -0.5326  2.4006
15513TIP3    H267955   5.852   0.110   1.809 -2.2192  2.0760 -0.7732
15514TIP3   OH267956   5.437   4.280  15.681 -0.0482 -0.1035  0.5056
15514TIP3    H167957   5.437   4.305  15.774 -1.0229 -1.7474  0.9901
15514TIP3    H267958   5.348   4.251  15.664  0.0384  0.4608 -1.0556
15515TIP3   OH267959   2.683   4.237  15.936  0.1742 -0.0527 -0.4996
15515TIP3    H167960   2.773   4.261  15.959 -0.1927 -0.1436  1.1420
15515TIP3    H267961   2.633   4.248  16.017 -1.7440  2.0313 -1.8169
15516TIP3   OH267962   5.399   6.305  12.071 -0.1032  0.0496  0.2611
15516TIP3    H167963   5.324   6.361  12.093 -0.2616  1.1626 -2.7279
15516TIP3    H267964   5.375   6.219  12.108 -2.1472  0.7358  0.6840
15517TIP3   OH267965   6.730   0.488   3.779  0.1644 -0.3254 -0.7694
15517TIP3    H167966   6.643   0.515   3.807  0.9629  3.0003 -1.0289
15517TIP3    H267967   6.728   0.493   3.684  0.9490  1.2827 -0.7515
15518TIP3   OH267968   2.693   2.335  13.102 -0.5029  0.3733  0.5762
15518TIP3    H167969   2.672   2.263  13.162  1.5670  0.4337  1.4501
15518TIP3    H267970   2.607   2.369  13.076 -1.5896 -2.5950 -0.1975
15519TIP3   OH267971   4.167   0.377   5.421  0.3593 -0.3240 -0.3411
15519TIP3    H167972   4.192   0.298   5.469 -0.0934  0.6562  1.6369
15519TIP3    H267973   4.156   0.444   5.489  0.9616  1.5244 -1.9665
15520TIP3   OH267974   2.102   6.706   3.643  0.2832 -0.3850  0.0635
15520TIP3    H167975   2.016   6.747   3.647  0.3986 -0.0265 -0.8912
15520TIP3    H267976   2.104   6.648   3.720 -0.1711  0.8062  1.0105
15521TIP3   OH267977   5.976   4.575   3.536  0.2903  0.6136  0.5254
15521TIP3    H167978   6.071   4.579   3.542  0.2849 -0.0915  1.2235
15521TIP3    H267979   5.956   4.482   3.533 -0.3534  0.7674 -0.1678
15522TIP3   OH267980   3.559   6.525   5.796  0.3605 -0.2351 -0.4168
15522TIP3    H167981   3.500   6.545   5.870  0.7071  0.5222 -0.3386
15522TIP3    H267982   3.572   6.609   5.753  0.4026 -0.6255 -1.1702
15523TIP3   OH267983   5.403   1.092  11.462 -0.4113 -0.5439  0.6443
15523TIP3    H167984   5.350   1.031  11.411  1.4365 -0.5264 -1.4139
15523TIP3    H267985   5.343   1.165  11.480 -0.8003  0.2160 -2.9689
15524TIP3   OH267986   1.976   4.576  11.754 -0.3750  0.6822 -0.2749
15524TIP3    H167987   1.924   4.602  11.679  0.3274 -0.0697 -1.0427
15524TIP3    H267988   2.047   4.640  11.757 -1.1310  1.5163  0.5805
15525TIP3   OH267989   5.985   4.707   4.198 -0.5316  0.2837 -0.2330
15525TIP3    H167990   6.054   4.765   4.165 -0.9679  0.6634 -0.4795
15525TIP3    H267991   6.017   4.681   4.285  1.0462 -1.4479 -1.2686
15526TIP3   OH267992   2.153   0.512  14.501 -0.8614 -0.3095 -0.0173
15526TIP3    H167993   2.063   0.524  14.470 -0.9077 -0.6307 -0.0123
15526TIP3    H267994   2.201   0.480  14.425 -0.7328 -0.0660 -0.0403
15527TIP3   OH267995   3.456   6.309  12.041  0.0128 -0.0258 -0.0330
15527TIP3    H167996   3.551   6.317  12.033  0.1314 -2.6777 -3.7702
15527TIP3    H267997   3.421   6.392  12.010  1.0868  0.5676  0.3200
15528TIP3   OH267998   5.815   5.057  16.996 -0.0888  0.4321 -0.0379
15528TIP3    H167999   5.904   5.035  17.021 -0.6009  0.7989  2.3076
15528TIP3    H268000   5.803   5.147  17.024 -1.4527  0.1060  0.5391
15529TIP3   OH268001   0.752   4.720  11.586  0.1796 -0.3220  0.2397
15529TIP3    H168002   0.719   4.731  11.675 -0.4958  1.4577 -0.1792
15529TIP3    H268003   0.826   4.780  11.581  1.3967 -1.7915  0.1372
15530TIP3   OH268004   1.989   5.573  12.336  0.1843 -0.2498 -0.3220
15530TIP3    H168005   1.993   5.668  12.345 -0.7268 -0.2348  0.0945
15530TIP3    H268006   1.953   5.559  12.248 -2.6639 -0.1040  0.7141
15531TIP3   OH268007   6.242   0.013   3.480  0.0695  0.2165  0.6062
15531TIP3    H168008   6.154   0.026   3.446  1.2077  0.4977 -2.5644
15531TIP3    H268009   6.269   0.100   3.510 -0.1180  0.5552 -0.1640
15532TIP3   OH268010   6.048   1.784   2.873  0.4334  0.5476 -0.0481
15532TIP3    H168011   6.105   1.780   2.796  1.6365  0.5703  0.8036
15532TIP3    H268012   6.027   1.692   2.892  1.2296  0.4363  0.3535
15533TIP3   OH268013   0.930   4.727   5.958  0.1524  0.5246  0.1171
15533TIP3    H168014   0.984   4.724   6.037  0.1062  2.6578  0.2830
15533TIP3    H268015   0.993   4.740   5.887  0.2699 -2.1478 -0.3611
15534TIP3   OH268016   0.025   3.369   2.943 -0.1409 -0.4010  0.6084
15534TIP3    H168017   0.025   3.310   3.019 -1.0435  0.7173  1.5119
15534TIP3    H268018   0.103   3.422   2.954 -1.4169  1.2834  2.0328
15535TIP3   OH268019   4.896   4.754   4.967  0.0517  0.4786 -0.0003
15535TIP3    H168020   4.950   4.702   5.026 -0.1607 -0.9815 -1.0480
15535TIP3    H268021   4.820   4.779   5.020 -0.4904 -1.4250  0.1914
15536TIP3   OH268022   3.519   6.441  16.287 -0.0042 -0.0461 -0.0536
15536TIP3    H168023   3.573   6.454  16.364  0.1002  1.5408 -0.3602
15536TIP3    H268024   3.456   6.374  16.312  0.8488 -0.4811  0.9637
15537TIP3   OH268025   3.653   3.786   3.321  0.0782 -0.2758  0.0547
15537TIP3    H168026   3.702   3.710   3.353  0.7776  0.5738  1.1029
15537TIP3    H268027   3.679   3.794   3.229 -0.9121 -1.9638 -0.4245
15538TIP3   OH268028   1.809   1.120   5.476  0.2596  0.8213 -0.6248
15538TIP3    H168029   1.758   1.040   5.491  1.1134  0.6002  1.5559
15538TIP3    H268030   1.892   1.090   5.439 -0.0785  0.8852 -1.4419
15539TIP3   OH268031   4.067   2.204  11.447  0.3806 -0.1138 -0.2457
15539TIP3    H168032   4.051   2.276  11.387  1.3465  1.3203  1.1250
15539TIP3    H268033   4.017   2.226  11.526  2.1637  0.1044  0.9028
15540TIP3   OH268034   3.361   0.084  16.318 -0.4426  0.3869  0.0685
15540TIP3    H168035   3.379   0.174  16.292  0.1088  0.7108  1.5282
15540TIP3    H268036   3.289   0.090  16.381 -1.6699 -0.3821 -1.1804
15541TIP3   OH268037   2.711   5.726  14.933 -0.0152 -0.0810 -0.2251
15541TIP3    H168038   2.730   5.793  15.000 -1.1539 -0.1139  0.1512
15541TIP3    H268039   2.622   5.747  14.903  0.0983 -0.6894 -0.9995
15542TIP3   OH268040   2.299   6.149  15.388  0.2722  0.0223 -0.3820
15542TIP3    H168041   2.247   6.069  15.391 -0.0974  0.2352 -1.0706
15542TIP3    H268042   2.334   6.157  15.477  0.4130 -0.9626 -0.3345
15543TIP3   OH268043   5.845   6.250   3.743 -0.1067  0.3425 -0.2649
15543TIP3    H168044   5.882   6.313   3.681  1.1203 -0.5882 -0.5383
15543TIP3    H268045   5.855   6.291   3.828  0.3625  0.6713 -0.4741
15544TIP3   OH268046   1.281   4.805  16.236 -0.0428 -0.1985  0.5014
15544TIP3    H168047   1.278   4.892  16.276 -0.0057 -0.5638  1.3318
15544TIP3    H268048   1.194   4.769  16.253  0.0409 -0.4324  0.4277
15545TIP3   OH268049   1.940   5.154  12.276  0.2821  0.1272 -0.0017
15545TIP3    H168050   2.034   5.168  12.276 -0.0619  3.2282  0.5931
15545TIP3    H268051   1.906   5.218  12.338 -2.2484 -0.6943 -0.4026
15546TIP3   OH268052   5.150   5.847  13.337  0.0484 -0.3722 -0.0657
15546TIP3    H168053   5.065   5.890  13.351 -0.2503 -0.3117 -1.7915
15546TIP3    H268054   5.139   5.760  13.375 -0.2314  0.1733  1.1416
15547TIP3   OH268055   2.187   1.947  16.841 -0.4706 -0.7023  0.6888
15547TIP3    H168056   2.096   1.970  16.824 -0.0743  0.1759 -0.3884
15547TIP3    H268057   2.208   1.990  16.924 -1.0182 -0.8855  0.9304
15548TIP3   OH268058   2.685   1.622  12.545 -0.2818 -0.3049  0.0768
15548TIP3    H168059   2.777   1.650  12.538 -0.3054 -0.4655 -0.9470
15548TIP3    H268060   2.689   1.527  12.533 -0.6694 -0.2087 -0.8857
15549TIP3   OH268061   0.422   0.109  15.279 -0.0978 -0.5038 -1.1915
15549TIP3    H168062   0.369   0.031  15.292 -2.0825  0.5704 -2.3363
15549TIP3    H268063   0.511   0.076  15.266 -0.1479 -2.2883  2.0800
15550TIP3   OH268064   4.843   4.661  15.474  0.7855 -0.2613 -0.1593
15550TIP3    H168065   4.882   4.748  15.469  0.3241 -0.0664 -0.4615
15550TIP3    H268066   4.917   4.601  15.478  1.1228  0.2058  1.3136
15551TIP3   OH268067   2.482   5.373   5.363  0.3361 -0.2201 -0.0471
15551TIP3    H168068   2.463   5.282   5.389 -2.0472  0.2407  0.0459
15551TIP3    H268069   2.460   5.376   5.270 -1.2768  0.6276  0.3238
15552TIP3   OH268070   5.830   6.066   4.651  0.0546  0.5708 -0.4493
15552TIP3    H168071   5.836   6.067   4.746  0.8531 -1.3376 -0.4499
15552TIP3    H268072   5.736   6.059   4.632 -0.0187 -0.3452  0.2279
15553TIP3   OH268073   5.512   6.697  13.457 -0.3184  0.1240 -0.1558
15553TIP3    H168074   5.454   6.674  13.529  0.4556 -1.2116  0.0767
15553TIP3    H268075   5.582   6.632  13.461  1.5617  2.0493 -0.0310
15554TIP3   OH268076   1.782   1.244   4.712  0.1163  0.5823 -0.0648
15554TIP3    H168077   1.825   1.189   4.778  0.4049 -0.4190 -1.0483
15554TIP3    H268078   1.715   1.188   4.673  0.0845  1.0845 -0.7601
15555TIP3   OH268079   2.458   1.173   2.440 -0.4431 -0.0905  0.1355
15555TIP3    H168080   2.488   1.251   2.487  0.1451  0.1668 -0.6369
15555TIP3    H268081   2.363   1.172   2.452 -0.4514  0.7355  0.1734
15556TIP3   OH268082   2.887   5.469   3.248  0.5745  0.0129 -1.2418
15556TIP3    H168083   2.868   5.456   3.155 -0.1965  0.9901 -1.2394
15556TIP3    H268084   2.861   5.387   3.289  0.7299 -0.3544 -1.8509
15557TIP3   OH268085   4.843   2.235   5.628  0.3087  0.1569 -0.0184
15557TIP3    H168086   4.845   2.305   5.563  1.7129  0.4927  0.3453
15557TIP3    H268087   4.862   2.278   5.711  1.5749 -0.6785  0.1626
15558TIP3   OH268088   3.555   1.145  13.399 -0.0470  0.4794  0.5285
15558TIP3    H168089   3.482   1.083  13.396 -1.4953  2.1391 -0.0817
15558TIP3    H268090   3.519   1.226  13.363  2.0026  1.4711  0.5897
15559TIP3   OH268091   5.262   4.462  11.305  0.2356 -0.5122  0.4799
15559TIP3    H168092   5.251   4.527  11.236  1.1211  0.8788  1.5692
15559TIP3    H268093   5.354   4.472  11.332  0.2787 -1.9800  0.9184
15560TIP3   OH268094   3.787   0.791   1.090 -0.2134 -0.0287  0.1018
15560TIP3    H168095   3.721   0.739   1.135 -0.5696  0.5675  0.2861
15560TIP3    H268096   3.870   0.761   1.126 -0.5615  1.9530  2.9137
15561TIP3   OH268097   3.442   1.740   6.839  0.1162  0.4573  0.2831
15561TIP3    H168098   3.490   1.714   6.760 -0.6944 -1.5849  0.3949
15561TIP3    H268099   3.371   1.795   6.806 -0.3433 -0.5498 -0.4887
15562TIP3   OH268100   3.441   2.746  17.022  0.1044 -0.1978 -0.4299
15562TIP3    H168101   3.460   2.823  16.968  1.9265  1.4441  2.2825
15562TIP3    H268102   3.526   2.702  17.031 -0.4070 -1.0988  0.1170
15563TIP3   OH268103   0.741   5.149   2.742 -0.6438  0.1915 -0.2067
15563TIP3    H168104   0.828   5.177   2.714 -0.1459 -0.6932  0.4375
15563TIP3    H268105   0.686   5.161   2.664 -0.4651  2.8415 -0.0353
15564TIP3   OH268106   1.018   5.733   6.099  0.1515 -0.1803  0.2954
15564TIP3    H168107   1.045   5.693   6.017 -0.2937  0.8343 -0.3551
15564TIP3    H268108   0.932   5.696   6.117  0.7698 -1.3514  0.9710
15565TIP3   OH268109   4.578   0.370   3.647 -0.0595  0.5833  0.2364
15565TIP3    H168110   4.535   0.298   3.601 -0.4369  0.7197  0.3749
15565TIP3    H268111   4.525   0.384   3.725 -0.5587  1.6588 -0.2732
15566TIP3   OH268112   1.857   1.955  14.850 -0.7203 -0.5678  0.8385
15566TIP3    H168113   1.794   2.005  14.902 -1.3577 -1.2126  0.7029
15566TIP3    H268114   1.915   1.916  14.914  0.0905  0.7261  0.9238
15567TIP3   OH268115   6.256   2.681   2.724  0.1958 -0.3216 -0.3142
15567TIP3    H168116   6.344   2.642   2.716  0.5105  0.5602 -1.3620
15567TIP3    H268117   6.271   2.762   2.772 -0.3846 -1.1864  1.4008
15568TIP3   OH268118   0.894   3.138  13.538 -0.0435 -0.2475 -0.2633
15568TIP3    H168119   0.858   3.163  13.623  2.3110 -3.2629  1.8680
15568TIP3    H268120   0.874   3.044  13.530  2.5205 -0.7800 -1.4549
15569TIP3   OH268121   4.807   1.395   3.887 -0.2313 -0.1497 -0.0838
15569TIP3    H168122   4.757   1.438   3.818 -0.5244 -1.5312 -0.7718
15569TIP3    H268123   4.761   1.419   3.968 -0.1787  1.0823 -0.3981
15570TIP3   OH268124   5.536   1.716   2.318  0.0247 -0.6608  0.1739
15570TIP3    H168125   5.463   1.659   2.295  0.5548 -0.7399 -1.4481
15570TIP3    H268126   5.505   1.766   2.393 -2.0587 -0.0266 -1.0294
15571TIP3   OH268127   6.262   4.793  16.670 -0.0363  0.1169 -0.6005
15571TIP3    H168128   6.232   4.843  16.746 -0.6268 -0.7419 -0.2661
15571TIP3    H268129   6.271   4.859  16.600 -2.2368  0.4880 -0.5851
15572TIP3   OH268130   0.753   2.221   0.127 -0.5586  0.2607  0.1754
15572TIP3    H168131   0.769   2.240   0.219 -0.6275 -0.0968  0.2634
15572TIP3    H268132   0.685   2.283   0.101  0.0558  0.9342  0.1350
15573TIP3   OH268133   4.424   5.517   4.336  0.0025 -0.0797  0.7245
15573TIP3    H168134   4.373   5.597   4.319  0.6119  0.3403  0.8469
15573TIP3    H268135   4.511   5.548   4.358  0.3171 -0.7992  0.5288
15574TIP3   OH268136   0.594   3.876  11.377  0.6268  0.0102  0.4574
15574TIP3    H168137   0.631   3.922  11.452 -0.0465  0.9764  0.2140
15574TIP3    H268138   0.525   3.820  11.414  2.2468 -1.8008  0.9112
15575TIP3   OH268139   6.242   3.679  17.307 -0.3549 -0.2956  0.4263
15575TIP3    H168140   6.304   3.674  17.234 -0.7692 -1.2075  0.1228
15575TIP3    H268141   6.156   3.678  17.266 -0.5904  0.9322  0.8508
15576TIP3   OH268142   1.663   0.656   5.372  0.1138 -0.5962 -0.4086
15576TIP3    H168143   1.745   0.655   5.420 -0.2541  0.0264  0.2412
15576TIP3    H268144   1.673   0.726   5.308  0.1586 -0.6452 -0.4555
15577TIP3   OH268145   0.742   5.341   1.436 -0.2516  0.3042  0.2813
15577TIP3    H168146   0.742   5.381   1.523 -1.0640 -0.5598  0.7014
15577TIP3    H268147   0.663   5.286   1.435 -0.2005  0.2258 -0.9664
15578TIP3   OH268148   3.117   2.140   5.394  0.0063  0.1661 -0.6310
15578TIP3    H168149   3.041   2.087   5.371  1.5314 -2.2112 -0.5944
15578TIP3    H268150   3.190   2.097   5.349  1.4406  1.9386 -0.1058
15579TIP3   OH268151   3.765   0.447  12.817 -1.0355  0.1387 -0.4321
15579TIP3    H168152   3.702   0.378  12.795  0.1500 -1.9357  2.0883
15579TIP3    H268153   3.841   0.428  12.763 -0.7564 -0.5161  0.1687
15580TIP3   OH268154   3.965   2.069   2.379 -0.0322 -0.0976  0.1209
15580TIP3    H168155   3.896   2.033   2.325  0.0241 -0.0992  0.0495
15580TIP3    H268156   3.940   2.161   2.393 -0.5918 -0.3728  0.9809
15581TIP3   OH268157   5.207   1.080  16.265 -0.1078  0.1654  0.5086
15581TIP3    H168158   5.179   1.052  16.352 -0.0855 -1.9305 -0.1018
15581TIP3    H268159   5.264   1.009  16.234  0.3044  1.1108 -1.0026
15582TIP3   OH268160   5.109   3.978   4.910 -0.3423 -0.5456  0.1031
15582TIP3    H168161   5.024   3.934   4.902 -0.3428 -0.6848  0.8104
15582TIP3    H268162   5.173   3.909   4.900 -0.3232 -0.5138  0.0101
15583TIP3   OH268163   2.910   2.836   1.480  0.0621  0.7760  0.1452
15583TIP3    H168164   2.861   2.837   1.397 -0.2962  1.4377  0.3505
15583TIP3    H268165   2.890   2.751   1.519  1.5757 -0.2711 -1.2070
15584TIP3   OH268166   0.913   4.317  12.852 -0.8934  0.5904 -0.2767
15584TIP3    H168167   0.839   4.358  12.899 -1.1955  0.8395 -0.9595
15584TIP3    H268168   0.884   4.313  12.761 -0.0898  0.6151 -0.5371
15585TIP3   OH268169   2.477   5.326  15.762  0.1333  0.1143 -0.1827
15585TIP3    H168170   2.493   5.358  15.673 -0.2305 -0.8025 -0.5880
15585TIP3    H268171   2.388   5.290  15.759  0.2857 -0.3285  0.4323
15586TIP3   OH268172   3.503   0.259   3.134  0.3163  0.4333 -0.3780
15586TIP3    H168173   3.537   0.280   3.221  1.8752  0.3808 -0.9496
15586TIP3    H268174   3.408   0.259   3.145  0.4461  1.7330  1.0204
15587TIP3   OH268175   3.682   5.514  16.775  0.1726 -0.2823  0.0487
15587TIP3    H168176   3.628   5.585  16.811  1.4181  0.4684  0.4908
15587TIP3    H268177   3.618   5.449  16.746 -0.9925 -1.3127  4.1877
15588TIP3   OH268178   3.269   1.807   1.105  0.2043 -0.3188  0.0284
15588TIP3    H168179   3.356   1.789   1.072  0.6781  1.0463  0.4756
15588TIP3    H268180   3.277   1.890   1.152 -1.2284 -0.3972  0.4774
15589TIP3   OH268181   1.255   0.146   5.769  0.4536  0.2435  0.1972
15589TIP3    H168182   1.306   0.191   5.837  0.2637 -1.5356  1.5807
15589TIP3    H268183   1.248   0.056   5.799 -0.1255 -0.4921 -1.9514
15590TIP3   OH268184   5.098   3.620  14.664 -0.6354  0.1766  0.0589
15590TIP3    H168185   5.098   3.543  14.606  0.2064 -0.2738  0.6379
15590TIP3    H268186   5.100   3.695  14.604 -0.4465 -0.2763 -0.5086
15591TIP3   OH268187   4.607   5.025  15.907 -0.0276 -0.1156 -0.1831
15591TIP3    H168188   4.531   5.081  15.917  0.4707  0.7205 -0.8881
15591TIP3    H268189   4.681   5.086  15.900  0.5691 -0.8649 -0.5627
15592TIP3   OH268190   5.545   5.975  13.984  0.5942  0.5419  0.6935
15592TIP3    H168191   5.488   5.970  14.060  0.2660  1.1334  0.4944
15592TIP3    H268192   5.566   6.068  13.976 -0.4965  0.7069 -0.7455
15593TIP3   OH268193   0.330   3.919  12.930 -0.0922  0.2752  0.4401
15593TIP3    H168194   0.286   3.851  12.981 -2.4407  1.5249  0.1996
15593TIP3    H268195   0.394   3.957  12.991  0.3788 -1.2707  0.9610
15594TIP3   OH268196   4.763   6.302  12.653  0.1855 -0.0393  0.1077
15594TIP3    H168197   4.822   6.251  12.709  2.3525  1.0444 -1.0896
15594TIP3    H268198   4.739   6.378  12.706  2.1860  0.9566 -0.3554
15595TIP3   OH268199   4.117   3.579  14.332 -0.8908 -0.2109 -0.1250
15595TIP3    H168200   4.199   3.529  14.343  0.3531  1.9438  1.0590
15595TIP3    H268201   4.075   3.574  14.418 -1.8965 -1.0267 -0.6376
15596TIP3   OH268202   5.284   1.507  13.116 -0.3141 -0.3452  0.1948
15596TIP3    H168203   5.340   1.582  13.137 -0.1084 -0.4364 -0.0228
15596TIP3    H268204   5.214   1.543  13.062 -0.8116 -0.1190  0.9753
15597TIP3   OH268205   0.957   0.954   6.561  0.2656 -0.5782  0.0305
15597TIP3    H168206   0.897   1.029   6.564 -1.5203 -1.9588  0.8574
15597TIP3    H268207   1.035   0.987   6.515 -0.8322  1.4950 -0.4628
15598TIP3   OH268208   3.362   4.474   1.213 -0.1564 -0.4920  0.0407
15598TIP3    H168209   3.403   4.557   1.188  0.8824 -1.3128 -1.1034
15598TIP3    H268210   3.416   4.441   1.285 -1.9689  0.9081  2.1589
15599TIP3   OH268211   1.891   5.481  13.399 -0.0724  0.5640 -0.0228
15599TIP3    H168212   1.904   5.425  13.323 -0.1778 -1.2954  1.2503
15599TIP3    H268213   1.923   5.429  13.473 -2.5114  1.1307  1.5636
15600TIP3   OH268214   4.976   4.823   2.651  0.1287  0.3906  0.0470
15600TIP3    H168215   4.917   4.837   2.577  0.0899  0.5721  0.1117
15600TIP3    H268216   5.017   4.908   2.666 -0.5503  0.6037  0.8185
15601TIP3   OH268217   6.285   5.227   3.737 -0.1930 -0.3403  0.7761
15601TIP3    H168218   6.223   5.296   3.758  0.0688 -0.5720  2.4812
15601TIP3    H268219   6.231   5.154   3.706 -0.5347  0.3002 -0.1776
15602TIP3   OH268220   5.884   1.044   3.057 -0.2994  0.1668  0.3623
15602TIP3    H168221   5.843   0.965   3.093 -0.2508 -0.8060 -1.5748
15602TIP3    H268222   5.821   1.076   2.992  0.4655  0.6946 -0.1359
15603TIP3   OH268223   6.035   2.348   0.881 -0.1968  0.2195 -0.8620
15603TIP3    H168224   6.076   2.389   0.957  0.2607 -1.9753  0.1535
15603TIP3    H268225   5.952   2.396   0.869 -0.0231  0.9464  0.6763
15604TIP3   OH268226   1.552   3.582   3.039 -0.1615  0.4617 -0.7087
15604TIP3    H168227   1.640   3.558   3.009  0.0157 -0.0878  0.1980
15604TIP3    H268228   1.569   3.634   3.119 -0.6726 -0.1845 -0.1718
15605TIP3   OH268229   2.946   4.048  11.753 -0.0327  0.3320 -0.1389
15605TIP3    H168230   3.022   4.014  11.801  1.5239  1.1273 -1.9355
15605TIP3    H268231   2.983   4.086  11.674 -2.2846  1.2506 -0.8071
15606TIP3   OH268232   3.723   1.289  15.522 -0.2335  0.4158 -0.3560
15606TIP3    H168233   3.816   1.307  15.537  0.1745 -1.5645 -0.1429
15606TIP3    H268234   3.714   1.289  15.426  0.0192  0.4786 -0.3808
15607TIP3   OH268235   4.232   2.840  16.130  0.4736  0.2138 -0.2640
15607TIP3    H168236   4.259   2.875  16.214 -0.9230  0.3305  0.1621
15607TIP3    H268237   4.273   2.898  16.065  2.9221 -0.8457  0.2312
15608TIP3   OH268238   3.160   4.017   3.991  0.3664 -0.1323 -0.4118
15608TIP3    H168239   3.128   3.978   4.072 -0.6399  0.5312 -0.4792
15608TIP3    H268240   3.176   3.943   3.933  0.7775 -0.5883  0.2712
15609TIP3   OH268241   1.104   5.954  16.763 -0.1870 -0.3860  0.8077
15609TIP3    H168242   1.024   5.902  16.767 -0.1560 -0.3797  1.7459
15609TIP3    H268243   1.082   6.035  16.810 -0.2659  0.4980 -0.7109
15610TIP3   OH268244   1.830   6.517  15.376  0.5482 -0.2396  0.3828
15610TIP3    H168245   1.849   6.441  15.431  1.6113  0.1507  0.5726
15610TIP3    H268246   1.767   6.568  15.427 -0.0655 -0.9225  0.3159
15611TIP3   OH268247   3.113   1.633   4.180 -0.3481 -0.1814 -0.1330
15611TIP3    H168248   3.047   1.571   4.210 -1.0149 -0.2345 -1.6379
15611TIP3    H268249   3.151   1.592   4.102  1.3813 -0.0824  0.6083
15612TIP3   OH268250   1.473   3.185   4.908 -0.7093 -0.5619  0.0758
15612TIP3    H168251   1.449   3.189   5.001 -0.9333 -1.9803  0.1154
15612TIP3    H268252   1.486   3.276   4.882 -1.8764 -0.0374  1.1773
15613TIP3   OH268253   5.664   4.358   1.818  0.0493 -0.1387  0.0308
15613TIP3    H168254   5.634   4.276   1.858 -2.6955  0.6253 -0.2533
15613TIP3    H268255   5.705   4.332   1.736  0.2936 -1.3030  0.5097
15614TIP3   OH268256   2.399   4.018   2.803  0.5523 -0.6041  0.4793
15614TIP3    H168257   2.324   4.070   2.773  0.6181 -0.7741  0.0189
15614TIP3    H268258   2.461   4.082   2.838  0.6201 -0.3792 -0.0602
15615TIP3   OH268259   3.239   4.111   6.558 -0.5100  0.5730  0.3575
15615TIP3    H168260   3.281   4.137   6.476 -0.6430 -0.3371 -0.0153
15615TIP3    H268261   3.172   4.047   6.532  0.8793 -1.4136  1.3374
15616TIP3   OH268262   2.637   5.500  12.485 -0.1435  0.2483 -0.3898
15616TIP3    H168263   2.711   5.441  12.501  0.9440  1.3229 -1.2375
15616TIP3    H268264   2.661   5.548  12.405 -2.8599 -1.0700 -2.1611
15617TIP3   OH268265   4.648   5.458  17.092  0.9035 -0.0542  0.1582
15617TIP3    H168266   4.591   5.504  17.031 -0.1025  0.0462  1.1386
15617TIP3    H268267   4.717   5.421  17.037 -0.9207 -1.4762 -1.3000
15618TIP3   OH268268   0.997   4.671  16.235 -0.0104  0.3598 -0.0451
15618TIP3    H168269   0.950   4.701  16.313 -3.5817 -1.3682 -1.3155
15618TIP3    H268270   0.933   4.678  16.164  2.2619 -0.5751 -2.3666
15619TIP3   OH268271   4.618   6.299   7.004 -0.3826  0.2187 -0.5751
15619TIP3    H168272   4.599   6.300   6.910  1.9560  0.4428 -1.1155
15619TIP3    H268273   4.627   6.391   7.027  1.6033  0.1154 -0.7719
15620TIP3   OH268274   0.239   0.808   5.809 -0.0160  0.6358 -0.2574
15620TIP3    H168275   0.146   0.820   5.789 -1.0307 -0.1491  3.2171
15620TIP3    H268276   0.271   0.896   5.827 -1.3009  0.6508  2.5466
15621TIP3   OH268277   3.478   4.911   1.649  0.2079 -0.0994  0.0291
15621TIP3    H168278   3.539   4.985   1.656 -0.7322  0.9017 -1.5847
15621TIP3    H268279   3.508   4.861   1.574  0.9803 -1.5718  1.2565
15622TIP3   OH268280   2.014   1.197   3.066  0.4542  0.1644 -0.4790
15622TIP3    H168281   2.058   1.234   3.143  2.3732 -1.3952 -0.7326
15622TIP3    H268282   2.042   1.253   2.994 -1.2556  1.5603 -0.1168
15623TIP3   OH268283   3.971   5.092   0.047 -0.0629 -0.2640  0.1657
15623TIP3    H168284   4.066   5.093   0.055 -0.1276 -1.5197  1.3991
15623TIP3    H268285   3.941   5.151   0.117 -0.2055 -0.2105  0.0572
15624TIP3   OH268286   1.963   4.256   6.086  0.4924  0.5984  0.1962
15624TIP3    H168287   1.922   4.170   6.101 -3.5301  2.5729  2.0888
15624TIP3    H268288   2.038   4.258   6.145 -0.4520 -0.9625  1.5238
15625TIP3   OH268289   6.098   4.137  11.086 -0.1004 -0.3979 -0.3288
15625TIP3    H168290   6.188   4.162  11.104 -0.4063 -0.1643  0.9806
15625TIP3    H268291   6.053   4.220  11.068 -0.3524 -0.3490  0.4762
15626TIP3   OH268292   3.809   3.620  15.882  0.4572  0.4176 -0.0330
15626TIP3    H168293   3.780   3.682  15.949 -2.5649 -0.2454 -0.5765
15626TIP3    H268294   3.817   3.673  15.803 -0.5624  0.4250 -0.1432
15627TIP3   OH268295   0.393   0.864  15.614 -0.0663 -0.5272 -0.2082
15627TIP3    H168296   0.486   0.861  15.591  0.3765 -0.0707  1.4433
15627TIP3    H268297   0.349   0.889  15.532  1.3913  0.5895 -0.6938
15628TIP3   OH268298   0.289   5.745   6.133  0.2140 -0.6615  0.1549
15628TIP3    H168299   0.248   5.798   6.202  1.4526 -0.2066  0.5631
15628TIP3    H268300   0.315   5.808   6.066  0.7994 -0.8606  0.1878
15629TIP3   OH268301   6.223   0.071  13.155 -0.7268  0.2234 -0.2300
15629TIP3    H168302   6.133   0.064  13.125 -1.0279  3.3771 -0.3844
15629TIP3    H268303   6.218   0.116  13.239  0.7353  1.9161 -0.9818
15630TIP3   OH268304   5.185   4.968  14.220  0.2322  1.2083 -0.3894
15630TIP3    H168305   5.164   4.920  14.140 -0.0556  0.0130  0.3808
15630TIP3    H268306   5.149   4.915  14.291 -2.0002  3.6083  0.4310
15631TIP3   OH268307   4.195   4.035  14.498 -0.3147  0.1273  0.3008
15631TIP3    H168308   4.218   3.999  14.412 -0.0287  1.1783 -0.0852
15631TIP3    H268309   4.099   4.038  14.498 -0.3571 -0.9981  0.5091
15632TIP3   OH268310   4.484   0.401   4.502  0.4481 -0.9413 -0.2577
15632TIP3    H168311   4.525   0.448   4.575  1.2995 -2.1350  0.0654
15632TIP3    H268312   4.403   0.366   4.538  0.2344 -0.4618 -0.2588
15633TIP3   OH268313   6.189   3.917   3.801 -0.0449  0.2433 -0.1336
15633TIP3    H168314   6.171   3.934   3.894 -0.1849  0.7609 -0.2533
15633TIP3    H268315   6.174   4.001   3.758  0.2336  0.0591 -0.5960
15634TIP3   OH268316   5.649   4.812   4.425  0.3481  0.8022 -0.1327
15634TIP3    H168317   5.559   4.780   4.439  0.4737  0.2725 -0.4755
15634TIP3    H268318   5.696   4.785   4.503 -0.0940  2.2771  0.6660
15635TIP3   OH268319   3.197   6.203   4.366 -0.6432 -0.4211  0.4845
15635TIP3    H168320   3.255   6.175   4.295 -0.5069 -0.2740  0.5384
15635TIP3    H268321   3.169   6.122   4.408 -0.0909 -0.4674  0.7688
15636TIP3   OH268322   5.193   0.846   6.361  0.2879  0.3759 -0.4158
15636TIP3    H168323   5.225   0.916   6.304 -0.2834  0.7700 -0.2654
15636TIP3    H268324   5.101   0.868   6.376 -0.3251 -1.2168 -1.6030
15637TIP3   OH268325   5.481   6.432   6.520 -0.7226 -0.3403  0.2918
15637TIP3    H168326   5.434   6.349   6.525 -2.6012  0.6209  0.0193
15637TIP3    H268327   5.421   6.495   6.560 -0.3535  1.2395 -1.4776
15638TIP3   OH268328   0.250   0.665   1.551 -0.1612  0.0674 -0.8612
15638TIP3    H168329   0.160   0.695   1.545  0.5120  2.2553 -1.2092
15638TIP3    H268330   0.287   0.683   1.464  0.8212  0.0300 -0.4632
15639TIP3   OH268331   1.953   0.913   6.013 -0.8612 -0.7939 -0.1258
15639TIP3    H168332   1.972   0.869   6.096  1.3093  0.7957  0.3210
15639TIP3    H268333   1.902   0.990   6.038  2.0401  1.1602  0.1959
15640TIP3   OH268334   1.972   0.030  12.277  0.3018 -0.2141  0.3075
15640TIP3    H168335   2.003   0.024  12.187  0.0263 -2.6080  0.2967
15640TIP3    H268336   2.040  -0.014  12.328  0.1629  0.5737  1.1984
15641TIP3   OH268337   3.908   1.679   0.190 -0.0079  0.2956 -0.0412
15641TIP3    H168338   3.963   1.721   0.125  0.1672  0.8486  0.4543
15641TIP3    H268339   3.826   1.728   0.188 -0.0964  0.1493 -0.0305
15642TIP3   OH268340   2.088   4.043  11.463 -0.1566  0.7832  0.1691
15642TIP3    H168341   2.183   4.034  11.465 -0.3322 -2.3221  2.1084
15642TIP3    H268342   2.055   3.954  11.479 -3.3871  1.8817  0.4359
15643TIP3   OH268343   4.802   4.681   3.682  0.3736  0.3151 -0.4348
15643TIP3    H168344   4.763   4.768   3.672 -0.4933  0.0132  0.2054
15643TIP3    H268345   4.837   4.661   3.595 -0.2965  0.8856 -0.8519
15644TIP3   OH268346   2.898   3.570  11.761  0.2167  0.6660 -0.5820
15644TIP3    H168347   2.941   3.485  11.767  0.5461  0.9015  0.4706
15644TIP3    H268348   2.867   3.574  11.670 -0.2605 -0.7933 -0.5157
15645TIP3   OH268349   6.288   0.794   4.586 -0.1547  0.0494  0.2782
15645TIP3    H168350   6.337   0.712   4.580  1.4229  1.0655 -2.0879
15645TIP3    H268351   6.344   0.851   4.638 -0.0143  0.4164 -0.2688
15646TIP3   OH268352   3.779   0.176  13.874 -0.5240  0.0014  0.9017
15646TIP3    H168353   3.853   0.160  13.815 -0.0898  2.9418  0.5240
15646TIP3    H268354   3.798   0.120  13.950  0.3173 -1.7987 -0.5548
15647TIP3   OH268355   3.455   1.989  12.156  0.2238  0.8169 -0.3604
15647TIP3    H168356   3.547   1.988  12.183  0.1443 -1.6503  0.1121
15647TIP3    H268357   3.453   1.936  12.076 -1.1632 -2.3424  1.5521
15648TIP3   OH268358   4.115   4.304  16.835  0.0808  0.8084 -0.2648
15648TIP3    H168359   4.074   4.391  16.828 -1.3302  0.5279  2.6970
15648TIP3    H268360   4.042   4.243  16.843  1.0610 -0.4511 -0.5433
15649TIP3   OH268361   2.058   1.557   2.239  0.3996 -0.3777  0.4720
15649TIP3    H168362   1.999   1.591   2.172  0.9067  1.1501  0.7712
15649TIP3    H268363   2.019   1.587   2.322  1.5331  0.5823  0.6753
15650TIP3   OH268364   4.931   1.220   2.424  0.1466  0.0941  0.3214
15650TIP3    H168365   4.991   1.266   2.365 -0.4694  1.8526  1.0118
15650TIP3    H268366   4.986   1.157   2.470  1.1720  0.6349 -0.1407
15651TIP3   OH268367   1.085   3.846  15.356 -0.1047 -0.5277  0.6774
15651TIP3    H168368   1.040   3.767  15.386 -0.5145 -0.4017  0.4049
15651TIP3    H268369   1.051   3.916  15.413  0.2017 -0.5349  0.8699
15652TIP3   OH268370   5.955   0.619  13.086 -0.6347  0.3873 -0.3014
15652TIP3    H168371   5.882   0.613  13.147 -1.0647  0.9186 -0.7550
15652TIP3    H268372   5.983   0.528  13.072 -0.7439  0.2382  0.4184
15653TIP3   OH268373   6.242   2.689  11.080  0.4326  0.3678  0.4043
15653TIP3    H168374   6.330   2.688  11.044  0.9435  1.6105  1.5437
15653TIP3    H268375   6.185   2.700  11.004  1.3052  0.2975 -0.2709
15654TIP3   OH268376   1.095   0.881   5.644  0.2846 -0.4369  0.4428
15654TIP3    H168377   1.082   0.879   5.549  1.7668  1.3437  0.1460
15654TIP3    H268378   1.121   0.792   5.667 -1.9718 -1.4019 -0.4625
15655TIP3   OH268379   1.877   5.797  17.313 -0.1577 -0.2919 -0.5605
15655TIP3    H168380   1.972   5.784  17.304 -0.2015 -0.0349 -1.4534
15655TIP3    H268381   1.859   5.879  17.266 -0.4484  1.0873  1.7966
15656TIP3   OH268382   6.661   2.201  16.199 -0.0843 -0.2063 -0.1199
15656TIP3    H168383   6.617   2.117  16.211  2.0240 -1.5667 -1.2492
15656TIP3    H268384   6.737   2.181  16.145  2.6316  1.7620  2.6582
15657TIP3   OH268385   0.877   6.115  14.530 -0.5118 -0.2674  0.3305
15657TIP3    H168386   0.846   6.035  14.487  0.0650  0.6937 -2.0299
15657TIP3    H268387   0.965   6.093  14.560 -0.1192 -0.3818 -0.8423
15658TIP3   OH268388   1.389   6.612  16.447  0.2654  0.4103  0.5360
15658TIP3    H168389   1.327   6.683  16.466  0.6312  0.7284  0.5578
15658TIP3    H268390   1.338   6.532  16.458 -0.0266  0.6529  1.0030
15659TIP3   OH268391   1.977   2.844   5.268 -0.6890  0.4622  0.1208
15659TIP3    H168392   2.067   2.811   5.276 -0.8882 -0.0282  0.3733
15659TIP3    H268393   1.982   2.911   5.200 -0.4304 -0.6442 -0.9841
15660TIP3   OH268394   4.118   3.260   5.530  0.3690  0.1217  0.3104
15660TIP3    H168395   4.149   3.217   5.451 -0.0063  1.5031 -0.6416
15660TIP3    H268396   4.069   3.193   5.577  0.4194 -0.6722 -0.7386
15661TIP3   OH268397   3.623   3.880   5.757  0.1732 -0.2835 -0.3757
15661TIP3    H168398   3.683   3.924   5.697  1.8009 -0.0242  1.3689
15661TIP3    H268399   3.550   3.853   5.701  1.9509 -0.7668 -2.6410
15662TIP3   OH268400   2.876   5.970  14.069 -0.1530 -0.2076  0.2241
15662TIP3    H168401   2.919   5.889  14.042  1.6692  0.6873  0.2592
15662TIP3    H268402   2.940   6.013  14.126 -1.8476  0.3695  1.7777
15663TIP3   OH268403   4.746   3.303   0.928 -0.1846  0.1220  0.0199
15663TIP3    H168404   4.794   3.381   0.900  1.2412 -0.9633 -0.7781
15663TIP3    H268405   4.676   3.293   0.864 -0.7763  1.0679  0.4963
15664TIP3   OH268406   1.253   3.889   6.285  0.4665 -0.4809  0.6462
15664TIP3    H168407   1.272   3.813   6.230 -0.8676 -1.3279  1.2994
15664TIP3    H268408   1.303   3.960   6.245 -1.4560 -0.7101 -2.5566
15665TIP3   OH268409   0.278   0.528   0.305  0.2459 -0.4548  0.0227
15665TIP3    H168410   0.236   0.592   0.362 -0.0258 -3.1259  3.0716
15665TIP3    H268411   0.235   0.540   0.220 -1.8106  1.4199  1.2279
15666TIP3   OH268412   3.093   6.098   3.395 -0.1027  0.1587  0.6667
15666TIP3    H168413   3.070   6.159   3.465 -0.3484  0.9504 -0.0875
15666TIP3    H268414   3.147   6.031   3.438 -2.2149 -0.7446  2.1078
15667TIP3   OH268415   0.637   3.420   1.888  0.0826 -0.8286  0.0728
15667TIP3    H168416   0.555   3.464   1.865 -0.2953 -2.1936 -1.3680
15667TIP3    H268417   0.701   3.454   1.825  0.0035 -1.5927 -0.4441
15668TIP3   OH268418   3.679   0.062  11.682 -0.5840  0.2524  0.0242
15668TIP3    H168419   3.694  -0.023  11.639  3.0129 -0.0562  1.5263
15668TIP3    H268420   3.725   0.125  11.627  2.5122  0.1134  2.2148
15669TIP3   OH268421   1.309   6.757   4.685 -0.4413 -0.5622  0.7773
15669TIP3    H168422   1.249   6.825   4.656  0.1885 -1.1374 -2.1948
15669TIP3    H268423   1.396   6.799   4.681 -0.3286 -0.6267  2.0968
15670TIP3   OH268424   3.665   0.506  12.142 -0.0663  0.2236  0.6561
15670TIP3    H168425   3.700   0.589  12.112  0.1060 -0.4465 -1.1362
15670TIP3    H268426   3.611   0.528  12.217  0.8765  1.7912  0.9167
15671TIP3   OH268427   0.293   3.481  11.634 -0.4231 -0.5420 -0.0795
15671TIP3    H168428   0.245   3.535  11.571 -0.6560 -2.0178 -1.2319
15671TIP3    H268429   0.372   3.454  11.588  0.2913 -0.2093  0.9121
15672TIP3   OH268430   6.150   0.238   4.166 -0.6433  0.3301 -0.4182
15672TIP3    H168431   6.147   0.313   4.225 -0.7287  0.7984 -1.0059
15672TIP3    H268432   6.163   0.162   4.224 -1.2074  0.7177  0.2410
15673TIP3   OH268433   5.282   5.464   5.090 -0.2335 -0.0543  0.0433
15673TIP3    H168434   5.256   5.375   5.113  0.2387  0.1435  1.4461
15673TIP3    H268435   5.272   5.513   5.172 -0.1392  1.1008 -0.6242
15674TIP3   OH268436   3.050   2.451  14.178 -0.5374 -0.2534 -0.3247
15674TIP3    H168437   3.130   2.472  14.226 -1.3607 -1.5777  1.7360
15674TIP3    H268438   3.010   2.536  14.161  0.1825  0.3040  0.6421
15675TIP3   OH268439   4.528   1.157  11.495 -0.1970  0.0379  0.4364
15675TIP3    H168440   4.579   1.204  11.428 -1.4379 -1.3475 -1.6197
15675TIP3    H268441   4.588   1.090  11.528 -0.8897 -2.7303 -3.2082
15676TIP3   OH268442   6.469   0.214  17.009 -0.1623 -0.8319  0.0796
15676TIP3    H168443   6.396   0.154  16.994 -1.1109  0.1248  0.7399
15676TIP3    H268444   6.440   0.271  17.080  1.8483 -1.3905  1.4068
15677TIP3   OH268445   1.622   0.831   2.021  0.5125  0.1959 -0.1815
15677TIP3    H168446   1.614   0.796   2.109  0.0306  1.0291  0.1097
15677TIP3    H268447   1.713   0.813   1.997  0.9853  0.9802  0.9328
15678TIP3   OH268448   4.010   1.776   2.899 -0.1280  0.0423 -0.0035
15678TIP3    H168449   4.031   1.702   2.841 -1.4419  1.3379 -2.2762
15678TIP3    H268450   3.923   1.755   2.933 -1.4049  1.3493 -2.2390
15679TIP3   OH268451   3.494   0.218  15.831 -0.2009 -0.5284 -0.0443
15679TIP3    H168452   3.404   0.209  15.801 -0.3521 -1.7448  0.7146
15679TIP3    H268453   3.521   0.129  15.852  0.5108  0.0469  1.6423
15680TIP3   OH268454   6.137   5.082  14.544 -0.5128 -0.5809 -0.0759
15680TIP3    H168455   6.173   4.993  14.547 -1.2073 -0.9112 -0.8897
15680TIP3    H268456   6.204   5.134  14.499  0.2877 -0.4717  1.1927
15681TIP3   OH268457   4.031   5.333  12.564  0.3018 -0.4361  0.4503
15681TIP3    H168458   4.045   5.407  12.504  0.5588  0.6395  1.7722
15681TIP3    H268459   3.949   5.355  12.609  0.9503 -0.3672  1.6425
15682TIP3   OH268460   6.523   0.552   1.147  0.1684 -0.1334 -0.9504
15682TIP3    H168461   6.578   0.622   1.112  0.3951 -0.7789 -1.9248
15682TIP3    H268462   6.502   0.580   1.236  2.8747 -0.3034 -0.1565
15683TIP3   OH268463   3.344   2.918   5.308  0.0911 -0.3951  0.2493
15683TIP3    H168464   3.371   2.925   5.400 -1.2758  0.1288  0.6374
15683TIP3    H268465   3.425   2.925   5.259  0.9374 -1.4213  1.4383
15684TIP3   OH268466   3.927   1.776   4.418 -0.2821 -0.1763  0.5790
15684TIP3    H168467   4.019   1.774   4.393 -0.0994 -0.2749  1.2446
15684TIP3    H268468   3.883   1.821   4.346  0.2965 -0.0663  0.2954
15685TIP3   OH268469   1.158   1.248   5.159  0.1987  0.3152 -0.5252
15685TIP3    H168470   1.082   1.204   5.196  1.1427 -0.9435 -0.0184
15685TIP3    H268471   1.194   1.299   5.231 -1.4524  2.8415 -1.3494
15686TIP3   OH268472   4.191   1.152  12.492 -0.4409 -0.5479 -0.1050
15686TIP3    H168473   4.263   1.205  12.525 -0.4973 -0.1503 -0.6035
15686TIP3    H268474   4.146   1.121  12.570 -0.4616  0.2166  0.2001
15687TIP3   OH268475   4.541   3.962  12.663 -0.4258  0.6494  0.3307
15687TIP3    H168476   4.531   3.938  12.755 -0.5243  2.2901  0.7921
15687TIP3    H268477   4.507   3.887  12.614 -1.5988  0.2751  1.6505
15688TIP3   OH268478   6.046   5.456   5.000  0.7204 -0.6498 -0.1245
15688TIP3    H168479   6.091   5.491   4.923 -1.1132  1.3537 -0.3893
15688TIP3    H268480   6.081   5.506   5.073  2.1313 -2.2421  0.3561
15689TIP3   OH268481   2.617   1.672  11.175  0.3943 -0.4310  0.3832
15689TIP3    H168482   2.572   1.627  11.103  0.4432  0.8314 -0.4680
15689TIP3    H268483   2.600   1.765  11.160  0.0868 -0.1472  2.2449
15690TIP3   OH268484   1.827   2.762  16.965  0.0627  0.0595  0.5999
15690TIP3    H168485   1.744   2.745  16.920  1.5323 -0.0514 -2.2458
15690TIP3    H268486   1.817   2.718  17.050 -3.2531  1.1729  0.9496
15691TIP3   OH268487   3.391   5.812   5.188 -0.4922 -0.0537 -0.4387
15691TIP3    H168488   3.352   5.770   5.111 -2.2075 -0.1993  0.4465
15691TIP3    H268489   3.437   5.888   5.153 -1.1272 -0.1859 -1.6200
15692TIP3   OH268490   6.131   3.604   3.507 -0.3889  0.0049 -0.0236
15692TIP3    H168491   6.142   3.699   3.500  1.4127 -0.1189  0.5446
15692TIP3    H268492   6.102   3.590   3.598  0.3608 -0.0497  0.2110
15693TIP3   OH268493   2.652   2.127  15.652  0.3586  0.2891 -0.0655
15693TIP3    H168494   2.591   2.192  15.686  1.4634  1.7554 -0.7367
15693TIP3    H268495   2.671   2.070  15.726 -0.3450  0.9711  0.6566
15694TIP3   OH268496   4.146   0.059  14.237  0.7095 -0.1485 -0.4772
15694TIP3    H168497   4.166  -0.015  14.180  0.4461  0.5268 -1.4799
15694TIP3    H268498   4.231   0.100  14.253  0.8979 -0.8108  0.3227
15695TIP3   OH268499   6.469   2.498  13.685  0.1354  0.0016 -0.2146
15695TIP3    H168500   6.515   2.565  13.737 -1.3590  0.6915  0.2797
15695TIP3    H268501   6.538   2.453  13.637  1.4943 -0.0741  1.7134
15696TIP3   OH268502   1.941   6.684  11.583 -0.3075 -0.4703 -0.3861
15696TIP3    H168503   1.964   6.712  11.494  1.6627 -0.8808 -0.0582
15696TIP3    H268504   1.947   6.764  11.635  2.3597 -0.8423  0.0128
15697TIP3   OH268505   6.316   1.620  15.697 -0.2655  0.7955 -0.0627
15697TIP3    H168506   6.312   1.659  15.610  0.3509 -0.3944 -0.6574
15697TIP3    H268507   6.239   1.564  15.702 -1.0671  1.9506  0.7237
15698TIP3   OH268508   3.832   4.104  15.657  0.1812  0.4702  0.2607
15698TIP3    H168509   3.839   4.119  15.563 -0.3784  1.2262  0.3284
15698TIP3    H268510   3.856   4.012  15.669 -0.7569  0.0717 -0.7440
15699TIP3   OH268511   3.578   6.245   4.865  0.2900  0.3478  0.6894
15699TIP3    H168512   3.628   6.248   4.947  2.1382 -1.3460 -0.2807
15699TIP3    H268513   3.632   6.293   4.803  0.3824 -0.9120 -0.2277
15700TIP3   OH268514   4.185   2.818   3.778 -0.1910 -0.5806  0.9266
15700TIP3    H168515   4.147   2.906   3.777  1.2129  0.0368  0.7698
15700TIP3    H268516   4.182   2.789   3.687  0.6875 -0.0867  0.7283
15701TIP3   OH268517   1.705   6.132   4.949  0.3781 -0.1965  0.2986
15701TIP3    H168518   1.784   6.080   4.965 -0.6473 -1.8495  0.2361
15701TIP3    H268519   1.633   6.076   4.979 -1.0386 -0.0844 -2.5981
15702TIP3   OH268520   3.858   1.150   1.641  0.0781  0.6520  0.1275
15702TIP3    H168521   3.923   1.086   1.668 -0.0680  0.6184  0.4043
15702TIP3    H268522   3.907   1.214   1.589  0.0576 -0.1775 -0.9553
15703TIP3   OH268523   6.440   1.979  14.983  0.6274 -0.2046 -0.0767
15703TIP3    H168524   6.431   1.930  15.065 -0.6008 -2.4481 -1.4236
15703TIP3    H268525   6.454   2.069  15.010 -1.6232 -0.5176  2.6516
15704TIP3   OH268526   0.869   5.658  11.019 -0.1778  0.8752 -0.5493
15704TIP3    H168527   0.829   5.701  10.943  2.4063  0.0729 -2.5305
15704TIP3    H268528   0.868   5.565  10.996 -0.1055  0.5222  0.8195
15705TIP3   OH268529   5.292   0.166   2.159  1.1185 -0.3225  0.6121
15705TIP3    H168530   5.332   0.252   2.175  0.3433  0.7409 -2.5221
15705TIP3    H268531   5.354   0.121   2.102 -0.6462  0.1822 -1.8445
15706TIP3   OH268532   2.494   0.772  17.114  0.0265  0.2852  0.1771
15706TIP3    H168533   2.420   0.830  17.096  0.8196  1.0145 -0.8032
15706TIP3    H268534   2.571   0.829  17.115  0.5694 -0.4040  1.5012
15707TIP3   OH268535   5.315   6.355  14.043 -0.1528 -0.4531 -0.0224
15707TIP3    H168536   5.252   6.300  14.090 -0.5284  2.2384  2.9954
15707TIP3    H268537   5.262   6.403  13.980 -0.3838 -1.0836 -0.3211
15708TIP3   OH268538   0.384   0.132  16.708 -0.8708  0.2389  0.5245
15708TIP3    H168539   0.312   0.077  16.678 -0.6075  0.1595  0.0165
15708TIP3    H268540   0.439   0.143  16.630 -2.2006  3.3308 -0.1246
15709TIP3   OH268541   4.563   3.035   3.244 -0.1256  0.3678 -0.1499
15709TIP3    H168542   4.509   3.113   3.256 -0.1068  0.5289 -1.0693
15709TIP3    H268543   4.504   2.969   3.210  0.1228  0.3542 -0.5584
15710TIP3   OH268544   0.699   2.306   6.261 -0.2345  0.1352  0.3334
15710TIP3    H168545   0.671   2.237   6.321  2.0475 -0.6877  0.5401
15710TIP3    H268546   0.685   2.387   6.310 -2.2352 -0.1784  0.3729
15711TIP3   OH268547   3.055   5.711   2.475  0.8516  0.3809  0.3553
15711TIP3    H168548   3.026   5.667   2.556  0.9350  0.2547  0.3167
15711TIP3    H268549   3.128   5.766   2.503  1.3084 -0.1608  0.2509
15712TIP3   OH268550   6.164   6.399   1.497  0.2784  0.2365 -0.2053
15712TIP3    H168551   6.138   6.327   1.555 -2.0117  0.2251 -1.1458
15712TIP3    H268552   6.217   6.357   1.429  0.5787 -0.2266  0.3022
15713TIP3   OH268553   3.270   4.328   2.609 -0.0406 -0.3490  0.2412
15713TIP3    H168554   3.342   4.322   2.546  0.0512 -0.0438  0.3154
15713TIP3    H268555   3.295   4.268   2.679 -0.4921 -1.2553 -0.3493
15714TIP3   OH268556   3.249   6.155  14.906  0.1498 -0.2264  0.4191
15714TIP3    H168557   3.225   6.241  14.941  0.2933  0.0758 -0.2140
15714TIP3    H268558   3.298   6.113  14.977 -0.6042 -0.1068  1.0240
15715TIP3   OH268559   4.925   6.629  14.281 -0.1006 -0.0659 -0.4177
15715TIP3    H168560   4.980   6.707  14.290 -2.7405  1.8064  1.0641
15715TIP3    H268561   4.968   6.562  14.333  0.6925  1.3924  0.8695
15716TIP3   OH268562   4.774   6.360   0.886 -0.3336  0.3274  0.6338
15716TIP3    H168563   4.847   6.301   0.865  2.1373  3.0293  0.9691
15716TIP3    H268564   4.738   6.324   0.968 -0.7652 -2.1803 -0.5628
15717TIP3   OH268565   0.826   0.750  12.158 -0.0095  0.2303  0.1868
15717TIP3    H168566   0.910   0.796  12.166 -0.5071  0.9569  1.9970
15717TIP3    H268567   0.842   0.663  12.195 -0.0000  0.3223  0.4042
15718TIP3   OH268568   2.809   6.615  14.573  0.6736 -0.3678 -0.0515
15718TIP3    H168569   2.809   6.680  14.644  2.9750 -1.2566  0.8765
15718TIP3    H268570   2.760   6.657  14.502 -0.5920  1.0867  1.5839
15719TIP3   OH268571   5.932   3.272   5.914  0.5687  0.1796  0.1014
15719TIP3    H168572   5.851   3.285   5.865  0.0591 -2.1478  0.2022
15719TIP3    H268573   5.994   3.334   5.876 -1.6601  3.3587  1.2125
15720TIP3   OH268574   0.578   2.093   0.832  0.2184  0.4179 -0.4996
15720TIP3    H168575   0.551   2.041   0.756 -1.6000 -1.1615  1.1289
15720TIP3    H268576   0.501   2.145   0.854 -0.3684 -1.3478  1.9790
15721TIP3   OH268577   4.157   1.293  13.272  0.5991 -0.2171  0.4776
15721TIP3    H168578   4.080   1.337  13.308  1.9245  0.6677  2.4310
15721TIP3    H268579   4.139   1.200  13.284 -0.6393 -0.0890 -0.2009
15722TIP3   OH268580   3.486   1.794  11.613 -0.4270  0.4227 -0.2963
15722TIP3    H168581   3.580   1.799  11.628 -0.5178 -0.3921  0.7224
15722TIP3    H268582   3.453   1.741  11.686 -1.8418  1.6796  0.0434
15723TIP3   OH268583   3.516   2.709  16.063  0.0208  0.2852  0.1364
15723TIP3    H168584   3.561   2.746  15.987  0.7523 -0.0909  0.3806
15723TIP3    H268585   3.475   2.784  16.106 -0.9005  0.4294 -0.9537
15724TIP3   OH268586   5.426   2.196   2.589 -0.0522  0.4344  0.1104
15724TIP3    H168587   5.379   2.146   2.523  0.9074 -0.1568 -0.1470
15724TIP3    H268588   5.518   2.185   2.566  0.3287 -0.1150  1.7760
15725TIP3   OH268589   0.279   1.794  15.966 -0.1373  0.9384  0.3770
15725TIP3    H168590   0.330   1.867  15.931 -0.2300 -0.2941 -2.5528
15725TIP3    H268591   0.339   1.719  15.963 -0.7669  0.3842  1.1487
15726TIP3   OH268592   3.219   4.250   3.833 -0.1182 -0.0020  0.5963
15726TIP3    H168593   3.209   4.180   3.897  0.0613 -0.6055 -0.0224
15726TIP3    H268594   3.257   4.208   3.756  0.1545  0.8078  0.2698
15727TIP3   OH268595   3.690   5.361   3.711  0.0971 -0.4107  0.3134
15727TIP3    H168596   3.627   5.399   3.772  0.4453  0.0072  0.4234
15727TIP3    H268597   3.686   5.418   3.634  1.3185  0.4591  0.8522
15728TIP3   OH268598   0.838   4.166   3.854  0.1055  0.0127  0.1153
15728TIP3    H168599   0.753   4.189   3.893  0.7305  1.3668  0.7327
15728TIP3    H268600   0.850   4.074   3.878 -0.3396  0.3141  1.6466
15729TIP3   OH268601   6.253   2.370  13.838 -0.4662 -0.6538  0.6133
15729TIP3    H168602   6.307   2.367  13.916  2.3373  0.3777 -1.1372
15729TIP3    H268603   6.307   2.414  13.772 -3.5178  0.6435 -1.2868
15730TIP3   OH268604   3.637   2.821   1.970  0.3107  0.2551  0.2352
15730TIP3    H168605   3.577   2.798   1.900  0.3601  0.3774  0.1518
15730TIP3    H268606   3.644   2.917   1.965  0.6418  0.2265  0.1391
15731TIP3   OH268607   6.227   4.852   3.262 -0.1806 -0.2608 -0.0506
15731TIP3    H168608   6.136   4.822   3.263 -0.4978  0.6665 -0.0204
15731TIP3    H268609   6.275   4.781   3.219 -0.7483 -1.1916  0.8058
15732TIP3   OH268610   4.472   4.817  13.561  0.3606 -1.0004  0.3033
15732TIP3    H168611   4.433   4.826  13.474  1.1684  2.9870  0.1966
15732TIP3    H268612   4.549   4.761  13.547 -1.2137 -3.0208 -0.8362
15733TIP3   OH268613   6.558   6.011   4.422  0.0560 -0.1569 -0.0980
15733TIP3    H168614   6.595   6.062   4.351  2.7382 -1.6469  0.1000
15733TIP3    H268615   6.607   5.929   4.422 -0.6166 -0.6954  2.7334
15734TIP3   OH268616   4.818   1.634   5.385  0.3404  0.2884  0.1947
15734TIP3    H168617   4.865   1.555   5.360 -0.0906 -0.0781  0.5229
15734TIP3    H268618   4.829   1.693   5.311 -0.7979 -0.7250 -0.8194
15735TIP3   OH268619   5.797   6.269   5.076  0.0582 -0.0114  0.4405
15735TIP3    H168620   5.834   6.217   5.005  0.0513  0.1128  0.3445
15735TIP3    H268621   5.810   6.360   5.048 -0.4016  0.0327  0.3614
15736TIP3   OH268622   1.078   0.454  11.772 -0.0810 -0.1244 -0.2192
15736TIP3    H168623   1.010   0.475  11.708 -0.0476 -2.4399 -1.1024
15736TIP3    H268624   1.087   0.359  11.767  0.5363 -0.3028  2.6399
15737TIP3   OH268625   6.385   0.356   2.811  0.0063 -0.3548  0.2439
15737TIP3    H168626   6.478   0.360   2.789 -0.2302  2.5095 -0.6017
15737TIP3    H268627   6.341   0.341   2.728 -0.3982  0.6160  0.2759
15738TIP3   OH268628   5.733   6.587  17.182  0.6388  0.3225 -0.2196
15738TIP3    H168629   5.670   6.521  17.153 -0.2016 -0.1719  2.4892
15738TIP3    H268630   5.686   6.670  17.175  0.1251  0.1052  0.5468
15739TIP3   OH268631   3.673   4.471  14.334  0.1240 -0.1425 -0.1071
15739TIP3    H168632   3.714   4.478  14.248 -0.1959  0.3029 -0.2267
15739TIP3    H268633   3.584   4.504  14.321  0.4407  1.0437  0.6573
15740TIP3   OH268634   3.627   5.820  17.013 -0.2909 -0.2882  0.7407
15740TIP3    H168635   3.679   5.900  17.024  0.1805 -0.4999  0.0797
15740TIP3    H268636   3.606   5.818  16.920 -2.4355  0.3715  1.1440
15741TIP3   OH268637   1.302   2.714  13.798 -0.1468 -0.3239 -0.1299
15741TIP3    H168638   1.314   2.809  13.802 -2.0815 -0.0213 -0.6919
15741TIP3    H268639   1.242   2.700  13.725 -0.4247 -1.9215  0.3674
15742TIP3   OH268640   3.010   0.914   2.001 -0.6212  0.1773  0.6980
15742TIP3    H168641   2.923   0.954   1.999 -1.4961 -1.6448  0.1886
15742TIP3    H268642   2.996   0.824   1.971  1.3883 -0.2770  0.9688
15743TIP3   OH268643   3.429   5.667  10.671 -0.3773 -0.1113 -0.2706
15743TIP3    H168644   3.379   5.748  10.665 -0.7204 -0.3314 -0.3922
15743TIP3    H268645   3.388   5.608  10.607  0.0166 -0.3037 -0.3524
15744TIP3   OH268646   2.489   3.984   2.319  0.2886  0.0481  0.0292
15744TIP3    H168647   2.451   4.062   2.360  1.5311  0.3125  0.7381
15744TIP3    H268648   2.583   4.003   2.313  0.3749 -0.6882 -1.4254
15745TIP3   OH268649   3.810   4.614   2.373  0.3564 -0.0501 -0.5063
15745TIP3    H168650   3.810   4.531   2.421  2.6508  0.8353  1.2350
15745TIP3    H268651   3.740   4.665   2.413  0.2956 -0.4079 -0.1487
15746TIP3   OH268652   3.090   3.460   0.491 -0.0882  0.0261  0.0910
15746TIP3    H168653   3.149   3.514   0.544  0.2629  1.4515 -1.6510
15746TIP3    H268654   3.143   3.383   0.467  0.8010  0.8298 -0.6504
15747TIP3   OH268655   4.564   3.438  14.021  0.1429  0.0186 -0.0147
15747TIP3    H168656   4.485   3.491  14.032  0.5096  0.7569 -0.7963
15747TIP3    H268657   4.632   3.501  13.998  1.0617 -0.5671  1.0152
15748TIP3   OH268658   1.660   3.834  13.879  0.4637 -0.3004  0.4060
15748TIP3    H168659   1.756   3.830  13.875  0.5706  1.0275  1.0931
15748TIP3    H268660   1.636   3.768  13.945  0.8068 -1.3341 -0.4707
15749TIP3   OH268661   1.997   3.985  12.585  0.5269 -0.3134 -0.1302
15749TIP3    H168662   1.983   4.008  12.493  1.7428 -0.0618 -0.2722
15749TIP3    H268663   1.970   3.894  12.592  2.1372 -0.9159 -1.1893
15750TIP3   OH268664   0.709   1.029  16.128 -0.0233  0.2421  0.5848
15750TIP3    H168665   0.623   1.053  16.092  0.2734  1.0400  0.3946
15750TIP3    H268666   0.735   0.952  16.076 -1.1405 -0.7599  1.4482
15751TIP3   OH268667   4.263   4.484  15.608  0.6779 -0.1304 -0.5563
15751TIP3    H168668   4.292   4.544  15.539  0.3707 -0.2378 -0.7790
15751TIP3    H268669   4.341   4.471  15.662  1.7133 -2.1621 -2.3911
15752TIP3   OH268670   5.747   0.401   3.230 -0.0570  0.7076 -0.0435
15752TIP3    H168671   5.754   0.439   3.317  0.7399  1.2067 -0.3144
15752TIP3    H268672   5.836   0.376   3.207  0.2621  3.1966 -1.8583
15753TIP3   OH268673   5.132   1.456  11.145 -0.3647  0.0803 -0.3312
15753TIP3    H168674   5.135   1.478  11.052  0.8424  0.5254 -0.2023
15753TIP3    H268675   5.075   1.522  11.183  1.0894  1.4035 -0.3803
15754TIP3   OH268676   5.028   6.325  17.125  0.1925  0.2307 -0.8634
15754TIP3    H168677   5.124   6.324  17.126  0.1904 -0.6277 -0.4492
15754TIP3    H268678   5.005   6.413  17.096  1.1073  0.2606 -1.5272
15755TIP3   OH268679   0.266   2.141   4.871 -0.1760 -0.3500  0.0772
15755TIP3    H168680   0.352   2.113   4.899  0.5046  0.5204 -1.0460
15755TIP3    H268681   0.233   2.195   4.943  0.8052  0.4332 -0.0340
15756TIP3   OH268682   2.676   4.324   1.084  0.1491 -0.4958  0.3212
15756TIP3    H168683   2.718   4.392   1.032 -1.3998  0.0445 -0.2636
15756TIP3    H268684   2.684   4.354   1.174 -0.6529  0.5570  0.0596
15757TIP3   OH268685   3.772   5.189  12.777 -0.3413 -0.1501  0.3365
15757TIP3    H168686   3.711   5.239  12.832  0.1798  1.4504 -0.4813
15757TIP3    H268687   3.819   5.256  12.727  2.9621 -1.2479  1.7759
15758TIP3   OH268688   5.977   0.882  12.585  0.4533  0.1706 -0.0678
15758TIP3    H168689   6.007   0.931  12.508  2.2583 -0.2342  0.3312
15758TIP3    H268690   5.950   0.797  12.550 -1.2459  0.8600 -0.5571
15759TIP3   OH268691   2.132   4.113   4.935  0.5003  0.5241 -0.0571
15759TIP3    H168692   2.226   4.096   4.944  0.6294  0.7271 -0.9559
15759TIP3    H268693   2.125   4.208   4.927  0.2882  0.4521 -0.7614
15760TIP3   OH268694   3.311   3.960   2.376  0.0406 -0.6878  0.6492
15760TIP3    H168695   3.306   3.871   2.410  0.7065 -0.3149  1.7640
15760TIP3    H268696   3.396   3.964   2.332 -0.4691 -0.9230 -0.3921
15761TIP3   OH268697   5.057   6.696  13.547 -0.4723 -0.1304 -0.0757
15761TIP3    H168698   5.060   6.604  13.523 -2.4280 -0.3103  0.2068
15761TIP3    H268699   4.966   6.721  13.536  0.0353  1.8118 -0.2362
15762TIP3   OH268700   6.017   3.171   0.554 -0.0234  0.0882 -0.2551
15762TIP3    H168701   6.052   3.100   0.608  1.1589  1.2743  0.5942
15762TIP3    H268702   5.922   3.163   0.562 -0.0213 -2.4126 -1.5592
15763TIP3   OH268703   1.332   1.468   4.042 -0.1767 -0.2254 -0.1886
15763TIP3    H168704   1.389   1.399   4.076  0.6039 -0.6134 -2.1298
15763TIP3    H268705   1.389   1.543   4.028 -0.2096 -0.4247 -1.5842
15764TIP3   OH268706   0.558   4.565   3.023  0.2176  0.2079  0.2952
15764TIP3    H168707   0.633   4.613   3.057 -0.8910  2.1256  0.1475
15764TIP3    H268708   0.550   4.594   2.932  0.7830 -1.9252 -0.5212
15765TIP3   OH268709   3.565   3.013   3.490 -0.0744 -0.6564 -0.7277
15765TIP3    H168710   3.586   2.933   3.538 -1.1011 -1.0953 -0.9810
15765TIP3    H268711   3.637   3.072   3.509  0.3548 -1.4021  0.0247
15766TIP3   OH268712   1.630   0.782   1.566  0.5127 -0.5872  0.2462
15766TIP3    H168713   1.583   0.805   1.646 -1.5766 -0.5639 -0.8918
15766TIP3    H268714   1.588   0.701   1.536 -1.6592  1.4480 -2.8547
15767TIP3   OH268715   4.290   3.195   5.303 -0.7938  0.2066 -1.2701
15767TIP3    H168716   4.378   3.176   5.336  0.2439  3.3896 -1.8696
15767TIP3    H268717   4.252   3.109   5.284  0.9213 -1.4839  2.0247
15768TIP3   OH268718   1.697   0.057  12.377 -0.4907  0.7715  0.8214
15768TIP3    H168719   1.792   0.058  12.362 -0.2965 -0.5635  1.7483
15768TIP3    H268720   1.670  -0.030  12.350 -1.3721  0.9717  1.0319
15769TIP3   OH268721   3.829   4.061   5.623 -0.2832 -0.5668  0.0565
15769TIP3    H168722   3.850   3.969   5.607  0.0183 -0.5366  0.2596
15769TIP3    H268723   3.858   4.106   5.543  1.3019 -0.4031  0.6884
15770TIP3   OH268724   2.008   5.960   6.010 -0.0520 -0.0448 -0.4941
15770TIP3    H168725   2.076   6.021   5.979  0.8786 -1.5960 -1.7114
15770TIP3    H268726   1.990   5.987   6.100  1.9983  0.5952 -0.2261
15771TIP3   OH268727   6.183   5.366  13.152 -0.7566  0.0371  0.5261
15771TIP3    H168728   6.264   5.344  13.106 -1.5288  0.0408 -0.8874
15771TIP3    H268729   6.207   5.440  13.208  0.3385 -0.3172  0.5515
15772TIP3   OH268730   3.315   0.672  15.596  0.1444 -0.6099  0.1496
15772TIP3    H168731   3.407   0.665  15.568 -0.1138 -0.2458 -0.8620
15772TIP3    H268732   3.295   0.765  15.589 -0.1557 -0.6127  0.8860
15773TIP3   OH268733   4.276   0.542  13.780  0.0884  0.2532 -0.3955
15773TIP3    H168734   4.320   0.624  13.800  0.7116 -0.2868  0.5657
15773TIP3    H268735   4.266   0.542  13.685  1.6615  0.6616 -0.5937
15774TIP3   OH268736   1.086   4.001  17.011 -0.0365  0.6410 -0.0830
15774TIP3    H168737   1.036   3.922  16.991 -1.0413  1.3619 -0.5023
15774TIP3    H268738   1.023   4.073  17.000  0.5376  1.4141  1.4353
15775TIP3   OH268739   1.348   5.722  11.734 -0.0364  0.2840  0.6995
15775TIP3    H168740   1.374   5.732  11.642  1.4930 -0.1385  1.0688
15775TIP3    H268741   1.271   5.779  11.743  0.0470  0.6646 -0.7325
15776TIP3   OH268742   3.667   1.250   2.855  0.3768  0.3759  0.3974
15776TIP3    H168743   3.653   1.157   2.876  0.9405  0.5312  1.5756
15776TIP3    H268744   3.663   1.294   2.940 -0.9979  1.6015 -0.2624
15777TIP3   OH268745   3.958   5.598  11.302  0.0836 -0.6123  0.2499
15777TIP3    H168746   4.051   5.620  11.312 -0.2266  1.0196 -0.2841
15777TIP3    H268747   3.953   5.555  11.217  0.4156 -1.1524  0.4965
15778TIP3   OH268748   0.534   0.991  17.064 -0.1873 -0.0464  1.2098
15778TIP3    H168749   0.467   0.933  17.028 -0.3846  0.8719  0.0295
15778TIP3    H268750   0.586   1.018  16.988  1.0080 -0.0731  1.9816
15779TIP3   OH268751   3.942   1.191  13.744 -0.1140 -0.2045  0.3296
15779TIP3    H168752   3.962   1.098  13.756  1.3367 -0.1352 -1.1843
15779TIP3    H268753   3.906   1.197  13.655  0.3159  0.7467  0.2085
15780TIP3   OH268754   6.718   3.464   2.547  0.3585 -0.0176  0.1047
15780TIP3    H168755   6.678   3.411   2.615  0.4268  0.0122  0.1679
15780TIP3    H268756   6.811   3.468   2.569  0.5120 -0.6364 -0.4093
15781TIP3   OH268757   2.023   5.020  16.053 -0.3801 -0.6104  0.0132
15781TIP3    H168758   2.004   4.971  16.133  0.2904 -1.0229 -0.0670
15781TIP3    H268759   2.100   4.977  16.016 -0.5657 -0.3086 -0.7601
15782TIP3   OH268760   0.437   0.763   6.230 -0.5839  0.3470  0.1908
15782TIP3    H168761   0.515   0.716   6.262 -1.0653  0.3866  1.5072
15782TIP3    H268762   0.375   0.694   6.208 -0.6449  0.3350  0.3987
15783TIP3   OH268763   0.957   5.942   5.512 -0.0397  0.3154  0.2508
15783TIP3    H168764   1.028   5.995   5.548  1.5387 -0.9675 -0.8250
15783TIP3    H268765   0.977   5.934   5.418 -0.7109 -1.3978  0.2035
15784TIP3   OH268766   2.668   4.431  11.057 -0.5301 -0.1863  0.4717
15784TIP3    H168767   2.670   4.513  11.106  1.0006 -0.5429  1.0620
15784TIP3    H268768   2.603   4.446  10.988 -0.2756  1.5233  0.5505
15785TIP3   OH268769   0.530   1.454  14.518  0.4384 -0.3837  0.2751
15785TIP3    H168770   0.487   1.528  14.475 -0.5556 -0.7925  0.5370
15785TIP3    H268771   0.488   1.377  14.478  1.8916 -0.8284 -0.4472
15786TIP3   OH268772   3.775   6.687  16.985  0.4460 -0.0685  0.5690
15786TIP3    H168773   3.796   6.625  16.914  0.4242 -0.1287  0.6136
15786TIP3    H268774   3.681   6.704  16.975  0.4267 -0.1382  0.6305
15787TIP3   OH268775   5.103   5.783   6.188  0.1817  0.0462  0.0384
15787TIP3    H168776   5.156   5.717   6.144 -0.6850 -0.2656 -0.5722
15787TIP3    H268777   5.158   5.862   6.189  0.7838 -0.3662 -0.2544
15788TIP3   OH268778   2.714   5.384  17.135 -0.6215  0.2956 -0.1937
15788TIP3    H168779   2.796   5.427  17.159  0.0977 -0.6677 -0.8425
15788TIP3    H268780   2.734   5.290  17.139 -1.0433  0.0483 -2.4591
15789TIP3   OH268781   6.072   1.655   1.668  0.2361  0.2610  0.1767
15789TIP3    H168782   6.058   1.588   1.602 -1.2007 -2.5095  3.0255
15789TIP3    H268783   6.034   1.734   1.631 -1.9390 -1.5209 -1.6773
15790TIP3   OH268784   5.734   1.404  12.120  0.4332 -0.2087  0.3603
15790TIP3    H168785   5.753   1.397  12.213  0.9225  0.0239  0.2806
15790TIP3    H268786   5.760   1.493  12.096 -0.6146  0.0662  0.2080
15791TIP3   OH268787   5.551   0.513   2.486 -0.1102 -0.3045  0.4684
15791TIP3    H168788   5.633   0.504   2.535 -0.3442 -0.4654  0.8270
15791TIP3    H268789   5.577   0.501   2.395  0.6062  1.6296  0.3693
15792TIP3   OH268790   0.005   5.879  15.344  0.1374 -0.6425 -0.4038
15792TIP3    H168791  -0.054   5.945  15.307 -1.7778 -2.4570 -0.7613
15792TIP3    H268792  -0.027   5.865  15.433 -0.5566 -2.2575 -0.8795
15793TIP3   OH268793   2.585   5.762   0.524  0.0625  0.6681 -0.5187
15793TIP3    H168794   2.658   5.818   0.551 -0.1239  1.4591 -1.5729
15793TIP3    H268795   2.616   5.721   0.443 -0.2159  0.0819 -0.3255
15794TIP3   OH268796   2.015   0.851  11.475  0.1380  0.2381  0.0000
15794TIP3    H168797   1.995   0.845  11.382 -0.7372 -3.0690  0.2748
15794TIP3    H268798   1.930   0.854  11.518  0.4937 -0.1891  0.7501
15795TIP3   OH268799   6.422   2.784  10.715  0.5778  0.0605  0.3466
15795TIP3    H168800   6.404   2.691  10.703 -2.4556  0.5291  0.4865
15795TIP3    H268801   6.482   2.788  10.789  0.6737 -1.7706  0.3998
15796TIP3   OH268802   0.721   2.315  16.733 -0.3736 -0.0734 -0.4578
15796TIP3    H168803   0.688   2.344  16.648 -3.0449 -1.2462  0.0998
15796TIP3    H268804   0.746   2.224  16.719  0.6809  0.1864 -0.3361
15797TIP3   OH268805   1.748   3.346   3.008  0.0171 -0.1162 -0.4197
15797TIP3    H168806   1.722   3.320   2.920 -0.6086  2.3170 -1.0275
15797TIP3    H268807   1.836   3.312   3.018  0.0215 -0.6118 -1.9227
15798TIP3   OH268808   4.647   5.020   4.536  0.1224  0.0932 -0.0001
15798TIP3    H168809   4.599   4.983   4.610  1.1221 -0.1526  0.5465
15798TIP3    H268810   4.627   5.113   4.538 -0.0249  0.0550  0.4579
15799TIP3   OH268811   6.257   3.165  11.888  0.3603 -0.0168 -0.0915
15799TIP3    H168812   6.221   3.201  11.806 -0.6472  1.5225  0.9565
15799TIP3    H268813   6.189   3.183  11.953  2.0708  0.8890  1.5329
15800TIP3   OH268814   5.991   2.481  13.829  0.3040 -0.1323  0.7285
15800TIP3    H168815   6.063   2.421  13.848 -0.2914 -1.0140  0.2983
15800TIP3    H268816   6.034   2.564  13.810  1.1197 -0.2696  1.8689
15801TIP3   OH268817   3.455   6.210   0.424 -0.1005  0.6176 -0.3628
15801TIP3    H168818   3.464   6.302   0.399  1.0358  0.7761  0.5288
15801TIP3    H268819   3.544   6.175   0.415 -0.6202 -0.5409 -1.2012
15802TIP3   OH268820   0.786   5.487   0.979  0.1128  0.2103 -0.3008
15802TIP3    H168821   0.799   5.392   0.988 -0.0286  0.2028 -0.1679
15802TIP3    H268822   0.874   5.522   0.965  0.0361 -0.0751 -1.6232
15803TIP3   OH268823   5.424   6.483  12.670 -0.4412  1.1632 -0.2212
15803TIP3    H168824   5.472   6.556  12.632 -0.7989  0.4921 -2.0750
15803TIP3    H268825   5.482   6.408  12.659 -0.8736  0.8079 -0.1186
15804TIP3   OH268826   1.782   2.632   5.284  0.1123 -0.5129 -0.4016
15804TIP3    H168827   1.862   2.684   5.280 -0.0965 -0.2559 -1.9811
15804TIP3    H268828   1.718   2.682   5.233 -0.3011 -1.9521 -1.3743
15805TIP3   OH268829   4.060   5.057  13.927 -0.0761  0.1375  0.1637
15805TIP3    H168830   4.054   4.966  13.898 -0.3878  0.3926 -0.5782
15805TIP3    H268831   4.150   5.083  13.907  0.0925 -0.0805  0.6154
15806TIP3   OH268832   6.193   4.447   3.303 -0.3187  0.2047  0.1644
15806TIP3    H168833   6.106   4.425   3.269 -0.4509  1.2613 -0.2549
15806TIP3    H268834   6.249   4.375   3.277 -0.6060  0.5684 -1.5938
15807TIP3   OH268835   4.693   1.436  11.769 -0.5275 -0.0486  0.5048
15807TIP3    H168836   4.776   1.411  11.728  0.5342 -0.7643  2.8603
15807TIP3    H268837   4.650   1.352  11.788 -1.0993  0.2709  0.6414
15808TIP3   OH268838   0.673   4.549  12.321  0.0028 -0.0188  0.4711
15808TIP3    H168839   0.602   4.490  12.296 -0.0214  0.2012 -0.0015
15808TIP3    H268840   0.701   4.519  12.407  0.1702 -0.8880  0.1215
15809TIP3   OH268841   3.602   1.528  12.334  0.6000  0.3105 -0.5258
15809TIP3    H168842   3.583   1.547  12.426  0.2049 -0.2609 -0.4924
15809TIP3    H268843   3.638   1.611  12.301  1.0805  0.4173  0.2280
15810TIP3   OH268844   0.098   5.932  12.598 -0.2632 -0.0236  0.0121
15810TIP3    H168845   0.183   5.974  12.584  0.1989  1.4586  5.1611
15810TIP3    H268846   0.040   6.004  12.623 -2.4854 -1.3133 -1.1352
15811TIP3   OH268847   4.106   4.036  11.571 -0.3875 -0.0616  0.3112
15811TIP3    H168848   4.137   4.061  11.658  2.5464  2.0759 -1.1658
15811TIP3    H268849   4.098   4.119  11.524 -1.9853 -1.1440 -1.4818
15812TIP3   OH268850   0.121   3.475   3.491 -0.3413 -0.0211  0.1899
15812TIP3    H168851   0.026   3.470   3.480 -0.6925 -1.4955  2.9299
15812TIP3    H268852   0.157   3.425   3.417 -1.7168  0.0864 -0.5767
15813TIP3   OH268853   2.527   0.837   4.683 -0.7393 -0.2416 -0.5011
15813TIP3    H168854   2.563   0.923   4.703 -0.1749 -0.9216  1.8401
15813TIP3    H268855   2.576   0.807   4.607 -1.6177  1.8341 -1.9800
15814TIP3   OH268856   1.305   5.683  13.760 -0.2818 -0.0072 -0.5122
15814TIP3    H168857   1.294   5.699  13.854 -0.0632  2.7854 -0.8838
15814TIP3    H268858   1.276   5.593  13.748  0.8330 -0.8662  2.3991
15815TIP3   OH268859   1.836   0.024   3.646  0.1827 -0.2852  0.7611
15815TIP3    H168860   1.814   0.104   3.695  0.0662 -0.9361  1.7923
15815TIP3    H268861   1.772   0.023   3.574 -2.2094 -1.2660  2.7482
15816TIP3   OH268862   5.042   1.762   5.748  0.1136 -0.3315 -0.2972
15816TIP3    H168863   5.079   1.760   5.660 -0.1203 -0.4265 -0.3933
15816TIP3    H268864   4.978   1.833   5.746  1.1823  0.6888  0.2304
15817TIP3   OH268865   2.294   1.130  14.832  0.1000  0.1221 -0.3315
15817TIP3    H168866   2.360   1.180  14.880  0.0825 -1.0357  0.9766
15817TIP3    H268867   2.221   1.122  14.893 -0.5978  0.0036 -1.1652
15818TIP3   OH268868   3.366   2.455   1.108 -0.5010 -1.0476  0.3489
15818TIP3    H168869   3.426   2.529   1.119 -1.0674 -0.2032 -1.8206
15818TIP3    H268870   3.305   2.463   1.181 -1.1487  1.2445 -0.3690
15819TIP3   OH268871   2.350   4.994  12.464 -0.5915  0.0188  0.1251
15819TIP3    H168872   2.411   4.984  12.537  0.7092  0.2868 -0.8665
15819TIP3    H268873   2.401   5.042  12.398 -1.6063 -0.4980 -1.0678
15820TIP3   OH268874   5.296   4.867   3.142 -0.0641  0.3045 -0.3756
15820TIP3    H168875   5.348   4.906   3.071  0.6607 -1.8068 -1.0723
15820TIP3    H268876   5.356   4.805   3.184 -0.5112  1.4019  2.0724
15821TIP3   OH268877   2.542   0.558   2.225 -0.3397 -0.1111 -0.1007
15821TIP3    H168878   2.487   0.593   2.295  0.0496  2.2235 -0.8825
15821TIP3    H268879   2.632   0.580   2.251 -0.1570  0.3693 -1.0829
15822TIP3   OH268880   5.281   0.495  15.915  0.5602  0.1888  0.2259
15822TIP3    H168881   5.195   0.457  15.898  0.3667 -0.1271  1.7994
15822TIP3    H268882   5.343   0.433  15.878  0.1277  0.6724 -1.3950
15823TIP3   OH268883   2.940   0.596   2.047  0.1639 -0.0993  0.1065
15823TIP3    H168884   2.907   0.507   2.059  1.5633 -0.6967 -0.2532
15823TIP3    H268885   2.934   0.612   1.953  1.9343 -0.6714 -0.1334
15824TIP3   OH268886   6.491   6.473   3.707 -0.3812  0.3007  0.1131
15824TIP3    H168887   6.427   6.540   3.733 -0.0290  0.8513 -0.4023
15824TIP3    H268888   6.574   6.503   3.743 -0.0276  0.6950 -0.9797
15825TIP3   OH268889   5.735   5.631  12.881  0.1071 -0.3784 -0.0108
15825TIP3    H168890   5.678   5.590  12.817 -1.4542 -0.1011  1.1331
15825TIP3    H268891   5.676   5.684  12.935  1.3890 -0.3603  1.4497
15826TIP3   OH268892   0.316   3.179   3.562  0.1330  0.0212  0.0140
15826TIP3    H168893   0.338   3.094   3.599 -2.0972 -1.7872 -2.4335
15826TIP3    H268894   0.222   3.189   3.579  0.2434  1.7694 -0.1837
15827TIP3   OH268895   0.506   3.423   5.640 -0.5570 -0.2099 -0.0682
15827TIP3    H168896   0.525   3.366   5.565 -0.3971  1.6449 -1.5213
15827TIP3    H268897   0.413   3.442   5.633 -0.6477 -0.4314  0.5030
15828TIP3   OH268898   3.818   2.542  14.138  0.2247  0.8127 -0.7578
15828TIP3    H168899   3.850   2.577  14.055  1.8231  0.4519 -0.3462
15828TIP3    H268900   3.854   2.453  14.142 -2.8711 -0.5907 -1.3073
15829TIP3   OH268901   0.485   5.961  14.336  0.4914 -0.1962 -0.1136
15829TIP3    H168902   0.562   5.968  14.279  0.1578 -0.9775 -0.6790
15829TIP3    H268903   0.465   5.868  14.336 -0.7704  0.0636 -0.3939
15830TIP3   OH268904   1.996   4.342   2.006  0.4530  0.4141  0.0654
15830TIP3    H168905   2.068   4.286   2.035  1.0887  0.7876 -0.7778
15830TIP3    H268906   1.973   4.308   1.919 -2.5514 -1.7936  1.5093
15831TIP3   OH268907   3.664   5.501   0.245  0.6835 -0.9603 -0.5951
15831TIP3    H168908   3.725   5.506   0.318 -0.7877  0.5635  0.6127
15831TIP3    H268909   3.643   5.593   0.225 -1.8049 -1.4115 -0.3854
15832TIP3   OH268910   1.147   4.131  10.607 -0.5798  0.1668  0.0796
15832TIP3    H168911   1.239   4.155  10.596  0.0547 -1.6451  1.1176
15832TIP3    H268912   1.111   4.134  10.518  0.6080  0.3682 -0.4100
15833TIP3   OH268913   3.526   2.578   2.160  0.3311  0.2640  0.2591
15833TIP3    H168914   3.607   2.619   2.191  1.5338 -1.5055 -0.4420
15833TIP3    H268915   3.497   2.523   2.232  0.2318  0.2144  0.1821
15834TIP3   OH268916   4.825   1.762   4.317 -0.1790  0.2048 -0.1581
15834TIP3    H168917   4.879   1.837   4.294  0.5011 -0.6482 -1.4711
15834TIP3    H268918   4.847   1.695   4.251 -1.9805 -0.5731 -0.0294
15835TIP3   OH268919   1.978   4.888  14.301  0.3072 -0.0851 -0.2421
15835TIP3    H168920   2.007   4.978  14.318 -3.0048  1.2825 -1.0045
15835TIP3    H268921   1.934   4.861  14.382  0.7701 -0.7924 -0.2231
15836TIP3   OH268922   5.086   3.676   3.648  0.0129  0.7524  0.2451
15836TIP3    H168923   5.018   3.720   3.597 -0.5609 -1.0207 -0.5665
15836TIP3    H268924   5.154   3.655   3.584 -0.7210 -1.5129  0.1385
15837TIP3   OH268925   2.346   1.865  12.343  0.3461  0.0712  1.0346
15837TIP3    H168926   2.432   1.905  12.328  0.3263  0.7231  2.4598
15837TIP3    H268927   2.306   1.861  12.257  1.1728  1.2857  0.5615
15838TIP3   OH268928   5.568   4.323  13.048  0.5435  0.2458 -0.1303
15838TIP3    H168929   5.561   4.401  13.102 -0.7405  0.0222  0.0597
15838TIP3    H268930   5.618   4.352  12.971  1.8429  0.7156  0.8538
15839TIP3   OH268931   0.381   5.581   5.260 -0.3127  0.4707  0.8068
15839TIP3    H168932   0.292   5.606   5.284  0.2747  0.8237  2.7832
15839TIP3    H268933   0.391   5.491   5.292 -0.8289 -0.6550 -1.9415
15840TIP3   OH268934   4.449   3.522  13.535 -0.1873 -0.5244 -0.4406
15840TIP3    H168935   4.386   3.504  13.606  1.2439 -0.6590  0.8599
15840TIP3    H268936   4.424   3.461  13.465  0.3688 -2.8617  1.2553
15841TIP3   OH268937   1.560   0.847   3.067  0.0025  0.3501 -0.7050
15841TIP3    H168938   1.585   0.910   3.135  0.6216 -0.8490  0.2308
15841TIP3    H268939   1.466   0.834   3.080 -0.1307  1.1066 -0.9249
15842TIP3   OH268940   2.410   5.845   3.657  0.0803  0.1117 -0.3650
15842TIP3    H168941   2.416   5.788   3.581  1.2229  1.7449 -1.5749
15842TIP3    H268942   2.326   5.890   3.646 -1.5146 -2.2392  1.3458
15843TIP3   OH268943   3.057   3.052   6.442 -0.2067  0.2827  0.6292
15843TIP3    H168944   2.965   3.068   6.462 -0.2758 -1.4211  1.8942
15843TIP3    H268945   3.072   3.099   6.360 -2.5322 -0.4467 -0.2807
15844TIP3   OH268946   0.731   2.092  15.826 -0.1037 -0.3234 -0.1289
15844TIP3    H168947   0.707   2.074  15.735 -0.7554 -0.0818 -0.0122
15844TIP3    H268948   0.658   2.144  15.860  0.0716 -0.5225  0.5716
15845TIP3   OH268949   5.739   4.112  13.293 -0.2168 -0.4451 -0.0240
15845TIP3    H168950   5.703   4.201  13.294 -0.4997 -0.5533  1.2118
15845TIP3    H268951   5.670   4.059  13.253 -0.1535 -0.1464 -0.5270
15846TIP3   OH268952   0.594   0.864   1.507 -0.5722  0.1656  0.1789
15846TIP3    H168953   0.573   0.955   1.526  0.1779  0.3976 -0.0882
15846TIP3    H268954   0.588   0.819   1.591  1.2898  0.8984  0.7384
15847TIP3   OH268955   2.240   2.030   1.292 -0.3526  0.4276 -0.5921
15847TIP3    H168956   2.163   2.086   1.301 -0.4358  0.2091  0.2040
15847TIP3    H268957   2.205   1.941   1.287 -0.2201  0.4334 -1.7964
15848TIP3   OH268958   3.968   5.062  14.561  0.2157 -0.0146 -0.0267
15848TIP3    H168959   4.019   5.132  14.603  0.0820  0.2879 -0.3670
15848TIP3    H268960   3.977   4.987  14.621  0.3653  0.2892  0.3345
15849TIP3   OH268961   4.728   0.742  11.722 -0.1938 -0.5030 -0.4778
15849TIP3    H168962   4.636   0.745  11.695 -0.7757  0.4065  1.4119
15849TIP3    H268963   4.777   0.766  11.643 -1.7041  0.9469 -1.0404
15850TIP3   OH268964   1.185   4.476  15.849 -0.2760 -0.0515 -0.1326
15850TIP3    H168965   1.096   4.462  15.881  0.2039 -1.4417  0.7042
15850TIP3    H268966   1.203   4.568  15.867 -1.2378  0.0263  0.4950
15851TIP3   OH268967   6.665   1.976   4.558 -0.1950 -0.1975 -0.9199
15851TIP3    H168968   6.636   1.946   4.471 -1.5248 -4.0248  0.6343
15851TIP3    H268969   6.706   1.900   4.597 -0.4678  1.0913  2.1835
15852TIP3   OH268970   6.728   3.583  11.889 -0.5875  0.1240 -0.5636
15852TIP3    H168971   6.761   3.510  11.941 -1.5306  0.2106  0.1853
15852TIP3    H268972   6.702   3.543  11.806 -2.0888 -0.6212  0.2179
15853TIP3   OH268973   0.966   0.368   5.245 -0.1398  0.0588 -0.3587
15853TIP3    H168974   0.927   0.418   5.316 -2.9924 -3.6290  0.9431
15853TIP3    H268975   0.892   0.337   5.193  1.3095 -3.1767 -0.7506
15854TIP3   OH268976   0.545   5.597   0.909  0.2146 -0.2967  0.1329
15854TIP3    H168977   0.636   5.571   0.922  0.2257 -0.6461 -0.6098
15854TIP3    H268978   0.529   5.662   0.978  0.5250 -1.4064  1.2762
15855TIP3   OH268979   1.199   0.135   2.171  0.0563 -0.7833  0.0075
15855TIP3    H168980   1.191   0.108   2.263  0.3110 -0.6609  0.0670
15855TIP3    H268981   1.191   0.054   2.122  2.3107 -1.2231  0.2539
15856TIP3   OH268982   5.622   6.254   6.744  0.7294 -0.2108 -0.3177
15856TIP3    H168983   5.630   6.202   6.664  0.7282 -0.1874 -0.3330
15856TIP3    H268984   5.681   6.328   6.731 -0.4922  0.6784 -0.9863
15857TIP3   OH268985   3.648   3.272  14.316  0.7800 -0.5197  0.0687
15857TIP3    H168986   3.676   3.215  14.246  1.1787 -1.1416  0.7219
15857TIP3    H268987   3.568   3.231  14.351  0.1511  0.1852 -0.4923
15858TIP3   OH268988   1.472   1.850  11.438  0.3327  0.2169  0.2093
15858TIP3    H168989   1.526   1.775  11.413  1.3386  1.4154 -1.3716
15858TIP3    H268990   1.405   1.813  11.495  1.2631 -1.7459  0.1087
15859TIP3   OH268991   1.456   4.229   5.353 -0.4946 -0.1279 -0.3974
15859TIP3    H168992   1.480   4.136   5.345  1.3921  0.2977 -0.1904
15859TIP3    H268993   1.465   4.264   5.264 -0.4172  0.0137 -0.3347
15860TIP3   OH268994   5.635   4.063  12.984  0.1235 -0.0187 -0.1315
15860TIP3    H168995   5.540   4.054  12.985  0.0823  0.3792 -0.0776
15860TIP3    H268996   5.650   4.157  12.993  0.4917  0.0956 -1.7039
15861TIP3   OH268997   4.183   1.074   6.002  0.8223  0.4098 -0.2393
15861TIP3    H168998   4.198   1.093   6.095  1.7007 -0.7161 -0.1277
15861TIP3    H268999   4.088   1.079   5.991  0.7829  1.6443  0.4594
15862TIP3   OH269000   4.176   5.927   4.935  0.3232 -0.2540 -0.0221
15862TIP3    H169001   4.095   5.887   4.965  0.9192 -0.9330  0.7501
15862TIP3    H269002   4.244   5.862   4.957  1.0112  0.0626 -1.1376
15863TIP3   OH269003   6.692   4.399  14.601  0.2506 -0.2636 -0.1270
15863TIP3    H169004   6.609   4.398  14.647  0.2965 -1.1281 -0.0517
15863TIP3    H269005   6.673   4.360  14.516  0.7378 -1.1662  0.1723
15864TIP3   OH269006   1.546   1.190   1.713 -0.0192 -0.5815 -0.1695
15864TIP3    H169007   1.462   1.202   1.667 -0.5193 -1.0121  0.6149
15864TIP3    H269008   1.544   1.253   1.784  0.5749 -0.2092 -0.4757
15865TIP3   OH269009   6.555   3.058   1.765 -0.2414  0.2794 -0.4331
15865TIP3    H169010   6.612   3.132   1.745  0.5611 -0.4262 -0.8383
15865TIP3    H269011   6.608   2.981   1.743 -1.2836 -0.3995 -0.6312
15866TIP3   OH269012   0.312   1.722   3.449  0.7882  0.0946 -0.9728
15866TIP3    H169013   0.264   1.768   3.518  0.0620 -1.4566 -0.3807
15866TIP3    H269014   0.404   1.744   3.465  0.7595 -1.0200  1.1844
15867TIP3   OH269015   5.414   0.827   3.606 -0.1765 -0.1036 -0.0215
15867TIP3    H169016   5.474   0.862   3.672 -0.7368  0.9224 -0.0393
15867TIP3    H269017   5.330   0.868   3.625 -0.8129 -1.2898 -0.1901
15868TIP3   OH269018   0.951   6.157   6.411 -0.2110 -0.1025 -0.3517
15868TIP3    H169019   1.018   6.224   6.428 -0.3298  0.1011 -0.6806
15868TIP3    H269020   1.002   6.077   6.397 -0.1067 -0.2476  0.8037
15869TIP3   OH269021   0.432   6.560  11.397 -0.5704  0.2588  0.1739
15869TIP3    H169022   0.360   6.623  11.399 -0.2991  0.5929  2.9234
15869TIP3    H269023   0.509   6.612  11.421 -0.0094 -0.7546  0.6121
15870TIP3   OH269024   1.275   3.348   6.644 -0.1317  0.1907 -0.8367
15870TIP3    H169025   1.254   3.301   6.563 -0.9021 -1.7963  0.4395
15870TIP3    H269026   1.201   3.331   6.702  0.7628  0.8820  0.5722
15871TIP3   OH269027   5.590   3.966   4.412 -0.3370 -0.3257  0.4122
15871TIP3    H169028   5.678   3.971   4.374 -0.8138  2.1529 -0.5749
15871TIP3    H269029   5.532   3.956   4.336 -1.0395  0.6720  0.7900
15872TIP3   OH269030   5.572   5.011  12.506 -0.7017 -0.4064  0.0659
15872TIP3    H169031   5.544   4.962  12.429 -0.3282  1.2029 -1.1768
15872TIP3    H269032   5.561   5.103  12.480 -3.1119  0.2357  2.9277
15873TIP3   OH269033   1.512   4.260  16.778 -0.6266  0.0339  0.4651
15873TIP3    H169034   1.499   4.169  16.803 -1.3571 -0.1087 -0.3814
15873TIP3    H269035   1.440   4.279  16.717  1.0136  0.3586 -1.4990
15874TIP3   OH269036   0.714   1.910   3.903  0.1713 -0.4405  0.1808
15874TIP3    H169037   0.764   1.835   3.935 -0.9212 -0.7831  1.1199
15874TIP3    H269038   0.779   1.980   3.896  0.8053 -0.8920  1.3396
15875TIP3   OH269039   0.730   0.933  11.582 -0.2498  0.1484 -0.2438
15875TIP3    H169040   0.793   0.991  11.538  0.7077 -0.6662  0.0076
15875TIP3    H269041   0.750   0.943  11.675 -0.5024 -0.1003 -0.1627
15876TIP3   OH269042   4.119   5.098   3.872  0.4678 -0.5471  0.1317
15876TIP3    H169043   4.172   5.177   3.874  0.6427 -0.6388 -0.4601
15876TIP3    H269044   4.108   5.073   3.963 -1.7800  1.6077  0.5520
15877TIP3   OH269045   5.069   6.055  14.304  0.0286  0.1498  0.2996
15877TIP3    H169046   5.072   5.977  14.360  0.2346  1.0800  1.6261
15877TIP3    H269047   4.980   6.090  14.317 -0.4746 -0.4945 -1.2129
15878TIP3   OH269048   1.141   0.206  15.727 -0.4229  0.0447 -0.0220
15878TIP3    H169049   1.083   0.191  15.801 -0.1672 -1.4699 -0.0962
15878TIP3    H269050   1.229   0.207  15.764 -0.3341 -0.0780 -0.2258
15879TIP3   OH269051   1.303   5.234   3.724  0.0266  0.5832  0.2904
15879TIP3    H169052   1.277   5.207   3.812 -0.7227 -1.2501 -0.4418
15879TIP3    H269053   1.258   5.317   3.710 -1.2094  0.0663  1.0267
15880TIP3   OH269054   0.969   2.745   5.136 -0.4395  0.1905 -0.1804
15880TIP3    H169055   1.056   2.706   5.145  0.0510  1.2005 -0.3413
15880TIP3    H269056   0.947   2.733   5.043  1.2445  3.2544 -1.1315
15881TIP3   OH269057   4.043   4.642   2.533  0.0935 -0.4244  0.4605
15881TIP3    H169058   3.988   4.579   2.487  0.7956 -1.5725  1.1296
15881TIP3    H269059   3.982   4.709   2.564 -0.4248  0.3113 -1.9296
15882TIP3   OH269060   4.939   1.699   4.598  0.1872 -0.0002 -0.3979
15882TIP3    H169061   4.924   1.793   4.601 -0.2496 -0.0694 -0.3297
15882TIP3    H269062   4.926   1.676   4.506  1.8270  0.2455 -0.7151
15883TIP3   OH269063   5.109   0.868   2.642  0.4918 -0.8416 -0.3468
15883TIP3    H169064   5.060   0.831   2.716  0.2325  0.3429  0.0986
15883TIP3    H269065   5.200   0.844   2.659  0.6812  0.7405  1.2615
15884TIP3   OH269066   0.237   6.726   1.308 -0.4471 -0.6677  0.1975
15884TIP3    H169067   0.235   6.694   1.217 -0.5570  2.0111 -0.8291
15884TIP3    H269068   0.311   6.786   1.311 -1.2985  0.3788  1.4666
15885TIP3   OH269069   1.245   3.248  15.371 -0.2452 -0.5556  0.1584
15885TIP3    H169070   1.281   3.182  15.311 -1.0534 -0.5319 -0.3657
15885TIP3    H269071   1.207   3.314  15.314 -0.3998 -0.1711  0.7006
15886TIP3   OH269072   4.023   4.783   4.199  0.0731  0.4724  0.2339
15886TIP3    H169073   3.964   4.708   4.198 -0.4769  0.7920 -2.8111
15886TIP3    H269074   4.110   4.746   4.187  0.0523  0.2298  0.8057
15887TIP3   OH269075   0.543   3.161  16.388 -0.2321 -0.1958 -0.1026
15887TIP3    H169076   0.507   3.212  16.315 -0.0202 -1.5719 -1.2072
15887TIP3    H269077   0.466   3.129  16.435 -0.3785  2.0743  1.3358
15888TIP3   OH269078   4.004   0.006  14.479 -0.1647 -0.7884  0.2167
15888TIP3    H169079   4.081  -0.015  14.532  1.0773 -0.9228 -1.5513
15888TIP3    H269080   4.040   0.036  14.396 -2.0387 -0.2446 -0.4479
15889TIP3   OH269081   1.647   5.040  13.492 -0.3001 -0.1314 -0.4325
15889TIP3    H169082   1.597   5.121  13.481  0.0743  0.3217  1.0397
15889TIP3    H269083   1.673   5.040  13.584 -2.2834 -3.0638  0.2655
15890TIP3   OH269084   1.072   6.394  16.956 -0.1749  0.1746  0.5146
15890TIP3    H169085   1.064   6.413  16.863 -0.7990  3.8307  1.1411
15890TIP3    H269086   0.990   6.351  16.979  0.3693 -1.6041 -0.7320
15891TIP3   OH269087   2.396   3.541   1.426  0.1017  0.4249 -0.1896
15891TIP3    H169088   2.487   3.565   1.443  0.2560  0.4599 -1.0286
15891TIP3    H269089   2.387   3.547   1.331 -0.9156  0.8927 -0.0743
15892TIP3   OH269090   5.714   0.167   4.396 -0.4096 -0.5933  0.3625
15892TIP3    H169091   5.737   0.079   4.424 -3.0717 -2.7772 -3.4693
15892TIP3    H269092   5.619   0.172   4.409 -0.6022  0.9555 -1.2357
15893TIP3   OH269093   4.194   5.183   0.718 -0.0681  0.4489 -0.3683
15893TIP3    H169094   4.287   5.205   0.720 -0.1887  0.9877 -0.4226
15893TIP3    H269095   4.153   5.258   0.673 -0.4434 -0.0815 -0.9260
15894TIP3   OH269096   3.647   1.932  11.802 -0.1014 -0.2211 -0.2396
15894TIP3    H169097   3.715   1.865  11.810 -0.3832 -0.4757  0.0589
15894TIP3    H269098   3.568   1.890  11.836 -1.2119 -1.0624 -3.4712
15895TIP3   OH269099   4.967   0.282   3.977 -0.2090 -0.0825 -0.6606
15895TIP3    H169100   4.899   0.216   3.987  1.5961 -1.9477  0.0665
15895TIP3    H269101   4.991   0.305   4.067 -0.9683  1.8286 -0.8907
15896TIP3   OH269102   5.261   3.437  12.478  0.2510 -0.2328 -0.3321
15896TIP3    H169103   5.345   3.443  12.524 -0.5578  0.0033  1.1914
15896TIP3    H269104   5.242   3.527  12.451  0.7249 -0.3705 -1.1383
15897TIP3   OH269105   0.226   1.817   4.510 -0.2332 -0.0282  0.2160
15897TIP3    H169106   0.185   1.754   4.569 -1.9515  1.5853  0.8694
15897TIP3    H269107   0.237   1.770   4.428 -1.3033 -1.2368  0.7335
15898TIP3   OH269108   3.407   0.526  17.150  0.4946 -0.4103 -0.3387
15898TIP3    H169109   3.345   0.480  17.206 -1.1531  0.1997 -1.5819
15898TIP3    H269110   3.443   0.458  17.093 -0.9779 -0.4135 -1.3145
15899TIP3   OH269111   5.814   3.932   3.885  0.5286 -0.2241  1.1360
15899TIP3    H169112   5.861   4.007   3.848 -0.2956 -0.3448 -0.2292
15899TIP3    H269113   5.751   3.970   3.946 -0.3130  0.2779 -0.0098
15900TIP3   OH269114   6.577   0.631   2.176 -0.1215  0.3675  0.6411
15900TIP3    H169115   6.517   0.654   2.105  0.0179 -1.5425 -0.1708
15900TIP3    H269116   6.521   0.605   2.248 -0.2635  0.9529  0.7461
15901TIP3   OH269117   2.753   2.350  17.252  0.4099 -0.1523  0.4331
15901TIP3    H169118   2.734   2.302  17.172  0.5448  0.1566  0.2126
15901TIP3    H269119   2.670   2.392  17.276  0.2554 -0.5991  0.7047
15902TIP3   OH269120   3.453   2.955  16.182  0.1636 -1.0148  0.3133
15902TIP3    H169121   3.390   3.006  16.132  0.0385 -1.4457  0.0272
15902TIP3    H269122   3.515   3.020  16.216 -2.0583 -0.1431  3.1387
15903TIP3   OH269123   6.286   1.916   3.492 -0.3255 -0.5318  1.0875
15903TIP3    H169124   6.200   1.937   3.457 -0.7349 -0.8689  1.8634
15903TIP3    H269125   6.342   1.906   3.415 -0.4769  1.7202  0.6408
15904TIP3   OH269126   3.294   6.339  13.946 -0.2314 -0.0633  0.5277
15904TIP3    H169127   3.382   6.371  13.929 -1.1964  1.3336 -2.4333
15904TIP3    H269128   3.259   6.397  14.013 -0.0597  1.7052 -0.8508
15905TIP3   OH269129   4.975   3.691   5.120  0.0388 -0.1731 -0.5450
15905TIP3    H169130   4.979   3.772   5.171 -0.7500 -0.5702  0.1696
15905TIP3    H269131   4.881   3.677   5.104  0.0293 -1.6673  0.5562
15906TIP3   OH269132   2.118   3.824  14.278 -0.2273 -0.4983 -0.1992
15906TIP3    H169133   2.192   3.866  14.321  1.0285 -0.6540 -2.0888
15906TIP3    H269134   2.067   3.896  14.240  0.5590 -0.5028 -1.3169
15907TIP3   OH269135   5.910   2.542   3.796  0.1401  0.7223  0.1995
15907TIP3    H169136   5.838   2.481   3.811  0.0968  1.0882  1.5281
15907TIP3    H269137   5.878   2.627   3.825  0.5883  1.1859 -0.6122
15908TIP3   OH269138   0.488   6.008  16.500 -0.0335  0.5220  0.1930
15908TIP3    H169139   0.430   5.959  16.442  0.5909 -0.1362  0.1078
15908TIP3    H269140   0.446   6.003  16.586 -0.5959  0.8933 -0.0519
15909TIP3   OH269141   1.813   0.858  11.660 -0.4937  0.5227  0.2136
15909TIP3    H169142   1.859   0.850  11.744 -0.5792  0.3233  0.2413
15909TIP3    H269143   1.729   0.814  11.674 -0.1104 -0.3967 -0.2726
15910TIP3   OH269144   6.696   0.359  17.032 -0.3403  0.5782  0.3456
15910TIP3    H169145   6.715   0.368  16.938  0.8328 -0.3150  0.4736
15910TIP3    H269146   6.628   0.293  17.037  1.1197 -1.0064  0.2061
15911TIP3   OH269147   0.911   0.074  13.374  0.5800  0.1601  0.1510
15911TIP3    H169148   0.962  -0.004  13.397 -0.1281 -0.0052  1.2390
15911TIP3    H269149   0.949   0.144  13.427  0.3213  0.2503  0.2202
15912TIP3   OH269150   4.508   1.992  16.645  0.2434  0.4118  0.0959
15912TIP3    H169151   4.496   1.927  16.576 -1.3600 -0.8503  1.4857
15912TIP3    H269152   4.603   2.002  16.652  0.4589  0.2613 -1.9546
15913TIP3   OH269153   1.911   2.714   1.084 -0.3136 -0.4912 -0.4442
15913TIP3    H169154   1.998   2.684   1.110 -0.4799 -0.1421  0.5606
15913TIP3    H269155   1.853   2.678   1.151 -0.9856 -0.9571 -1.2597
15914TIP3   OH269156   0.585   1.790  12.406  0.3317 -0.2632 -0.7938
15914TIP3    H169157   0.558   1.833  12.326 -1.9289 -1.9479 -1.0488
15914TIP3    H269158   0.503   1.765  12.449  1.4511 -2.7920  0.0950
15915TIP3   OH269159   3.284   5.354  16.523 -0.2602 -0.3761  0.3891
15915TIP3    H169160   3.200   5.392  16.548 -0.4168 -0.9173  0.6872
15915TIP3    H269161   3.297   5.281  16.584 -1.0164 -2.2068 -1.4972
15916TIP3   OH269162   2.561   3.164   4.812  0.6768  0.2148  0.7424
15916TIP3    H169163   2.621   3.178   4.885  0.1752 -0.7076  1.3437
15916TIP3    H269164   2.606   3.202   4.736  0.4663  2.7761  1.7992
15917TIP3   OH269165   0.322   6.237   2.053 -0.2221  0.3119  0.0217
15917TIP3    H169166   0.337   6.302   2.122 -1.7227  0.3941  0.2913
15917TIP3    H269167   0.313   6.289   1.973  1.6027  0.2117 -0.3016
15918TIP3   OH269168   0.732   3.274  14.407 -0.2394  0.1362 -0.1333
15918TIP3    H169169   0.662   3.320  14.360  1.7442  0.2716 -3.2985
15918TIP3    H269170   0.743   3.192  14.358 -1.1315 -2.0911  3.0721
15919TIP3   OH269171   1.508   2.206   0.442 -0.2930  0.5281  0.1317
15919TIP3    H169172   1.543   2.292   0.420 -0.3898  0.5081 -0.0998
15919TIP3    H269173   1.415   2.212   0.424 -0.7602  1.1398  2.4227
15920TIP3   OH269174   6.713   4.355  12.049  0.5940  0.3419  0.3918
15920TIP3    H169175   6.679   4.412  12.119 -1.3423 -0.1672 -0.0833
15920TIP3    H269176   6.767   4.413  11.996 -0.8907  1.6431  0.2359
15921TIP3   OH269177   5.240   4.451   1.429 -0.2059  0.2926  0.0642
15921TIP3    H169178   5.257   4.372   1.481 -2.4218 -0.5334 -0.3710
15921TIP3    H269179   5.321   4.464   1.380 -0.0695 -2.3140 -0.5897
15922TIP3   OH269180   3.531   3.022   4.295  0.3740  0.1199 -0.1562
15922TIP3    H169181   3.582   2.949   4.330 -2.4158 -1.7783  0.3008
15922TIP3    H269182   3.527   3.086   4.366 -1.6737 -1.8166  1.6379
15923TIP3   OH269183   3.873   0.421   4.454  0.4098  0.0820 -0.0283
15923TIP3    H169184   3.825   0.495   4.418  0.3462 -0.1766 -0.4888
15923TIP3    H269185   3.940   0.460   4.509  1.4873  0.5566 -1.6087
15924TIP3   OH269186   1.140   3.761  11.239  0.4919  0.7283  0.2342
15924TIP3    H169187   1.115   3.681  11.192  0.4154  0.0259  1.4260
15924TIP3    H269188   1.114   3.832  11.180  1.8234 -0.1088 -1.4720
15925TIP3   OH269189   3.926   6.063  11.544  0.2136  0.2057  0.0566
15925TIP3    H169190   3.846   6.114  11.552 -0.2925 -0.2433 -1.5492
15925TIP3    H269191   3.920   5.997  11.613 -0.5171  0.5604  0.3393
15926TIP3   OH269192   5.345   0.182  13.793 -0.6604  0.0346  0.5553
15926TIP3    H169193   5.267   0.229  13.763 -0.0694  0.3307 -0.5722
15926TIP3    H269194   5.335   0.178  13.888 -0.2981  3.2988  0.8489
15927TIP3   OH269195   3.538   0.469  11.655 -0.1018 -0.3374  0.2026
15927TIP3    H169196   3.629   0.456  11.630  0.5037  0.9879  1.5492
15927TIP3    H269197   3.525   0.410  11.730 -0.2705 -0.3469  0.1667
15928TIP3   OH269198   6.469   1.962  11.930 -0.1389  1.0491  0.4415
15928TIP3    H169199   6.446   1.902  11.859 -0.3832 -0.1646  1.5224
15928TIP3    H269200   6.386   2.000  11.958 -0.0424  1.5271  0.1046
15929TIP3   OH269201   3.726   6.079   0.899  0.4172  0.0403 -0.0359
15929TIP3    H169202   3.736   6.028   0.818  0.8399  0.9119 -0.5395
15929TIP3    H269203   3.772   6.161   0.882 -1.3316  1.1406  0.2820
15930TIP3   OH269204   0.074   0.059  14.416 -0.1863 -0.0361 -0.7125
15930TIP3    H169205   0.095  -0.002  14.346  0.3235  0.7458 -1.2619
15930TIP3    H269206   0.142   0.126  14.411  1.5954 -1.4242  2.3756
15931TIP3   OH269207   0.927   4.277  13.181  0.1144 -0.2677 -0.0473
15931TIP3    H169208   0.951   4.365  13.151  1.1844 -0.0202  1.4218
15931TIP3    H269209   0.843   4.259  13.139 -0.1135  1.4529 -0.3951
15932TIP3   OH269210   2.963   4.774   0.585  0.3122 -0.3347 -0.7009
15932TIP3    H169211   2.918   4.713   0.644  1.1512 -0.8248 -0.5457
15932TIP3    H269212   2.912   4.855   0.590  2.3965  1.0283  3.7452
15933TIP3   OH269213   2.834   4.016  14.898 -0.1229 -0.7030 -0.0236
15933TIP3    H169214   2.884   3.947  14.855  2.8427  0.8061  0.6828
15933TIP3    H269215   2.886   4.095  14.885 -1.9388  0.8769  1.5556
15934TIP3   OH269216   2.604   5.371  12.931  0.1228 -0.3688 -0.0261
15934TIP3    H169217   2.672   5.315  12.895  0.2950  0.0906 -0.4260
15934TIP3    H269218   2.525   5.350  12.881  0.0837 -0.5608  0.1155
15935TIP3   OH269219   4.544   4.466  11.233  0.0894 -0.4287  0.0630
15935TIP3    H169220   4.617   4.419  11.272 -0.1578 -2.2319 -1.5104
15935TIP3    H269221   4.538   4.432  11.144 -3.4716 -1.3822  0.5154
15936TIP3   OH269222   3.541   2.862  13.339 -0.4023  0.1287  0.7407
15936TIP3    H169223   3.549   2.777  13.382 -0.7961 -0.3426 -0.0803
15936TIP3    H269224   3.631   2.893  13.330 -0.2691 -0.1216  1.1945
15937TIP3   OH269225   3.418   1.293  15.060 -0.1033  0.4690  0.2258
15937TIP3    H169226   3.435   1.375  15.014  0.4036  0.2452  0.0053
15937TIP3    H269227   3.423   1.225  14.993  0.4655  0.1582  0.5713
15938TIP3   OH269228   1.712   0.591   0.037 -0.2865  0.7493 -0.2707
15938TIP3    H169229   1.803   0.573   0.060 -0.5446  1.8111  1.8177
15938TIP3    H269230   1.675   0.505   0.018  0.8328  0.1574  0.1557
15939TIP3   OH269231   1.488   2.334  16.807 -0.0911  0.1410  0.1616
15939TIP3    H169232   1.401   2.294  16.801  0.0962  0.0110 -3.1027
15939TIP3    H269233   1.530   2.288  16.880 -2.5900 -0.0122  1.6120
15940TIP3   OH269234   3.749   4.198  13.112  0.2151  0.1252  0.2743
15940TIP3    H169235   3.687   4.269  13.134  1.3038  2.5353 -3.3873
15940TIP3    H269236   3.828   4.244  13.084  2.1376 -2.7524  0.5840
15941TIP3   OH269237   3.374   2.710   6.567 -0.5042  0.0658  0.3108
15941TIP3    H169238   3.358   2.663   6.648  0.3592  0.0974  0.4993
15941TIP3    H269239   3.431   2.783   6.591 -0.4818  0.2521 -0.2704
15942TIP3   OH269240   5.341   4.802   2.711  0.2488  0.3201 -0.9056
15942TIP3    H169241   5.301   4.790   2.797 -1.2527  0.8005 -1.4941
15942TIP3    H269242   5.371   4.715   2.686  0.3004  0.0975 -0.0891
15943TIP3   OH269243   0.192   0.585  14.688 -0.9815  0.5135  0.6076
15943TIP3    H169244   0.214   0.661  14.742 -1.9741  0.8527  0.5603
15943TIP3    H269245   0.246   0.514  14.722 -0.1811  1.2000  0.7739
15944TIP3   OH269246   5.993   2.016   3.742  0.8484 -0.5047 -0.2590
15944TIP3    H169247   5.975   2.075   3.670 -0.1818 -0.6757 -0.1531
15944TIP3    H269248   6.027   2.072   3.812  1.4644 -0.2852 -0.7334
15945TIP3   OH269249   5.799   4.322  14.886  0.5271 -0.4159 -0.4673
15945TIP3    H169250   5.760   4.309  14.800  0.5916  0.1285 -0.5791
15945TIP3    H269251   5.776   4.412  14.910 -1.0651 -1.1180  0.8843
15946TIP3   OH269252   0.194   3.966   2.920  0.4234 -0.4440  0.0471
15946TIP3    H169253   0.253   3.995   2.990  0.9211  1.4105 -1.0847
15946TIP3    H269254   0.252   3.926   2.855  0.6423  2.0063 -1.3963
15947TIP3   OH269255   3.438   4.333   3.659  0.4328  0.0074  0.3284
15947TIP3    H169256   3.435   4.237   3.667  1.1889  0.0440  1.3567
15947TIP3    H269257   3.486   4.361   3.737 -0.2169  1.2672  0.2919
15948TIP3   OH269258   4.629   0.274  14.877  0.0689  0.2598  0.0355
15948TIP3    H169259   4.705   0.215  14.882 -1.3779 -1.5986  0.9913
15948TIP3    H269260   4.610   0.280  14.783  1.8173  1.4136 -0.3117
15949TIP3   OH269261   6.334   1.165  17.061 -0.8678 -0.1518 -0.3581
15949TIP3    H169262   6.284   1.089  17.089 -0.9913  0.0035 -0.1534
15949TIP3    H269263   6.408   1.129  17.012 -0.9769 -0.3976 -0.3406
15950TIP3   OH269264   4.661   4.340  12.489 -0.1814 -0.5725 -0.0749
15950TIP3    H169265   4.715   4.273  12.531 -0.1160  0.6055  1.8456
15950TIP3    H269266   4.577   4.297  12.473  0.5941 -1.7866 -1.1150
15951TIP3   OH269267   1.318   4.690   1.507  0.2432 -0.3633 -0.3562
15951TIP3    H169268   1.280   4.764   1.461 -1.1138 -0.4567  0.5476
15951TIP3    H269269   1.271   4.687   1.591  0.0416 -2.4080 -0.4770
15952TIP3   OH269270   5.895   2.982   4.002  0.4673  0.0235 -0.5694
15952TIP3    H169271   5.819   2.988   4.060 -0.1875 -1.8535 -1.1500
15952TIP3    H269272   5.969   3.001   4.059 -0.3659  1.3555  0.1380
15953TIP3   OH269273   3.676   3.246   5.167 -0.1999  0.1350  0.6464
15953TIP3    H169274   3.719   3.264   5.251 -2.8985  1.9084  1.7757
15953TIP3    H269275   3.653   3.153   5.172 -2.0342  0.6046  2.8531
15954TIP3   OH269276   2.477   3.159  13.362 -0.2357 -0.0564 -0.3002
15954TIP3    H169277   2.466   3.185  13.453 -1.0296 -0.1380 -0.3718
15954TIP3    H269278   2.524   3.233  13.322 -0.7533  0.4133 -0.0509
15955TIP3   OH269279   3.022   5.758  14.689 -0.0404  0.0373 -0.5773
15955TIP3    H169280   3.024   5.811  14.769  0.1253 -1.1826  0.2604
15955TIP3    H269281   3.110   5.767  14.652 -0.5749  1.8757 -1.5272
15956TIP3   OH269282   5.046   5.683  14.290  0.2933 -0.2814 -0.2927
15956TIP3    H169283   5.095   5.601  14.296  0.2320 -0.2197  1.3060
15956TIP3    H269284   5.054   5.709  14.198  0.7052 -1.8267 -0.7093
15957TIP3   OH269285   2.178   5.526  15.985  0.1014 -0.4102  0.0825
15957TIP3    H169286   2.128   5.518  15.903 -0.2016  1.8446 -0.0199
15957TIP3    H269287   2.114   5.506  16.054 -0.2803 -0.0058 -0.1492
15958TIP3   OH269288   0.666   2.617   5.580  0.3292 -0.0702 -0.4746
15958TIP3    H169289   0.573   2.642   5.588 -0.1177 -1.7634 -0.0213
15958TIP3    H269290   0.706   2.691   5.534 -1.1594  0.8817 -0.3340
15959TIP3   OH269291   2.791   3.107   5.117 -0.3786 -0.1122 -0.3200
15959TIP3    H169292   2.834   3.088   5.034  1.4585  2.2253 -0.0081
15959TIP3    H269293   2.818   3.036   5.176  0.7732 -0.1630 -0.9069
15960TIP3   OH269294   1.189   3.120  12.491  0.7405 -0.5673  0.4240
15960TIP3    H169295   1.166   3.201  12.448  1.9064  0.1826  1.1534
15960TIP3    H269296   1.105   3.074  12.504  0.2148 -0.0799 -1.1160
15961TIP3   OH269297   2.806   1.996   4.555 -0.2782  0.2653  0.4191
15961TIP3    H169298   2.798   2.089   4.577  0.3879  0.0876  1.5033
15961TIP3    H269299   2.896   1.973   4.580  0.3194 -0.1650 -1.8962
15962TIP3   OH269300   0.519   3.764   0.285 -0.2585 -0.2238 -0.0126
15962TIP3    H169301   0.611   3.763   0.313 -0.1782 -0.7741 -0.2777
15962TIP3    H269302   0.519   3.812   0.202 -0.1738 -0.4118 -0.1225
15963TIP3   OH269303   4.489   4.777  14.007  0.6273  0.0428  0.1616
15963TIP3    H169304   4.555   4.719  13.969  0.4629 -0.0046 -0.0563
15963TIP3    H269305   4.487   4.754  14.100  0.3408 -0.5226  0.0191
15964TIP3   OH269306   2.037   1.024   3.328  0.0688 -0.0417  0.0672
15964TIP3    H169307   2.017   1.040   3.236 -1.2587 -2.4024 -0.1313
15964TIP3    H269308   1.958   0.983   3.363  1.7069 -2.2396  1.4161
15965TIP3   OH269309   1.477   5.937   0.149  0.3964 -0.0004 -0.1332
15965TIP3    H169310   1.456   5.900   0.064 -2.3485 -0.2601  0.5509
15965TIP3    H269311   1.528   5.870   0.193  0.9717 -0.2730 -1.1972
15966TIP3   OH269312   1.206   4.046   4.670  0.0840  0.1168  0.4727
15966TIP3    H169313   1.181   4.122   4.619  0.6730  0.1606  0.2380
15966TIP3    H269314   1.222   4.080   4.758 -0.9893  0.0302  0.7093
15967TIP3   OH269315   6.095   0.570  15.189 -0.4948  0.2284  0.1821
15967TIP3    H169316   6.175   0.569  15.243 -0.5390 -2.3276  0.3161
15967TIP3    H269317   6.031   0.615  15.244  0.2127  0.1975  1.0700
15968TIP3   OH269318   0.731   6.460   1.357  0.0783  0.2193 -0.6852
15968TIP3    H169319   0.694   6.475   1.444  0.6059 -0.9120 -0.2526
15968TIP3    H269320   0.805   6.521   1.352 -1.2204  1.8492 -1.2121
15969TIP3   OH269321   4.980   2.260  15.451  0.3747 -0.3054  0.2887
15969TIP3    H169322   4.964   2.176  15.408 -0.2717  0.2433 -0.5695
15969TIP3    H269323   5.032   2.310  15.388 -1.9371  1.1122 -0.6276
15970TIP3   OH269324   5.103   1.393  13.436 -0.1681  0.4657  0.1307
15970TIP3    H169325   5.013   1.416  13.461  0.5062  0.9958  2.2432
15970TIP3    H269326   5.124   1.318  13.491 -0.0105 -1.0435 -1.8985
15971TIP3   OH269327   5.809   2.907  12.152 -0.2180  0.7396  0.0250
15971TIP3    H169328   5.767   2.921  12.067 -2.1821 -0.8855  0.6342
15971TIP3    H269329   5.755   2.959  12.213 -0.5213 -0.2726  0.6360
15972TIP3   OH269330   5.077   3.105  12.412 -0.2876 -0.5179 -0.6618
15972TIP3    H169331   5.149   3.161  12.383  0.1376 -1.2352 -1.0017
15972TIP3    H269332   5.119   3.031  12.454 -0.8747  0.0500  1.0278
15973TIP3   OH269333   1.434   4.190  14.488 -0.3695 -0.8458  0.1216
15973TIP3    H169334   1.429   4.246  14.410 -0.7837 -1.5499 -0.3721
15973TIP3    H269335   1.511   4.221  14.536 -1.1558  0.7828  0.3674
15974TIP3   OH269336   3.045   3.550   3.914  0.0426  0.0485  0.6795
15974TIP3    H169337   3.016   3.640   3.926 -1.9541 -0.6339  1.3357
15974TIP3    H269338   2.988   3.514   3.846  0.0932 -1.0109  1.1665
15975TIP3   OH269339   1.581   1.940  11.688 -0.9411  0.0666 -0.0514
15975TIP3    H169340   1.533   1.922  11.607  0.2692  1.1744 -1.0731
15975TIP3    H269341   1.513   1.952  11.755 -2.0154  0.2188 -1.1377
15976TIP3   OH269342   0.510   5.768  16.716 -0.0030  0.0941  0.0129
15976TIP3    H169343   0.553   5.805  16.793 -0.1140  2.8794 -1.1232
15976TIP3    H269344   0.418   5.794  16.725 -0.0916  0.1231 -0.8297
15977TIP3   OH269345   5.235   2.136   2.149  0.4274  0.2442  0.8285
15977TIP3    H169346   5.299   2.065   2.151 -0.8219 -0.9431  0.6116
15977TIP3    H269347   5.159   2.098   2.105 -0.5310  1.5101  1.3224
15978TIP3   OH269348   2.432   2.698   3.246 -0.3024 -0.1718  0.3300
15978TIP3    H169349   2.399   2.692   3.157  1.9797  1.8241 -0.7679
15978TIP3    H269350   2.432   2.792   3.266  2.7994 -0.1626  0.8741
15979TIP3   OH269351   2.757   2.550  13.274  0.2965  0.6441 -0.1315
15979TIP3    H169352   2.704   2.619  13.236 -1.2503 -0.6533 -0.4281
15979TIP3    H269353   2.752   2.478  13.211  1.7401  0.1925  0.2349
15980TIP3   OH269354   2.203   0.223  17.092 -0.4099 -0.0064  0.0488
15980TIP3    H169355   2.295   0.209  17.069  0.2044  2.1034  1.0147
15980TIP3    H269356   2.206   0.255  17.182 -2.2085 -1.1166  0.5456
15981TIP3   OH269357   0.509   2.945   1.625 -0.1632  0.4046 -0.0794
15981TIP3    H169358   0.444   2.966   1.558  0.6881 -1.1490 -1.4650
15981TIP3    H269359   0.484   2.998   1.700 -2.2591  0.8095 -1.0006
15982TIP3   OH269360   4.487   4.510  16.967  0.4777  0.0364  0.1551
15982TIP3    H169361   4.395   4.527  16.985  0.0301 -0.5533 -1.4276
15982TIP3    H269362   4.509   4.572  16.897  0.7172 -1.1457 -0.8451
15983TIP3   OH269363   3.704   5.320  16.017  0.5551 -0.2969 -0.1429
15983TIP3    H169364   3.797   5.310  15.997  0.4549  0.7716 -1.2763
15983TIP3    H269365   3.674   5.231  16.034  1.7552 -0.6736  0.1158
15984TIP3   OH269366   4.896   5.514  16.373  0.1961  0.6591  0.2079
15984TIP3    H169367   4.815   5.536  16.327  0.7867  1.8167 -0.3385
15984TIP3    H269368   4.905   5.419  16.362 -0.1932  0.7562 -1.2399
15985TIP3   OH269369   0.893   0.129  14.400  0.0156 -0.0461 -0.9125
15985TIP3    H169370   0.873   0.110  14.308 -0.5918 -0.1136 -0.7713
15985TIP3    H269371   0.923   0.220  14.400 -0.1633  0.0117 -1.1499
15986TIP3   OH269372   5.297   5.240   1.804 -0.2195 -0.0182  0.0312
15986TIP3    H169373   5.248   5.321   1.816  0.6451  0.9543 -2.4685
15986TIP3    H269374   5.244   5.188   1.744  0.1782 -0.4379  0.0399
15987TIP3   OH269375   0.998   5.939  16.124 -0.4767 -0.4170 -0.2503
15987TIP3    H169376   0.990   6.007  16.191  1.1036 -0.2914 -0.1517
15987TIP3    H269377   1.015   5.859  16.173  0.0865 -0.4327 -0.4645
15988TIP3   OH269378   2.432   6.686   5.099 -0.7203  0.1150 -0.4634
15988TIP3    H169379   2.513   6.709   5.144 -0.2211  0.0112 -1.2713
15988TIP3    H269380   2.423   6.592   5.112 -0.8854  0.1781 -0.1072
15989TIP3   OH269381   2.987   4.510  15.044 -0.2919 -0.0251 -0.0719
15989TIP3    H169382   2.951   4.578  14.986  0.4962  2.2305  1.8951
15989TIP3    H269383   2.914   4.488  15.102 -0.7614 -1.4572 -1.1751
15990TIP3   OH269384   2.725   5.269  11.252  0.4136  0.2781 -0.1204
15990TIP3    H169385   2.644   5.220  11.233 -0.6341  2.0960 -0.5695
15990TIP3    H269386   2.775   5.267  11.171  0.5646 -0.3469 -0.0195
15991TIP3   OH269387   4.502   6.078  16.080  0.0276 -0.1260  0.3600
15991TIP3    H169388   4.530   6.118  15.998 -0.8031 -3.4988 -1.7524
15991TIP3    H269389   4.456   6.149  16.126 -2.2993  1.2484 -3.5352
15992TIP3   OH269390   0.174   1.543  12.125 -0.3750 -0.1626  0.0667
15992TIP3    H169391   0.162   1.459  12.169 -0.3579 -0.2470 -0.0875
15992TIP3    H269392   0.203   1.602  12.193  1.1037 -0.6464 -0.1167
15993TIP3   OH269393   0.949   6.504  13.916  0.0109 -0.7115  0.3202
15993TIP3    H169394   0.949   6.548  13.832  0.9192  1.6831  1.4849
15993TIP3    H269395   1.035   6.460  13.920 -0.1911 -1.1572 -0.1352
15994TIP3   OH269396   2.654   5.409   5.061  0.4111  0.2120  0.6851
15994TIP3    H169397   2.618   5.322   5.046 -0.6396  0.6966  0.2623
15994TIP3    H269398   2.694   5.405   5.148 -2.4017  0.1567  2.0881
15995TIP3   OH269399   2.274   4.086   0.652 -0.5478  0.1032 -0.0123
15995TIP3    H169400   2.227   4.133   0.721 -1.1022  0.0095 -0.3162
15995TIP3    H269401   2.209   4.075   0.582  0.4600  1.6519 -1.2627
15996TIP3   OH269402   4.614   2.572   6.364 -0.2918 -0.8761 -0.6641
15996TIP3    H169403   4.615   2.503   6.431 -1.8358  0.0712  0.3999
15996TIP3    H269404   4.597   2.525   6.282  0.2269 -1.9180 -0.1917
15997TIP3   OH269405   4.996   6.655  10.972  0.0841  0.3177  0.7016
15997TIP3    H169406   5.072   6.664  10.913  1.8196 -0.1140  2.7414
15997TIP3    H269407   4.934   6.721  10.941  1.9951  1.8670 -0.0664
15998TIP3   OH269408   3.096   1.599  13.957  0.5426 -0.3792  0.0652
15998TIP3    H169409   3.097   1.562  14.045  2.5663 -0.7880 -0.0829
15998TIP3    H269410   3.163   1.667  13.959 -1.2476  1.4791 -0.4392
15999TIP3   OH269411   6.153   5.805  16.670 -0.6617 -0.2046 -0.0766
15999TIP3    H169412   6.205   5.877  16.705 -1.3406  0.4349 -0.3391
15999TIP3    H269413   6.193   5.726  16.705 -1.2462  0.3910  2.0750
16000TIP3   OH269414   5.432   2.973   0.393 -0.4937 -0.2227 -0.1853
16000TIP3    H169415   5.364   3.039   0.383 -1.5300 -1.0091  1.2428
16000TIP3    H269416   5.425   2.944   0.484  2.4708  0.4019  0.3628
16001TIP3   OH269417   3.789   4.359   5.455 -0.4374  0.1688  0.0276
16001TIP3    H169418   3.796   4.276   5.408  1.4612  0.3044 -0.0259
16001TIP3    H269419   3.725   4.343   5.524  0.6931 -1.7104  0.7150
16002TIP3   OH269420   1.653   6.471   3.196 -0.2284 -0.2163  0.1227
16002TIP3    H169421   1.676   6.387   3.158  1.0251 -0.0034  0.3592
16002TIP3    H269422   1.694   6.536   3.139 -0.6096  0.2058  0.3197
16003TIP3   OH269423   3.315   2.506   4.158  0.4746  0.1232  0.5477
16003TIP3    H169424   3.362   2.446   4.216 -0.9676 -0.9153  0.7108
16003TIP3    H269425   3.244   2.541   4.211  0.1538  0.4926 -0.1031
16004TIP3   OH269426   3.316   3.174  10.958 -0.5500  0.4335 -0.3379
16004TIP3    H169427   3.367   3.184  10.878 -0.1387 -0.3494 -0.1729
16004TIP3    H269428   3.267   3.093  10.946 -1.1805  0.7743 -0.1636
16005TIP3   OH269429   6.703   1.477  15.360 -0.1509  0.1134  0.4259
16005TIP3    H169430   6.678   1.418  15.432 -0.2687 -0.7214 -0.2807
16005TIP3    H269431   6.794   1.499  15.379  0.0193 -0.6128  0.5035
16006TIP3   OH269432   5.761   5.386   2.964  0.2746 -0.0296 -0.4834
16006TIP3    H169433   5.737   5.451   2.898 -0.1100  0.1607 -0.1578
16006TIP3    H269434   5.793   5.437   3.038 -1.0579 -0.1401  0.2003
16007TIP3   OH269435   0.848   4.392   6.795 -0.0457  0.3665  0.3241
16007TIP3    H169436   0.797   4.363   6.871 -0.9650 -2.9101 -1.3751
16007TIP3    H269437   0.939   4.393   6.826 -0.4594 -0.2697  1.6330
16008TIP3   OH269438   5.522   1.346   5.385  0.4441 -0.1576 -0.4153
16008TIP3    H169439   5.444   1.335   5.440  0.0840  1.8644 -0.4362
16008TIP3    H269440   5.578   1.272   5.408 -0.5099 -0.4088  1.2832
16009TIP3   OH269441   1.761   6.396   4.989 -0.2424 -0.7936 -0.1740
16009TIP3    H169442   1.682   6.424   4.942 -0.2928 -1.2287 -0.3583
16009TIP3    H269443   1.768   6.302   4.969  1.5262 -0.3404 -1.9386
16010TIP3   OH269444   3.723   4.955  13.772 -0.2400 -0.0915  0.3471
16010TIP3    H169445   3.773   4.956  13.853 -0.5952  1.5151  0.5727
16010TIP3    H269446   3.786   4.926  13.705  0.8280  1.2209  0.7436
16011TIP3   OH269447   3.650   4.312  13.799  0.0939  0.1144  0.1214
16011TIP3    H169448   3.656   4.217  13.798 -1.3544  0.0098  0.1668
16011TIP3    H269449   3.721   4.341  13.741 -1.4110 -1.1145 -2.5029
16012TIP3   OH269450   6.688   5.389   2.658 -0.3478  0.0790  0.3754
16012TIP3    H169451   6.754   5.336   2.703 -1.7940 -0.3568  2.0647
16012TIP3    H269452   6.738   5.463   2.624  0.7803  0.8991  3.4362
16013TIP3   OH269453   0.745   1.259  15.899 -0.2916  0.2982  0.8518
16013TIP3    H169454   0.735   1.355  15.900 -1.7444  0.1562  0.9213
16013TIP3    H269455   0.661   1.226  15.929 -0.3215 -1.0501 -0.6062
16014TIP3   OH269456   0.626   6.165  12.477  0.4182  0.1815  0.5731
16014TIP3    H169457   0.576   6.147  12.398 -1.6853  2.7344  1.1870
16014TIP3    H269458   0.708   6.204  12.446  0.6154 -0.9105 -0.3475
16015TIP3   OH269459   5.280   5.803  14.041 -0.3854  0.1772 -0.8980
16015TIP3    H169460   5.325   5.719  14.031  5.0518  2.5255  0.1182
16015TIP3    H269461   5.281   5.840  13.953  0.2118  0.4458 -0.7813
16016TIP3   OH269462   4.443   4.649  15.443 -0.9987 -0.3349 -0.0083
16016TIP3    H169463   4.512   4.587  15.418 -0.1176 -0.3072  2.1372
16016TIP3    H269464   4.474   4.734  15.411 -1.1356 -0.6349 -0.9877
16017TIP3   OH269465   4.880   0.636   3.313  0.4421 -0.4028  0.8641
16017TIP3    H169466   4.823   0.701   3.353  1.7585  0.9450  0.6453
16017TIP3    H269467   4.917   0.588   3.387  0.1400 -0.3228  1.0694
16018TIP3   OH269468   5.508   2.595   1.899 -0.3534 -0.5707  0.4105
16018TIP3    H169469   5.566   2.622   1.827  0.5494 -1.9724  0.5823
16018TIP3    H269470   5.568   2.563   1.967 -1.2298  0.0978  1.5378
16019TIP3   OH269471   3.847   2.848   1.691  0.8875  0.5615  0.4470
16019TIP3    H169472   3.942   2.860   1.688  1.1811 -1.5340 -0.8788
16019TIP3    H269473   3.836   2.757   1.719 -0.7541  0.7806  0.6016
16020TIP3   OH269474   1.011   4.185   2.388  0.8253 -0.1416 -0.4088
16020TIP3    H169475   1.048   4.264   2.349  1.1285 -0.1438 -0.1312
16020TIP3    H269476   1.008   4.122   2.316  1.3044 -0.1216 -0.4465
16021TIP3   OH269477   2.296   4.401   2.883  0.1754 -0.8242 -0.2469
16021TIP3    H169478   2.273   4.334   2.818  0.0465  0.6775 -1.8376
16021TIP3    H269479   2.277   4.484   2.838  0.6343  0.2836  1.5359
16022TIP3   OH269480   1.143   1.074   3.702 -0.3357 -0.0039 -0.2230
16022TIP3    H169481   1.181   1.099   3.786 -2.4112 -1.2436  1.1778
16022TIP3    H269482   1.068   1.131   3.691 -1.1715 -1.0775 -0.2979
16023TIP3   OH269483   4.825   5.575   6.220  0.2473  0.2646  0.4798
16023TIP3    H169484   4.736   5.609   6.214  0.3003  0.2833 -0.2530
16023TIP3    H269485   4.842   5.536   6.135  0.8178 -0.0510  0.7323
16024TIP3   OH269486   0.766   2.226  17.244 -0.1840  0.3937 -0.3223
16024TIP3    H169487   0.771   2.179  17.327 -0.7757  0.4750 -0.2343
16024TIP3    H269488   0.742   2.158  17.180 -3.0872  0.8337  0.1264
16025TIP3   OH269489   0.668   6.020  15.907 -0.1776 -0.0413  0.2604
16025TIP3    H169490   0.735   6.083  15.934  1.0797 -1.2020 -0.0594
16025TIP3    H269491   0.716   5.938  15.894 -1.8392 -1.2190  1.1602
16026TIP3   OH269492   4.166   3.794   1.380  0.1599 -0.1225  0.3314
16026TIP3    H169493   4.251   3.838   1.375  0.2350 -0.3018  0.0276
16026TIP3    H269494   4.176   3.729   1.450  0.0092  0.4221  0.8731
16027TIP3   OH269495   2.197   5.781   4.218  0.0787  0.3749 -0.1138
16027TIP3    H169496   2.149   5.702   4.196 -0.1228  0.4308  0.1295
16027TIP3    H269497   2.199   5.832   4.137  3.5864 -1.5864 -1.5157
16028TIP3   OH269498   2.250   3.558   4.120 -0.1186  0.3674 -0.2328
16028TIP3    H169499   2.193   3.566   4.197 -0.1846  2.4259 -0.4441
16028TIP3    H269500   2.283   3.468   4.124 -0.2434  0.3688  2.0992
16029TIP3   OH269501   6.013   4.748  14.917 -0.6667  0.4539 -0.3789
16029TIP3    H169502   6.089   4.714  14.965 -1.3250  1.4682  1.4931
16029TIP3    H269503   6.000   4.837  14.951 -3.5452 -0.1798  0.5306
16030TIP3   OH269504   6.144   2.951   0.660  1.0454 -0.0039  0.1425
16030TIP3    H169505   6.097   2.881   0.615  0.8062 -0.0993  0.5330
16030TIP3    H269506   6.213   2.978   0.599  0.5083  0.1094 -0.4245
16031TIP3   OH269507   3.572   1.795  15.576  0.4484  0.1138 -0.3030
16031TIP3    H169508   3.612   1.863  15.522  0.9383 -1.5317 -2.1241
16031TIP3    H269509   3.645   1.755  15.623  0.3061  0.1413 -0.0566
16032TIP3   OH269510   4.930   0.492   4.337 -0.3257  0.7305  0.4706
16032TIP3    H169511   4.910   0.514   4.428 -0.1531  1.5882  0.3058
16032TIP3    H269512   4.894   0.564   4.286 -0.5268  0.1934 -0.1541
16033TIP3   OH269513   4.528   2.382   2.778  0.0662 -0.2111 -0.6390
16033TIP3    H169514   4.448   2.331   2.767 -1.8095  2.2665  0.6658
16033TIP3    H269515   4.523   2.449   2.709  0.3278  0.7732  0.2836
16034TIP3   OH269516   2.293   1.953   2.846  0.1954  0.3259 -0.3249
16034TIP3    H169517   2.344   1.936   2.767  1.6210  1.9388  0.1978
16034TIP3    H269518   2.219   2.006   2.817  0.5720  0.6965 -0.6087
16035TIP3   OH269519   5.678   5.793  15.730  0.1358 -0.1509 -0.0739
16035TIP3    H169520   5.673   5.744  15.648 -1.2057 -0.9610  0.4585
16035TIP3    H269521   5.593   5.780  15.771 -0.5175  3.0866 -0.1327
16036TIP3   OH269522   2.018   1.025  10.855  0.1469 -0.1928  0.0621
16036TIP3    H169523   2.091   0.963  10.862  0.1037 -0.2533 -0.0225
16036TIP3    H269524   1.949   0.976  10.811  0.8222  0.5291 -1.9321
16037TIP3   OH269525   5.557   0.481  11.982 -0.1207  0.1605 -0.4908
16037TIP3    H169526   5.595   0.488  12.070  0.3896  1.6424 -0.8100
16037TIP3    H269527   5.590   0.557  11.935 -1.4020  0.0735 -1.5909
16038TIP3   OH269528   4.372   3.530   2.333  0.6335  0.0128 -0.2001
16038TIP3    H169529   4.348   3.537   2.240  0.9820  0.6331 -0.2452
16038TIP3    H269530   4.360   3.618   2.367 -1.1466 -0.5404  0.7605
16039TIP3   OH269531   6.054   1.609   0.478 -0.0748  0.0009  0.0276
16039TIP3    H169532   6.121   1.651   0.532 -0.3388 -1.2426  1.3803
16039TIP3    H269533   6.060   1.654   0.394  0.8693  1.4981  0.8339
16040TIP3   OH269534   4.904   2.248   1.343 -0.2837  0.0816  0.6544
16040TIP3    H169535   4.889   2.216   1.433 -0.4783 -0.8974  0.2862
16040TIP3    H269536   4.999   2.256   1.336 -0.3153  1.8585  1.4945
16041TIP3   OH269537   2.417   4.727   3.528 -0.1531 -0.0191 -0.6190
16041TIP3    H169538   2.427   4.773   3.444 -1.8200  0.8657 -0.3823
16041TIP3    H269539   2.322   4.719   3.539  0.0494 -0.3863  1.0400
16042TIP3   OH269540   3.729   4.560  12.434 -0.5306  0.1898  0.1108
16042TIP3    H169541   3.743   4.564  12.529  2.2400 -0.2491 -0.1962
16042TIP3    H269542   3.762   4.474  12.408  0.3433  0.9343 -1.4257
16043TIP3   OH269543   2.960   5.462   2.634  0.2792 -0.3810  0.5969
16043TIP3    H169544   2.990   5.373   2.616  0.4957 -0.1322 -0.3360
16043TIP3    H269545   2.882   5.472   2.579 -0.3976 -0.3644  1.5368
16044TIP3   OH269546   1.361   5.969   2.087  0.5687 -0.1204 -0.3541
16044TIP3    H169547   1.354   5.889   2.035  1.0879  0.9195 -2.0859
16044TIP3    H269548   1.332   6.039   2.029  0.5044  1.0177  0.9904
16045TIP3   OH269549   0.567   2.211   5.972  0.2708 -0.0986  0.2918
16045TIP3    H169550   0.529   2.138   6.022  1.3697 -0.0518  1.2595
16045TIP3    H269551   0.605   2.268   6.039 -1.3793  1.8985 -0.3785
16046TIP3   OH269552   3.462   6.340   4.337  0.0395  0.5105  0.4673
16046TIP3    H169553   3.497   6.355   4.249  0.8761 -0.6889  0.5729
16046TIP3    H269554   3.539   6.320   4.390 -0.4093  1.6305  1.5876
16047TIP3   OH269555   0.997   6.560  15.753  0.0558 -0.1797 -0.2961
16047TIP3    H169556   1.054   6.635  15.772 -1.9431  0.9915  1.5955
16047TIP3    H269557   1.016   6.497  15.822  1.4217 -1.3042 -1.6384
16048TIP3   OH269558   6.301   5.756   2.047 -0.1195 -0.3960  0.0018
16048TIP3    H169559   6.331   5.695   2.115  1.0261  0.8018  0.6125
16048TIP3    H269560   6.350   5.836   2.063 -1.7724  0.7949 -0.6393
16049TIP3   OH269561   6.157   3.075  12.766  0.3610  0.6701 -0.2559
16049TIP3    H169562   6.218   3.046  12.834  1.8463  0.7786 -1.4690
16049TIP3    H269563   6.074   3.032  12.787  1.3658 -1.0548  0.3778
16050TIP3   OH269564   2.828   2.753  12.850  0.0701 -0.0910  0.0572
16050TIP3    H169565   2.892   2.801  12.901 -0.7740  2.2033 -0.9019
16050TIP3    H269566   2.751   2.748  12.906  0.9751 -2.9115  1.2381
16051TIP3   OH269567   1.625   1.328  16.231 -0.2008 -0.1502  0.1683
16051TIP3    H169568   1.690   1.293  16.292 -0.5319 -0.3893  0.3913
16051TIP3    H269569   1.660   1.413  16.204  0.2299 -0.3038  0.2421
16052TIP3   OH269570   1.150   6.629   2.909  0.3356 -0.3886  0.7960
16052TIP3    H169571   1.106   6.574   2.844  2.6504 -0.8797 -0.4488
16052TIP3    H269572   1.115   6.600   2.993 -1.3269 -1.0650 -0.0925
16053TIP3   OH269573   3.197   0.714  16.148  0.4354 -0.1155  0.0831
16053TIP3    H169574   3.209   0.662  16.069  1.9145 -0.9738  0.8288
16053TIP3    H269575   3.271   0.691  16.204 -0.2547  0.9007  1.4952
16054TIP3   OH269576   4.876   0.760  12.192 -0.4841 -0.1374  0.3501
16054TIP3    H169577   4.856   0.816  12.116 -1.5621  0.2918  0.9261
16054TIP3    H269578   4.811   0.690  12.188  0.7289 -1.2678 -0.2450
16055TIP3   OH269579   2.451   2.874  16.716 -0.7242  0.5841 -0.2709
16055TIP3    H169580   2.438   2.959  16.674  4.7704  1.6654 -0.5478
16055TIP3    H269581   2.452   2.893  16.810  0.2831  0.8115 -0.3227
16056TIP3   OH269582   0.593   0.061   3.377  0.0109  0.2636  0.3276
16056TIP3    H169583   0.688   0.072   3.374 -0.0803  1.4389  1.1318
16056TIP3    H269584   0.560   0.114   3.304 -0.0372 -0.1193  0.0676
16057TIP3   OH269585   0.756   5.814   0.150  0.3939 -0.4607  0.2819
16057TIP3    H169586   0.811   5.878   0.105 -0.6551 -0.4810 -1.1006
16057TIP3    H269587   0.732   5.856   0.233  1.4280  0.0570  0.3265
16058TIP3   OH269588   2.763   0.182   2.110 -0.5455  0.5830  0.3104
16058TIP3    H169589   2.825   0.111   2.093 -1.8911  0.0918 -3.7593
16058TIP3    H269590   2.698   0.143   2.168  0.9279 -0.0558  1.6207
16059TIP3   OH269591   3.157   6.225   0.457  0.1508 -0.3303  0.0637
16059TIP3    H169592   3.143   6.130   0.454 -0.0959 -0.2742 -1.6069
16059TIP3    H269593   3.245   6.237   0.422  0.0717  0.0708  0.0002
16060TIP3   OH269594   4.213   2.748   3.505  0.5306  0.6346 -0.3007
16060TIP3    H169595   4.275   2.681   3.532 -1.9345 -1.8314 -0.2657
16060TIP3    H269596   4.211   2.743   3.410  1.7075  2.0872 -0.4428
16061TIP3   OH269597   5.408   2.069   5.028  0.3297  0.0530  0.0124
16061TIP3    H169598   5.476   2.115   4.979  0.7237 -0.5980 -0.0579
16061TIP3    H269599   5.404   2.114   5.113  1.3340 -0.3397  0.2737
16062TIP3   OH269600   0.758   1.736  11.021 -0.3338  0.2970 -0.1097
16062TIP3    H169601   0.804   1.718  10.939 -1.1858 -0.9739 -0.3340
16062TIP3    H269602   0.733   1.828  11.014  0.4030  0.4572 -0.8606
16063TIP3   OH269603   5.055   3.456   4.977 -0.0181  0.0790  0.2484
16063TIP3    H169604   5.031   3.529   5.033 -1.6258  0.1958 -0.5258
16063TIP3    H269605   4.977   3.441   4.923  1.1016 -0.6736 -1.2341
16064TIP3   OH269606   5.182   6.703  10.785  0.3031  0.2843 -0.3776
16064TIP3    H169607   5.210   6.786  10.746  0.6974  0.6245  0.5897
16064TIP3    H269608   5.262   6.665  10.820  0.2150 -0.7849 -1.2881
16065TIP3   OH269609   4.542   0.554   3.450  0.1780  0.0022  0.0388
16065TIP3    H169610   4.468   0.500   3.420 -0.4023  0.8144 -0.0324
16065TIP3    H269611   4.571   0.511   3.530 -1.0852  0.2673  0.6737
16066TIP3   OH269612   4.848   5.501   1.697 -0.6800 -0.2581  0.2665
16066TIP3    H169613   4.789   5.562   1.742 -0.3615 -0.1555  0.5481
16066TIP3    H269614   4.922   5.491   1.757  0.5648  1.1956 -0.9533
16067TIP3   OH269615   0.641   6.064   5.143 -0.5040  0.5778  0.2212
16067TIP3    H169616   0.678   6.046   5.229 -0.9895 -0.2274  0.2737
16067TIP3    H269617   0.624   6.158   5.143  3.4882  1.4982 -0.5935
16068TIP3   OH269618   4.138   2.418   2.827  0.0127  0.2301  0.2519
16068TIP3    H169619   4.188   2.454   2.754  1.2578 -2.2317 -0.2341
16068TIP3    H269620   4.090   2.344   2.790 -0.9238  0.1469  1.5326
16069TIP3   OH269621   1.700   4.258  15.733  0.6074  0.3682 -0.4998
16069TIP3    H169622   1.771   4.322  15.736  0.7287  0.3231 -1.7379
16069TIP3    H269623   1.629   4.298  15.782  1.2750  0.6773  0.2324
16070TIP3   OH269624   0.289   2.266  16.720  0.7708 -0.1180  0.1438
16070TIP3    H169625   0.265   2.325  16.648  1.2106 -0.8761 -0.6423
16070TIP3    H269626   0.345   2.319  16.776  1.0079  0.2814 -0.4516
16071TIP3   OH269627   2.245   4.957   3.690 -0.0968 -0.0321  0.5378
16071TIP3    H169628   2.295   5.007   3.625  0.7738 -0.9125  0.5082
16071TIP3    H269629   2.179   4.911   3.639 -0.9465  1.1042  0.5711
16072TIP3   OH269630   5.339   3.386  14.178  0.6739 -0.2636  0.6979
16072TIP3    H169631   5.364   3.294  14.186 -0.8958 -0.6669  1.2244
16072TIP3    H269632   5.360   3.424  14.263  0.3416 -0.3922  0.8392
16073TIP3   OH269633   1.018   6.341   2.227 -0.1084 -0.2824  0.0640
16073TIP3    H169634   1.004   6.280   2.155  1.6836 -2.7890  1.6488
16073TIP3    H269635   0.946   6.324   2.287 -0.7260  0.6712 -0.3832
16074TIP3   OH269636   3.209   6.066   4.920  0.3701  0.5105  0.7050
16074TIP3    H169637   3.126   6.110   4.937 -0.2876 -0.6338  0.5703
16074TIP3    H269638   3.227   6.083   4.828 -0.3766 -0.2789  0.3996
16075TIP3   OH269639   1.857   4.334   0.822 -0.3276  0.3412 -0.0413
16075TIP3    H169640   1.931   4.354   0.879 -1.2120 -0.9833  1.7116
16075TIP3    H269641   1.819   4.255   0.861 -0.9191 -0.7252 -2.6151
16076TIP3   OH269642   5.545   0.705  15.348  0.7578  0.5980  0.3069
16076TIP3    H169643   5.527   0.767  15.277 -0.3767  0.7677  0.7252
16076TIP3    H269644   5.521   0.751  15.428 -0.2310 -0.4055  0.6138
16077TIP3   OH269645   0.278   3.749   2.636 -0.1315  0.2300 -0.2420
16077TIP3    H169646   0.349   3.770   2.575 -0.0799  0.0387 -0.2498
16077TIP3    H269647   0.323   3.735   2.720 -0.1276 -0.1686 -0.3089
16078TIP3   OH269648   1.399   1.543   4.397 -0.3585 -0.3371  0.4111
16078TIP3    H169649   1.347   1.472   4.361 -0.6285  0.9867 -2.0202
16078TIP3    H269650   1.469   1.499   4.446 -1.1521 -2.2149 -0.0454
16079TIP3   OH269651   5.553   5.158   5.790  0.0716  0.2788  0.3906
16079TIP3    H169652   5.529   5.154   5.883  0.9425 -1.1521  0.5911
16079TIP3    H269653   5.640   5.197   5.789  0.2142 -0.0400  0.2107
16080TIP3   OH269654   3.945   1.846   5.111 -0.3893  0.1190 -0.6670
16080TIP3    H169655   3.941   1.762   5.065  0.5285  0.6398 -1.7215
16080TIP3    H269656   3.917   1.911   5.047 -0.9951  0.6389  0.1107
16081TIP3   OH269657   5.332   3.308  13.895 -0.3071  0.5066  0.2646
16081TIP3    H169658   5.316   3.355  13.977  2.1881  1.3802  0.3194
16081TIP3    H269659   5.332   3.376  13.828 -0.4495  0.0493 -0.2094
16082TIP3   OH269660   0.220   5.983   6.738 -0.7218  0.3072  0.4236
16082TIP3    H169661   0.146   5.930   6.707 -1.1032  1.7814 -1.3661
16082TIP3    H269662   0.296   5.925   6.729 -1.3602 -0.5230  0.1874
16083TIP3   OH269663   4.776   0.157  14.495 -0.0229  0.0572 -0.6639
16083TIP3    H169664   4.690   0.190  14.523  0.5744  0.6947  0.4856
16083TIP3    H269665   4.773   0.064  14.517 -0.0182  0.3058  0.4937
16084TIP3   OH269666   6.362   2.893  16.304 -0.2111  0.1848  0.1757
16084TIP3    H169667   6.272   2.924  16.293  0.0690  0.7199 -0.6567
16084TIP3    H269668   6.355   2.798  16.300 -0.6523  0.2420 -0.6283
16085TIP3   OH269669   0.255   6.242   2.979 -0.1810  0.4105 -0.2603
16085TIP3    H169670   0.186   6.252   3.045 -2.2622 -0.8777 -2.1046
16085TIP3    H269671   0.222   6.290   2.903  0.1594 -1.5245 -1.7090
16086TIP3   OH269672   6.665   4.258   5.877 -0.3090  0.5148  1.0446
16086TIP3    H169673   6.677   4.236   5.784  0.2830  1.3282  0.9182
16086TIP3    H269674   6.626   4.180   5.915 -1.5159  0.5247 -0.0946
16087TIP3   OH269675   0.985   0.643  15.531 -0.0887 -0.2914  0.3257
16087TIP3    H169676   1.008   0.697  15.455 -0.1500 -0.0560  0.4709
16087TIP3    H269677   1.056   0.658  15.593  0.6388 -1.5099 -0.1885
16088TIP3   OH269678   5.339   6.094  11.394 -0.4894 -0.2591  0.2444
16088TIP3    H169679   5.378   6.059  11.314 -1.9176 -3.3308  0.7269
16088TIP3    H269680   5.257   6.133  11.365 -1.2668 -1.8466  0.1878
16089TIP3   OH269681   3.931   1.636  15.616  0.1982 -0.5974 -0.3979
16089TIP3    H169682   3.970   1.561  15.660  0.3019  0.8913  2.2163
16089TIP3    H269683   3.841   1.638  15.649 -0.7944 -1.2880 -2.8231
16090TIP3   OH269684   6.629   3.849  17.068  0.4294  0.3057 -0.1171
16090TIP3    H169685   6.677   3.853  16.985 -0.4730 -0.0075 -0.6736
16090TIP3    H269686   6.650   3.931  17.112 -0.3436  1.2253 -1.3904
16091TIP3   OH269687   5.930   6.293   3.178 -0.0533 -0.2379 -0.0624
16091TIP3    H169688   5.917   6.257   3.090 -0.5600  0.6614 -0.3637
16091TIP3    H269689   6.022   6.275   3.198  0.1151 -0.2902 -0.8514
16092TIP3   OH269690   3.525   0.035   2.625  0.3222  0.0632  0.5456
16092TIP3    H169691   3.497   0.063   2.711  0.2525  0.5518  0.3645
16092TIP3    H269692   3.603   0.087   2.607  1.0435 -0.8929  0.8165
16093TIP3   OH269693   0.486   3.930   2.172  0.4754  0.8216  0.0820
16093TIP3    H169694   0.454   3.898   2.087 -0.3147  1.6589  0.0436
16093TIP3    H269695   0.575   3.959   2.154  1.5218 -1.9442  0.2859
16094TIP3   OH269696   0.253   3.541   2.980 -0.0159 -0.5510 -0.1632
16094TIP3    H169697   0.276   3.571   3.068  1.9066  0.1284 -0.8331
16094TIP3    H269698   0.293   3.606   2.921 -0.5667 -1.4250 -1.5646
16095TIP3   OH269699   5.526   5.149  13.971  0.0426 -0.0214  0.0189
16095TIP3    H169700   5.534   5.055  13.987 -0.9781  0.0346  0.9765
16095TIP3    H269701   5.603   5.187  14.011 -1.0478 -0.1783  2.4347
16096TIP3   OH269702   2.008   2.927  13.902  0.1737 -0.3458 -0.1614
16096TIP3    H169703   2.091   2.929  13.855 -0.8173  1.4104 -1.9899
16096TIP3    H269704   2.003   3.011  13.947  0.0227 -1.0507  1.1998
16097TIP3   OH269705   2.924   2.917  11.008  0.0235 -0.3872  0.1088
16097TIP3    H169706   2.869   2.991  10.979  0.5526 -0.1755 -0.3699
16097TIP3    H269707   2.903   2.907  11.101 -0.7839 -0.2737 -0.0472
16098TIP3   OH269708   2.539   1.495   5.664  0.1278  0.3023  0.3961
16098TIP3    H169709   2.452   1.524   5.637  0.3674  1.5336  0.8583
16098TIP3    H269710   2.581   1.463   5.584 -0.3541  0.7521 -0.0352
16099TIP3   OH269711   1.539   3.161   4.486 -0.0476  0.4597  0.7859
16099TIP3    H169712   1.599   3.092   4.459 -0.4152 -0.0535  1.2614
16099TIP3    H269713   1.592   3.220   4.539 -0.2304 -0.7162  2.3624
16100TIP3   OH269714   6.614   6.508   3.478  0.6237 -0.4264 -0.0335
16100TIP3    H169715   6.602   6.497   3.572 -2.6084 -0.6759 -0.3710
16100TIP3    H269716   6.549   6.451   3.438 -1.4057  3.0673 -2.2766
16101TIP3   OH269717   3.773   2.250   0.364  0.3941  0.0032 -0.0385
16101TIP3    H169718   3.734   2.332   0.333  0.2704 -0.0822 -0.1115
16101TIP3    H269719   3.704   2.185   0.352  0.0426  0.1210  1.2352
16102TIP3   OH269720   3.335   4.048   4.774 -0.8621  0.0163 -0.0860
16102TIP3    H169721   3.327   4.104   4.697 -0.1882  1.5116  0.8922
16102TIP3    H269722   3.312   4.104   4.848 -2.7243 -1.7063  0.7655
16103TIP3   OH269723   5.099   0.003   4.781  0.0071 -0.1842 -0.3274
16103TIP3    H169724   5.083  -0.063   4.847 -1.3963  0.5907  0.1360
16103TIP3    H269725   5.182   0.044   4.808  0.7884 -1.5720 -0.5184
16104TIP3   OH269726   4.598   3.636   4.334 -0.3392 -0.3276 -0.0061
16104TIP3    H169727   4.657   3.693   4.284  0.2527 -0.2851  0.7290
16104TIP3    H269728   4.510   3.662   4.305 -0.0059 -0.4260 -1.1493
16105TIP3   OH269729   2.904   4.584  14.612 -0.2662  0.2420  0.2393
16105TIP3    H169730   2.932   4.589  14.704 -0.6263  0.1448  0.3604
16105TIP3    H269731   2.839   4.513  14.611  1.8888 -1.8384 -0.6752
16106TIP3   OH269732   4.872   3.948  12.155 -0.3914  0.3572 -0.5721
16106TIP3    H169733   4.955   3.995  12.156  0.5791 -1.3063  0.3405
16106TIP3    H269734   4.850   3.940  12.062  0.9790 -0.0308 -0.8813
16107TIP3   OH269735   2.042   1.175   5.915 -0.0753  0.1203 -0.3524
16107TIP3    H169736   2.031   1.085   5.944  0.0042  0.9072  2.3995
16107TIP3    H269737   2.127   1.177   5.871  0.2784 -0.9762  0.2574
16108TIP3   OH269738   4.395   3.353  10.757 -0.6954 -0.2732 -0.4599
16108TIP3    H169739   4.390   3.272  10.707  0.5500 -0.1375 -0.8357
16108TIP3    H269740   4.486   3.359  10.786 -0.4983  1.4463 -1.2596
16109TIP3   OH269741   0.456   1.111  16.546  0.8860  0.3210 -0.1810
16109TIP3    H169742   0.521   1.067  16.491  1.4658  1.1451 -0.1630
16109TIP3    H269743   0.420   1.041  16.601  1.7565 -0.1525 -0.1917
16110TIP3   OH269744   1.243   0.941  12.516 -0.0797  0.2273 -0.3039
16110TIP3    H169745   1.291   1.004  12.571 -0.2464  0.1873 -0.1115
16110TIP3    H269746   1.151   0.957  12.536 -0.0891 -0.9166  0.6852
16111TIP3   OH269747   6.554   1.934   5.135 -0.4206 -0.6444 -0.0800
16111TIP3    H169748   6.521   1.956   5.222  0.4792  0.1553  0.0714
16111TIP3    H269749   6.553   1.838   5.133 -1.3900 -0.6566  0.4341
16112TIP3   OH269750   0.844   5.892  16.777  0.0161  0.8903  0.4450
16112TIP3    H169751   0.805   5.834  16.843  0.4139  0.4704  0.3184
16112TIP3    H269752   0.868   5.971  16.826  0.3755  0.5522  0.8278
16113TIP3   OH269753   2.821   0.881  12.990  0.3270 -0.4202  0.0714
16113TIP3    H169754   2.758   0.907  12.923  0.3570  1.5752  0.7704
16113TIP3    H269755   2.877   0.957  13.002  0.7942 -0.9874  1.8368
16114TIP3   OH269756   5.795   5.673  16.315  0.5819 -0.0567 -0.3075
16114TIP3    H169757   5.708   5.697  16.283 -0.1096  1.6772  2.5141
16114TIP3    H269758   5.855   5.706  16.249 -0.8288  0.9633 -1.1283
16115TIP3   OH269759   6.639   1.033  14.081 -0.4829 -0.1636 -0.0218
16115TIP3    H169760   6.597   1.092  14.018  0.4568 -1.4955 -2.0144
16115TIP3    H269761   6.599   1.055  14.165 -1.5014  1.9999 -0.9889
16116TIP3   OH269762   3.045   4.524  14.116 -0.0206 -0.0167  0.2860
16116TIP3    H169763   3.122   4.568  14.079 -1.4469  2.4595 -0.0235
16116TIP3    H269764   2.985   4.514  14.042 -0.5638 -0.5795  0.7869
16117TIP3   OH269765   5.726   0.092  12.701 -0.2554  0.1715  0.1346
16117TIP3    H169766   5.709   0.177  12.661 -0.2416 -0.4282 -1.1831
16117TIP3    H269767   5.662   0.033  12.662 -1.3560 -0.1309  2.2278
16118TIP3   OH269768   2.776   1.546   3.935 -0.2303  0.4850 -0.1642
16118TIP3    H169769   2.772   1.544   3.840  1.6130  0.6522 -0.2811
16118TIP3    H269770   2.788   1.639   3.957  1.2272  0.2531  0.0987
16119TIP3   OH269771   1.363   6.361  15.277  0.4906  0.3541 -0.6904
16119TIP3    H169772   1.372   6.409  15.358 -3.4499 -1.2706  0.9885
16119TIP3    H269773   1.279   6.390  15.241  0.4631 -1.5119 -2.3131
16120TIP3   OH269774   0.207   4.146   4.472  0.2803 -0.3441 -0.1328
16120TIP3    H169775   0.228   4.089   4.546 -0.1076 -0.6572 -0.2578
16120TIP3    H269776   0.118   4.120   4.447 -0.8834  1.8947  1.2900
16121TIP3   OH269777   6.584   3.468   3.447  0.6076  0.1829 -0.0421
16121TIP3    H169778   6.553   3.389   3.402  1.0760 -0.1566  0.2237
16121TIP3    H269779   6.538   3.468   3.531  0.5347  0.2451 -0.0819
16122TIP3   OH269780   3.203   2.907  10.972  0.5260 -0.5281 -0.3540
16122TIP3    H169781   3.214   2.838  11.038  0.6469 -0.1797 -0.0000
16122TIP3    H269782   3.110   2.904  10.951  0.7442 -1.6099 -1.2588
16123TIP3   OH269783   6.075   5.256  11.778  0.5771 -0.2927 -0.3237
16123TIP3    H169784   6.043   5.239  11.689  0.7371  0.1726 -0.4768
16123TIP3    H269785   6.021   5.328  11.809  0.0321 -0.9345  0.2388
16124TIP3   OH269786   4.478   1.570  14.856 -0.0016  0.2682 -1.0118
16124TIP3    H169787   4.463   1.642  14.916 -0.2175 -0.5935  0.0079
16124TIP3    H269788   4.552   1.523  14.894 -0.2239 -0.3564 -1.3385
16125TIP3   OH269789   4.013   1.341   5.895 -0.5578 -0.1450  0.1110
16125TIP3    H169790   4.079   1.295   5.946 -1.0107  1.6515  2.4987
16125TIP3    H269791   3.936   1.284   5.898 -0.6695  0.0644  1.7691
16126TIP3   OH269792   5.142   6.577  12.609 -0.1208 -0.7234 -0.0078
16126TIP3    H169793   5.135   6.630  12.530  1.7931  0.8123  0.7610
16126TIP3    H269794   5.224   6.529  12.599 -1.5480 -3.2338 -0.4347
16127TIP3   OH269795   1.272   6.112   2.563  0.5850 -0.8256  0.2453
16127TIP3    H169796   1.344   6.059   2.597 -0.1034 -1.5471  0.6132
16127TIP3    H269797   1.290   6.201   2.594  3.1839 -0.2181 -2.5411
16128TIP3   OH269798   6.140   2.305   1.374  0.3995 -0.2960  0.3910
16128TIP3    H169799   6.120   2.212   1.363 -0.0220 -0.3248  1.3320
16128TIP3    H269800   6.064   2.341   1.420  0.3876  0.5989 -0.3008
16129TIP3   OH269801   3.643   5.773  11.957 -0.2182  0.2718  0.3510
16129TIP3    H169802   3.585   5.712  11.911  0.2453 -0.5500  0.8388
16129TIP3    H269803   3.728   5.729  11.957  0.4130  1.4369 -0.3105
16130TIP3   OH269804   3.411   5.701  16.229  0.2778 -0.2610  0.1439
16130TIP3    H169805   3.503   5.679  16.246  0.6802 -0.0514 -1.5607
16130TIP3    H269806   3.374   5.718  16.315  2.5657  2.5097  0.7068
16131TIP3   OH269807   4.219   5.144  12.775  0.5830 -0.2377 -0.1788
16131TIP3    H169808   4.165   5.218  12.804 -1.7596 -2.0759  0.5213
16131TIP3    H269809   4.163   5.097  12.713  1.9325 -1.5286 -0.4660
16132TIP3   OH269810   0.751   0.384  16.938 -0.4871 -0.2704 -0.3539
16132TIP3    H169811   0.825   0.328  16.962 -0.2265 -0.3912 -1.3902
16132TIP3    H269812   0.745   0.376  16.843 -0.1540  1.8129 -0.6034
16133TIP3   OH269813   2.468   3.165  15.678 -0.4802  0.0568  0.1268
16133TIP3    H169814   2.502   3.254  15.668 -2.6592  1.0063  0.6552
16133TIP3    H269815   2.504   3.118  15.603 -0.9653  1.9551 -1.3811
16134TIP3   OH269816   0.168   1.474  15.108 -0.3737  0.3062  0.2987
16134TIP3    H169817   0.121   1.534  15.168 -0.3925 -0.8649  1.5017
16134TIP3    H269818   0.243   1.525  15.078 -0.7283  1.1519  0.7900
16135TIP3   OH269819   3.634   4.939  11.356 -0.1062  0.5574  0.1958
16135TIP3    H169820   3.707   4.897  11.403 -0.3568  0.9558  0.9728
16135TIP3    H269821   3.675   5.009  11.306 -0.2184  2.8999  3.1121
16136TIP3   OH269822   4.544   0.081   6.283 -0.2379  0.2818 -0.2300
16136TIP3    H169823   4.585   0.001   6.318 -0.9799  0.6879  1.6937
16136TIP3    H269824   4.610   0.149   6.296 -0.3081  0.3287 -0.1178
16137TIP3   OH269825   5.358   3.276  16.455  0.3639  0.1157 -0.5581
16137TIP3    H169826   5.276   3.278  16.406 -0.0093 -0.9073 -0.0034
16137TIP3    H269827   5.426   3.294  16.390 -0.2066 -0.1905 -1.2478
16138TIP3   OH269828   6.669   2.386   0.092 -0.4217  0.3181  0.0563
16138TIP3    H169829   6.744   2.387   0.151  0.4359  0.5477 -1.0181
16138TIP3    H269830   6.597   2.353   0.146  0.8236 -1.5617  0.6485
16139TIP3   OH269831   0.003   0.863   3.674  0.2372 -0.2418 -0.3158
16139TIP3    H169832  -0.040   0.855   3.760  1.0190  0.7632  0.1929
16139TIP3    H269833  -0.069   0.861   3.611 -0.3079 -1.6152  0.3090
16140TIP3   OH269834   6.621   2.453   0.697 -0.3395  0.6033 -0.3834
16140TIP3    H169835   6.561   2.527   0.684  1.2812  2.0896  0.2349
16140TIP3    H269836   6.682   2.483   0.764 -0.1129 -1.6337  0.5126
16141TIP3   OH269837   6.607   3.027  16.299 -0.2005  0.2208 -0.0801
16141TIP3    H169838   6.552   2.967  16.248 -0.4054  1.4722 -1.3914
16141TIP3    H269839   6.665   3.067  16.234  1.0370  0.2734  1.0113
16142TIP3   OH269840   5.051   1.886   2.644 -0.1544 -0.1241  0.0151
16142TIP3    H169841   5.025   1.946   2.574 -0.4342 -0.8572 -0.5286
16142TIP3    H269842   5.011   1.922   2.723 -1.5098 -0.3383 -0.5407
16143TIP3   OH269843   0.257   3.249   0.093  0.3652  0.4963 -0.0152
16143TIP3    H169844   0.164   3.269   0.084  0.0280 -0.7897  0.3168
16143TIP3    H269845   0.299   3.299   0.024 -0.7800 -0.2502 -1.3118
16144TIP3   OH269846   5.930   3.347  12.060 -0.1492  0.0539  0.0194
16144TIP3    H169847   5.996   3.302  12.113 -0.4958  0.6294  0.9690
16144TIP3    H269848   5.978   3.384  11.987  0.4152 -0.3926  0.1625
16145TIP3   OH269849   4.466   2.331   5.388 -0.3690  0.0767 -0.5597
16145TIP3    H169850   4.530   2.348   5.319 -0.7052  2.5728 -0.3508
16145TIP3    H269851   4.506   2.263   5.442  1.5157  0.6222 -1.1927
16146TIP3   OH269852   0.204   2.964  10.925  0.6542  0.2951 -0.0276
16146TIP3    H169853   0.285   2.928  10.961  1.5464  1.5626 -0.6918
16146TIP3    H269854   0.185   2.908  10.849  1.1708  0.2719 -0.1420
16147TIP3   OH269855   5.454   3.142  14.162  0.2349  0.3169 -0.2843
16147TIP3    H169856   5.469   3.062  14.213  0.6387  1.1483  0.9373
16147TIP3    H269857   5.361   3.138  14.139 -0.3162  0.5919  1.7399
16148TIP3   OH269858   6.586   5.960  16.944  0.2998  0.0711 -0.3792
16148TIP3    H169859   6.566   6.048  16.913 -2.0923 -0.3417 -0.2257
16148TIP3    H269860   6.659   5.931  16.890  0.6240  1.8459 -0.9616
16149TIP3   OH269861   1.569   4.510  13.144  0.0503 -0.1439 -0.1109
16149TIP3    H169862   1.632   4.564  13.192  0.2067 -0.9633  0.6184
16149TIP3    H269863   1.600   4.513  13.054 -0.9885  2.4916 -0.4680
16150TIP3   OH269864   5.290   0.770  14.522 -0.5367  0.9323  0.2893
16150TIP3    H169865   5.309   0.812  14.439 -1.0717  1.9056  0.6419
16150TIP3    H269866   5.306   0.838  14.588 -1.3835  0.5881  0.8779
16151TIP3   OH269867   3.802   2.553   0.512 -0.0300  0.1755  0.3611
16151TIP3    H169868   3.747   2.543   0.434 -0.5262  0.1465  0.7153
16151TIP3    H269869   3.781   2.478   0.567  0.2068  0.2786  0.5957
16152TIP3   OH269870   5.271   4.048   2.544 -0.2129 -0.0934  0.0164
16152TIP3    H169871   5.204   3.998   2.590 -1.0890 -0.1674 -1.3116
16152TIP3    H269872   5.262   4.137   2.578 -2.0889  0.2593 -1.2972
16153TIP3   OH269873   3.220   3.807   6.574  0.1080 -0.1176 -0.2543
16153TIP3    H169874   3.250   3.884   6.621 -1.1614 -0.6941  1.6248
16153TIP3    H269875   3.156   3.840   6.511  2.2843  0.7356 -2.1837
16154TIP3   OH269876   6.113   0.739   4.804 -0.5341 -0.6453  0.0662
16154TIP3    H169877   6.166   0.763   4.728  1.4140  0.5277  1.6903
16154TIP3    H269878   6.065   0.819   4.826 -2.3589 -1.4265 -0.8082
16155TIP3   OH269879   3.052   6.410   1.150  0.4216 -0.2394  0.0550
16155TIP3    H169880   2.995   6.487   1.145 -0.9793 -1.3461 -2.6461
16155TIP3    H269881   3.125   6.439   1.206 -1.6031  1.9483  1.8132
16156TIP3   OH269882   3.954   2.269   1.463  0.8431 -0.6110 -0.2405
16156TIP3    H169883   3.954   2.259   1.558 -0.2372  0.3385 -0.1105
16156TIP3    H269884   3.994   2.189   1.430  1.7728 -0.6970  1.0252
16157TIP3   OH269885   2.047   6.699   4.116  0.3918 -0.5296 -0.0580
16157TIP3    H169886   2.003   6.698   4.201  0.1685  0.9494 -0.1286
16157TIP3    H269887   2.131   6.741   4.132  0.5476 -0.6626 -0.4912
16158TIP3   OH269888   5.258   3.479  10.698 -0.1194  0.3886  0.0347
16158TIP3    H169889   5.281   3.440  10.614 -0.8888  0.3761 -0.1802
16158TIP3    H269890   5.252   3.573  10.679  0.4763  0.4732  0.2572
16159TIP3   OH269891   6.493   0.886   0.638 -0.2927  0.3400 -0.3990
16159TIP3    H169892   6.442   0.951   0.590 -0.8856  0.3513  0.2189
16159TIP3    H269893   6.436   0.809   0.641  0.4897 -0.2878 -1.3067
16160TIP3   OH269894   1.945   5.244  14.948  0.3522 -0.4334 -0.3030
16160TIP3    H169895   2.023   5.299  14.935  0.6787 -1.4094 -3.2911
16160TIP3    H269896   1.959   5.201  15.032  1.1811  2.2055  1.0372
16161TIP3   OH269897   6.317   5.356   5.358  0.2558  0.5296  0.2525
16161TIP3    H169898   6.275   5.304   5.426  1.1421  0.4585  0.7528
16161TIP3    H269899   6.407   5.323   5.354  0.5115  1.2651 -0.2021
16162TIP3   OH269900   2.096   2.053   2.249  0.8254 -0.0852 -0.3642
16162TIP3    H169901   2.135   1.991   2.188  0.8413 -1.0877  0.6407
16162TIP3    H269902   2.071   2.000   2.325 -0.5306  0.8883 -0.0923
16163TIP3   OH269903   2.648   5.774   2.276  0.4966  0.4731 -0.2853
16163TIP3    H169904   2.614   5.724   2.201  0.4773 -0.3196  0.2434
16163TIP3    H269905   2.648   5.712   2.348  2.9361  0.4675 -0.2194
16164TIP3   OH269906   5.945   0.737   0.096  0.2381  0.1212  0.1901
16164TIP3    H169907   5.955   0.793   0.173 -0.5042  1.9710 -0.9899
16164TIP3    H269908   5.962   0.795   0.021 -1.1026 -1.0856 -1.1190
16165TIP3   OH269909   6.312   3.916  12.716  0.0907 -0.2332 -0.0852
16165TIP3    H169910   6.230   3.960  12.693  0.6736  0.6574 -0.4971
16165TIP3    H269911   6.360   3.909  12.634  0.7429 -0.0790  0.2766
16166TIP3   OH269912   4.889   5.790   2.115  0.1354 -0.0085 -0.2415
16166TIP3    H169913   4.892   5.778   2.020 -0.7687 -1.1494 -0.1445
16166TIP3    H269914   4.842   5.714   2.147  0.4368  0.3647  1.1358
16167TIP3   OH269915   0.105   0.918  12.983  0.1370 -0.6038  0.6580
16167TIP3    H169916   0.034   0.982  12.989  2.3847  1.9398  1.6314
16167TIP3    H269917   0.085   0.854  13.051 -1.3859 -0.1605  0.6733
16168TIP3   OH269918   5.470   2.554   1.347 -0.2342  0.1400 -0.2913
16168TIP3    H169919   5.468   2.647   1.324  2.2655  0.2445 -0.3676
16168TIP3    H269920   5.395   2.516   1.301 -0.6075  1.9086 -1.2254
16169TIP3   OH269921   1.242   2.968  16.877 -0.3391  0.2384  0.0482
16169TIP3    H169922   1.303   2.929  16.814 -1.0479  1.3588 -1.3874
16169TIP3    H269923   1.292   3.039  16.918 -0.4765  0.7456 -0.6609
16170TIP3   OH269924   1.404   3.734  14.674  0.0847  0.1376 -0.0199
16170TIP3    H169925   1.404   3.785  14.593 -0.7918  0.6383  0.2853
16170TIP3    H269926   1.333   3.671  14.663  0.3663 -0.2134  0.1126
16171TIP3   OH269927   6.107   5.408   3.881 -0.2286 -0.1502  0.2764
16171TIP3    H169928   6.031   5.351   3.867 -0.3110  0.1668 -0.6472
16171TIP3    H269929   6.092   5.447   3.967 -0.8956 -0.4236  0.2940
16172TIP3   OH269930   6.474   6.738  13.101 -0.3215  0.6907  0.5733
16172TIP3    H169931   6.391   6.779  13.127 -1.0635 -0.0252 -0.6073
16172TIP3    H269932   6.454   6.645  13.095  1.1274  0.2077  2.3728
16173TIP3   OH269933   3.903   3.814   1.758  0.6777 -0.3656 -0.5643
16173TIP3    H169934   3.841   3.873   1.800  0.4099 -0.0949 -1.3239
16173TIP3    H269935   3.852   3.769   1.691  0.8121 -1.6878  0.1988
16174TIP3   OH269936   5.335   4.653   1.759 -0.6953  0.3243  0.5215
16174TIP3    H169937   5.322   4.681   1.668 -0.7747  1.2018  0.7937
16174TIP3    H269938   5.303   4.563   1.761 -0.9408  0.3879 -0.2631
16175TIP3   OH269939   1.680   5.006  15.278 -0.2381  0.1890  0.6759
16175TIP3    H169940   1.708   5.079  15.332 -0.8652  0.7288  0.2969
16175TIP3    H269941   1.715   5.025  15.191 -0.5204  0.1222  0.5432
16176TIP3   OH269942   5.179   4.759   5.383  0.4619 -0.6855 -0.3073
16176TIP3    H169943   5.102   4.729   5.431  0.2652 -0.0248 -0.2040
16176TIP3    H269944   5.231   4.806   5.449  1.1495 -1.4649 -0.2810
16177TIP3   OH269945   1.750   0.097   6.478 -0.1834  0.0051  0.0391
16177TIP3    H169946   1.732   0.148   6.557 -0.7190 -0.6080  0.3242
16177TIP3    H269947   1.792   0.159   6.418 -0.2330  0.6055  0.6156
16178TIP3   OH269948   4.372   4.387   4.502 -0.1432  0.2491  0.4307
16178TIP3    H169949   4.382   4.328   4.576 -1.0353 -1.1303 -0.4828
16178TIP3    H269950   4.446   4.366   4.444 -0.6485 -0.2604 -0.0525
16179TIP3   OH269951   1.972   2.568   3.690 -0.0984  0.4036 -0.1670
16179TIP3    H169952   1.934   2.526   3.768  0.4482  2.4985  1.3228
16179TIP3    H269953   1.925   2.651   3.682  0.4413  0.6008 -1.5826
16180TIP3   OH269954   4.701   0.436  13.539  0.9648  0.0039  0.0527
16180TIP3    H169955   4.701   0.531  13.525  1.4514 -0.2549 -2.0577
16180TIP3    H269956   4.710   0.399  13.451 -0.5124 -2.0359  0.6849
16181TIP3   OH269957   4.059   0.797  11.898  0.4994 -0.1380  0.5429
16181TIP3    H169958   4.128   0.747  11.942 -1.1726 -0.0053  3.6331
16181TIP3    H269959   3.996   0.730  11.870  0.8419 -0.1006 -0.3553
16182TIP3   OH269960   1.559   4.928   1.551 -0.3241 -0.5876 -0.4461
16182TIP3    H169961   1.501   4.852   1.562  0.3750 -0.7907  2.9041
16182TIP3    H269962   1.640   4.903   1.596  0.4985  1.5939 -0.6190
16183TIP3   OH269963   3.986   4.675  16.371 -0.2895  0.3457  0.4726
16183TIP3    H169964   4.004   4.591  16.414 -2.3389  0.4072  1.5963
16183TIP3    H269965   4.056   4.733  16.399  0.3375 -0.5865  0.8750
16184TIP3   OH269966   0.270   2.758  12.008  0.1293  0.7957  0.2047
16184TIP3    H169967   0.309   2.821  12.068  1.5136 -0.8013  1.0624
16184TIP3    H269968   0.177   2.758  12.030  0.6880 -0.3194  2.9691
16185TIP3   OH269969   6.405   1.415  14.112  0.3273 -0.0722 -0.1192
16185TIP3    H169970   6.401   1.451  14.201 -0.4135 -0.3566 -0.0343
16185TIP3    H269971   6.342   1.343  14.112  2.4082 -2.0064 -0.0234
16186TIP3   OH269972   1.651   3.218   2.374 -0.3513  0.1392  0.3422
16186TIP3    H169973   1.739   3.227   2.412 -0.7682  0.7586  1.1983
16186TIP3    H269974   1.607   3.300   2.395 -1.1473 -0.1686 -0.0633
16187TIP3   OH269975   4.079   3.491  14.580 -0.1096  1.0030 -0.1172
16187TIP3    H169976   4.109   3.409  14.618 -0.0820  0.5311 -1.1398
16187TIP3    H269977   3.996   3.510  14.625 -0.3926  0.1312 -0.2681
16188TIP3   OH269978   3.145   4.439  15.269 -0.2684  0.2825  0.7325
16188TIP3    H169979   3.135   4.474  15.181  0.1657  1.1944  1.0358
16188TIP3    H269980   3.106   4.352  15.265  0.1434  0.1398 -0.4721
16189TIP3   OH269981   6.108   3.219  14.256  0.1683  0.0747  0.0279
16189TIP3    H169982   6.063   3.291  14.301  1.9830  1.3744 -0.1047
16189TIP3    H269983   6.056   3.204  14.177 -0.4683  0.9626  0.2577
16190TIP3   OH269984   5.899   1.732  16.262 -0.0262  0.3229 -1.1135
16190TIP3    H169985   5.915   1.666  16.195 -2.4387 -0.2735 -1.2011
16190TIP3    H269986   5.983   1.744  16.304  0.3113 -3.9035 -0.1351
16191TIP3   OH269987   3.944   0.926  16.145  0.2337  0.1278  0.4066
16191TIP3    H169988   4.039   0.917  16.146  0.3875  1.5886  0.6020
16191TIP3    H269989   3.920   0.936  16.237 -0.0447  0.3489  0.3131
16192TIP3   OH269990   4.679   1.445   2.932  0.5247  0.4249 -0.1041
16192TIP3    H169991   4.750   1.508   2.941  0.5182  0.4255 -0.0526
16192TIP3    H269992   4.646   1.457   2.843  1.7484 -0.8209 -0.7491
16193TIP3   OH269993   5.209   5.299   3.035 -0.2026  0.1129 -0.2396
16193TIP3    H169994   5.255   5.352   3.101 -2.3676  0.2399  1.2778
16193TIP3    H269995   5.262   5.220   3.028  0.8677  0.7218  0.5572
16194TIP3   OH269996   1.574   6.072  10.683  0.7534 -0.0354 -0.0889
16194TIP3    H169997   1.656   6.120  10.673 -0.1119  1.1975 -2.1014
16194TIP3    H269998   1.591   5.986  10.645  1.2997 -0.0491  0.1759
16195TIP3   OH269999   0.417   0.436  11.954  0.4624  0.1858  0.8917
16195TIP3    H170000   0.507   0.407  11.943  0.6932  1.4229 -1.0074
16195TIP3    H270001   0.425   0.529  11.978 -0.2741  0.5704 -0.2510
16196TIP3   OH270002   6.030   0.429   4.590  0.2765 -0.3764  0.5803
16196TIP3    H170003   6.001   0.363   4.653 -1.8862 -1.6812 -1.5971
16196TIP3    H270004   5.952   0.448   4.538  1.4444  2.1779 -0.4297
16197TIP3   OH270005   1.926   5.746  15.141  0.2941  0.0787  0.3195
16197TIP3    H170006   1.926   5.690  15.063 -1.2226 -0.1286  0.4302
16197TIP3    H270007   1.862   5.814  15.121  0.6896  0.6460  0.9673
16198TIP3   OH270008   2.799   3.630  17.364 -0.0927 -0.5886 -0.7271
16198TIP3    H170009   2.795   3.541  17.399  1.3930 -0.7045 -0.7933
16198TIP3    H270010   2.790   3.686  17.441  0.1030 -0.8145 -0.5350
16199TIP3   OH270011   4.031   1.098   6.431  0.4275 -0.5516  0.5313
16199TIP3    H170012   4.017   1.007   6.405  0.1607 -0.9424  1.9565
16199TIP3    H270013   4.027   1.096   6.526 -0.2308  1.0683  0.5537
16200TIP3   OH270014   3.796   2.022   2.722  0.6409 -0.3001  0.2654
16200TIP3    H170015   3.733   2.031   2.650  0.2992 -0.4901  0.5379
16200TIP3    H270016   3.766   1.945   2.771  1.6381 -0.9663 -0.1433
16201TIP3   OH270017   3.656   2.901  16.447 -0.2787 -0.1098  0.4112
16201TIP3    H170018   3.688   2.836  16.384  2.2548  1.7177 -0.3660
16201TIP3    H270019   3.580   2.941  16.405  0.8990  0.5298 -1.1912
16202TIP3   OH270020   6.617   2.426   2.064 -0.4983 -0.7389  0.3696
16202TIP3    H170021   6.628   2.448   1.971  1.2387 -1.7886  0.2750
16202TIP3    H270022   6.699   2.455   2.105 -0.1189 -2.6931  1.0680
16203TIP3   OH270023   4.222   6.539  16.188  0.0002  0.3406  0.0753
16203TIP3    H170024   4.245   6.454  16.226  0.8374  1.5809  2.5640
16203TIP3    H270025   4.303   6.589  16.192 -1.0445  2.0524  1.0580
16204TIP3   OH270026   2.097   6.062   2.123  0.6995  0.1845 -0.1385
16204TIP3    H170027   2.057   6.119   2.188  1.3141  0.2574  0.1822
16204TIP3    H270028   2.143   6.121   2.063 -0.4017  0.1709 -1.0396
16205TIP3   OH270029   1.726   6.653  12.019 -0.1431 -0.0712  0.3125
16205TIP3    H170030   1.704   6.576  12.072  0.0959  0.6159  1.4413
16205TIP3    H270031   1.705   6.627  11.929 -3.5844 -0.2064  1.0205
16206TIP3   OH270032   4.381   0.609   1.027 -0.4184  0.1061  0.1815
16206TIP3    H170033   4.297   0.568   1.006 -0.3310  0.6376 -1.2845
16206TIP3    H270034   4.366   0.703   1.015  0.1281  0.2903  0.8678
16207TIP3   OH270035   2.411   5.262  12.798 -0.3433 -0.4719  0.6575
16207TIP3    H170036   2.317   5.270  12.784 -0.8290 -2.3754  2.3477
16207TIP3    H270037   2.436   5.183  12.751  0.1761 -0.6226  1.1721
16208TIP3   OH270038   3.931   1.541   5.704 -0.3263  0.3975  0.1484
16208TIP3    H170039   4.004   1.521   5.645  0.4695  3.5051 -0.1201
16208TIP3    H270040   3.952   1.493   5.784  0.0515 -1.6579 -1.0989
16209TIP3   OH270041   5.199   0.010   2.810 -0.0082  0.0898 -0.3702
16209TIP3    H170042   5.106   0.025   2.791 -0.1979 -1.4459 -0.8475
16209TIP3    H270043   5.202  -0.079   2.847  1.3210 -0.1116 -0.8950
16210TIP3   OH270044   0.490   5.652   4.579 -0.8527  0.5876  0.1227
16210TIP3    H170045   0.539   5.593   4.521 -0.0360  1.1088  0.2670
16210TIP3    H270046   0.401   5.649   4.545 -0.6104  0.0620 -0.5075
16211TIP3   OH270047   5.634   4.087   0.357  0.3866 -0.2690 -0.3343
16211TIP3    H170048   5.566   4.021   0.370  0.9047 -0.8432 -0.4819
16211TIP3    H270049   5.702   4.064   0.420  0.5149  0.1990 -0.3022
16212TIP3   OH270050   6.476   0.955  13.559 -0.3297  0.3171  0.0668
16212TIP3    H170051   6.507   0.960  13.468  1.5418  1.5142  0.7006
16212TIP3    H270052   6.402   0.895  13.556  0.3160 -0.4738 -2.0870
16213TIP3   OH270053   4.811   3.781   4.149  0.0023  0.1690  0.0196
16213TIP3    H170054   4.901   3.766   4.120 -0.0868 -0.6090  0.1022
16213TIP3    H270055   4.818   3.846   4.219  0.3072  1.4375 -1.1528
16214TIP3   OH270056   2.449   4.769   1.012 -0.3763  0.0596 -0.5182
16214TIP3    H170057   2.521   4.828   0.994 -0.7651  0.8999  0.5464
16214TIP3    H270058   2.451   4.705   0.941  2.7133 -1.2241  0.5677
16215TIP3   OH270059   5.917   5.003   4.506 -0.1391  0.0356  0.4919
16215TIP3    H170060   5.857   4.929   4.496 -0.4406  0.3710 -0.2434
16215TIP3    H270061   5.995   4.965   4.548 -0.1704 -0.7656 -0.1389
16216TIP3   OH270062   4.317   4.621  12.349 -0.9570 -0.0917 -0.0622
16216TIP3    H170063   4.227   4.646  12.328 -0.7869 -0.3258 -1.1202
16216TIP3    H270064   4.357   4.701  12.382 -1.6199 -0.0484  0.6714
16217TIP3   OH270065   5.223   6.556   2.975  0.0166  0.4823 -0.3448
16217TIP3    H170066   5.154   6.580   3.036  0.6730  0.8929  0.2531
16217TIP3    H270067   5.268   6.482   3.016  0.6619  0.9621 -0.1643
16218TIP3   OH270068   5.868   1.274  12.766  0.1012  0.3296  0.0260
16218TIP3    H170069   5.918   1.226  12.831  0.7214  1.4489  0.4094
16218TIP3    H270070   5.784   1.293  12.808  0.1529  0.2641  0.1568
16219TIP3   OH270071   4.816   2.297   5.304 -0.2907 -0.3000  0.4344
16219TIP3    H170072   4.820   2.344   5.387  1.1399  0.2490  0.0879
16219TIP3    H270073   4.756   2.224   5.320 -1.1749  0.6211  1.5000
16220TIP3   OH270074   3.749   1.647   2.933 -0.0104 -0.2231 -0.0401
16220TIP3    H170075   3.761   1.661   2.839  1.0151  1.6352  0.3180
16220TIP3    H270076   3.672   1.698   2.955  0.0120 -0.2952  0.2109
16221TIP3   OH270077   2.608   0.698   1.939  0.0385  0.1087 -0.0976
16221TIP3    H170078   2.623   0.614   1.982 -0.7907  0.2162  0.4285
16221TIP3    H270079   2.663   0.695   1.861 -0.5205 -1.2097 -0.4672
16222TIP3   OH270080   5.617   2.933  15.174 -0.1679  0.6716 -0.0902
16222TIP3    H170081   5.706   2.948  15.145 -0.0368 -1.3136 -0.8368
16222TIP3    H270082   5.563   2.956  15.099 -0.1040 -0.4414 -0.4916
16223TIP3   OH270083   4.646   1.937  13.155 -0.0336  0.3822  0.4014
16223TIP3    H170084   4.718   1.888  13.116  0.5671  1.6681 -0.1783
16223TIP3    H270085   4.570   1.879  13.148  0.7655 -0.6702  0.2679
16224TIP3   OH270086   0.627   0.838  13.606 -0.1578  0.1468  0.3097
16224TIP3    H170087   0.612   0.762  13.550 -1.4249  2.2413 -2.4137
16224TIP3    H270088   0.578   0.818  13.686 -0.4647 -1.8781 -0.3266
16225TIP3   OH270089   0.980   3.929  15.663  0.1017 -0.4156 -0.4261
16225TIP3    H170090   1.021   4.011  15.635  0.0054 -0.1656  0.1265
16225TIP3    H270091   1.053   3.875  15.695  0.0816 -0.2341 -0.0648
16226TIP3   OH270092   4.158   3.787   1.897  0.0462  0.0718  0.1654
16226TIP3    H170093   4.182   3.871   1.935 -0.4534  0.7846 -1.0523
16226TIP3    H270094   4.086   3.807   1.837 -0.0745 -1.2199 -0.1575
16227TIP3   OH270095   4.183   0.362  17.000 -0.1450  0.1751 -0.5136
16227TIP3    H170096   4.217   0.389  16.915 -0.2393 -0.5473 -0.7840
16227TIP3    H270097   4.088   0.361  16.989 -0.1670  0.2376 -0.3451
16228TIP3   OH270098   0.801   2.664   4.943 -0.1222 -0.2547 -0.2656
16228TIP3    H170099   0.779   2.755   4.924  0.0002 -0.1943 -0.1216
16228TIP3    H270100   0.833   2.630   4.859  1.6402  0.3757  0.1090
16229TIP3   OH270101   2.572   0.941   3.499 -0.3745 -0.1856 -0.3705
16229TIP3    H170102   2.560   0.879   3.571  0.5343 -1.0987 -0.9698
16229TIP3    H270103   2.510   0.912   3.432  0.2951 -0.6875 -0.7893
16230TIP3   OH270104   6.089   6.567   4.589 -0.3503 -0.1241 -0.3065
16230TIP3    H170105   6.092   6.580   4.495 -0.6793 -0.8543 -0.4227
16230TIP3    H270106   6.039   6.486   4.601  3.1424 -2.4461  0.2570
16231TIP3   OH270107   6.065   6.191   3.472 -0.0970 -0.5165 -0.0226
16231TIP3    H170108   6.021   6.122   3.522 -0.9368 -0.3032 -0.4536
16231TIP3    H270109   6.038   6.272   3.515 -1.8033 -0.2444 -1.5088
16232TIP3   OH270110   3.483   5.992   4.990  0.7391  1.0707 -0.4593
16232TIP3    H170111   3.395   6.026   5.006  1.0516  1.5896  0.2366
16232TIP3    H270112   3.519   6.047   4.921  0.8716  1.5197 -0.0422
16233TIP3   OH270113   2.441   1.637   4.169  0.5071  0.2254  0.0545
16233TIP3    H170114   2.495   1.566   4.132 -0.8784  0.0913 -1.8797
16233TIP3    H270115   2.484   1.717   4.140 -0.4054  0.1192 -1.7438
16234TIP3   OH270116   4.594   5.597   0.368 -0.0674  0.3876  0.2510
16234TIP3    H170117   4.519   5.654   0.383  0.3364  0.7327  0.9993
16234TIP3    H270118   4.585   5.527   0.432  0.8925  1.0892  1.1778
16235TIP3   OH270119   1.398   2.846   3.698 -0.2929 -0.3101 -0.7276
16235TIP3    H170120   1.360   2.908   3.635 -0.5267 -0.3815 -0.6590
16235TIP3    H270121   1.401   2.895   3.780 -1.4825 -0.7334 -0.4180
16236TIP3   OH270122   1.559   0.354   3.253  0.0204 -0.7021  0.1200
16236TIP3    H170123   1.541   0.277   3.307  0.2156 -1.7871 -1.3155
16236TIP3    H270124   1.589   0.319   3.170  3.2358  0.9573  0.4318
16237TIP3   OH270125   2.265   0.952  11.456  0.4569 -0.4916  0.0363
16237TIP3    H170126   2.286   0.910  11.372  0.8233 -0.9851  0.3648
16237TIP3    H270127   2.175   0.925  11.475  0.4554 -0.5720 -0.0833
16238TIP3   OH270128   3.068   3.968   3.166  0.0536  0.0074  0.2586
16238TIP3    H170129   3.113   3.884   3.158 -1.7710 -1.0290  0.2030
16238TIP3    H270130   3.090   3.999   3.254  1.6511  0.0650 -0.1328
16239TIP3   OH270131   3.224   1.575  14.714  0.0773  0.5427  0.1489
16239TIP3    H170132   3.169   1.646  14.747  0.4672  1.0489 -0.2788
16239TIP3    H270133   3.183   1.495  14.747 -0.4787  0.9579  0.4652
16240TIP3   OH270134   2.190   2.705  12.482 -0.2309 -0.7705 -0.0816
16240TIP3    H170135   2.170   2.611  12.487 -1.9766 -0.4480 -0.1974
16240TIP3    H270136   2.285   2.709  12.487 -0.1041 -2.5497 -0.1047
16241TIP3   OH270137   5.197   4.419  11.754 -0.0545 -0.4380 -0.2277
16241TIP3    H170138   5.199   4.422  11.850  0.0173  0.3619 -0.2405
16241TIP3    H270139   5.107   4.398  11.732 -0.0039 -0.9278  0.0158
16242TIP3   OH270140   0.250   3.306   3.295 -0.1400  0.7329  0.4979
16242TIP3    H170141   0.264   3.237   3.360  1.1750  0.7862  0.2968
16242TIP3    H270142   0.188   3.269   3.233  1.0616 -0.5475  0.0223
16243TIP3   OH270143   2.215   3.184  16.597  0.3853 -0.3541  0.7784
16243TIP3    H170144   2.270   3.219  16.527 -1.1673  0.2545 -0.1877
16243TIP3    H270145   2.201   3.093  16.574  1.4407 -0.6750  1.3452
16244TIP3   OH270146   4.128   2.125  17.345  0.1058 -0.4103  0.2165
16244TIP3    H170147   4.137   2.199  17.404  1.8826  0.1969 -0.7572
16244TIP3    H270148   4.038   2.130  17.313 -0.1250  0.6594  1.0093
16245TIP3   OH270149   3.738   1.762  14.136 -0.4157 -0.2386 -0.6838
16245TIP3    H170150   3.824   1.774  14.094  0.6828 -1.6991  1.0017
16245TIP3    H270151   3.729   1.837  14.195  0.9250 -1.3216  0.9942
16246TIP3   OH270152   6.156   5.527   5.227 -0.2854  0.1434 -0.0717
16246TIP3    H170153   6.109   5.599   5.268 -1.5581 -0.5540 -0.2442
16246TIP3    H270154   6.196   5.480   5.300  0.4257  0.9263  0.0506
16247TIP3   OH270155   2.482   5.488   1.570 -0.6792 -0.0808 -0.0445
16247TIP3    H170156   2.519   5.484   1.658 -0.6787  0.3022 -0.0256
16247TIP3    H270157   2.480   5.397   1.541  0.0173 -0.1395  0.0608
16248TIP3   OH270158   2.896   1.335   3.541 -0.0288  0.2550  0.3870
16248TIP3    H170159   2.990   1.353   3.534  0.1900 -0.6422  0.7837
16248TIP3    H270160   2.885   1.302   3.630 -0.9525  1.5745  0.7765
16249TIP3   OH270161   4.344   1.131  14.932  0.5164 -0.4539 -0.5678
16249TIP3    H170162   4.380   1.110  14.846 -0.4690  0.5865 -1.2603
16249TIP3    H270163   4.273   1.069  14.945  0.3873 -0.3327 -0.6956
16250TIP3   OH270164   2.718   1.642  17.320 -0.1929 -0.5195  0.0245
16250TIP3    H170165   2.812   1.658  17.316 -0.3217  0.2529 -0.0697
16250TIP3    H270166   2.680   1.706  17.261 -0.8715  0.0515  1.0472
16251TIP3   OH270167   2.185   0.642   3.746 -0.2049 -0.4860  0.6856
16251TIP3    H170168   2.233   0.626   3.827 -1.5488 -1.2561  1.3685
16251TIP3    H270169   2.093   0.633   3.770 -0.7808  1.5438 -0.4254
16252TIP3   OH270170   4.934   2.763   3.261  0.0900  0.5457  0.1938
16252TIP3    H170171   4.951   2.671   3.282  1.9330  0.4893 -1.2740
16252TIP3    H270172   4.889   2.797   3.339  0.9155 -1.1527  1.4954
16253TIP3   OH270173   2.327   2.364   3.104 -0.1957 -0.0082  0.0196
16253TIP3    H170174   2.247   2.391   3.058 -0.7547 -1.3143  0.2087
16253TIP3    H270175   2.324   2.411   3.187 -1.4446 -1.0556  0.5806
16254TIP3   OH270176   4.578   0.672  13.198 -0.5564 -0.6123 -0.3488
16254TIP3    H170177   4.544   0.648  13.112  1.2439 -1.1993 -0.9341
16254TIP3    H270178   4.628   0.753  13.182 -1.8197  0.3961  0.5449
16255TIP3   OH270179   2.053   2.831   1.887  0.1191  0.4166  0.3017
16255TIP3    H170180   2.095   2.809   1.970  0.0030  0.0616  0.2650
16255TIP3    H270181   1.965   2.793   1.893  0.2849 -0.0493 -0.1908
16256TIP3   OH270182   0.811   4.665   0.741 -0.4238  0.0115 -0.5450
16256TIP3    H170183   0.752   4.726   0.697  0.6927  0.8340 -0.9392
16256TIP3    H270184   0.767   4.646   0.824 -1.7860 -0.3078 -1.3156
16257TIP3   OH270185   2.102   1.396   1.042  0.1710  0.3467 -0.0782
16257TIP3    H170186   2.144   1.471   1.083 -1.6060  2.0139 -1.1761
16257TIP3    H270187   2.115   1.324   1.105  0.9088  1.8215  1.5355
16258TIP3   OH270188   2.516   2.717  15.556 -0.4528  0.1704 -0.1392
16258TIP3    H170189   2.545   2.629  15.530 -0.4406 -0.3726  1.5503
16258TIP3    H270190   2.541   2.723  15.649 -1.3447  1.5850  0.0338
16259TIP3   OH270191   2.842   0.201   1.653  0.1836 -0.8005  0.0051
16259TIP3    H170192   2.788   0.267   1.699 -0.4321 -0.9770 -0.4480
16259TIP3    H270193   2.926   0.203   1.698  0.6010  1.1841 -0.7582
16260TIP3   OH270194   2.328   3.354   4.997  0.2870  0.0906 -0.8530
16260TIP3    H170195   2.245   3.309   4.977 -0.3483  1.2903 -0.9910
16260TIP3    H270196   2.309   3.407   5.073 -0.0722  2.9110 -2.7734
16261TIP3   OH270197   6.208   4.605  12.754 -0.3549  0.3899  0.1516
16261TIP3    H170198   6.265   4.667  12.798  0.3357 -1.0113  1.3508
16261TIP3    H270199   6.140   4.586  12.818  1.3647 -2.6542  1.3007
16262TIP3   OH270200   1.858   5.551  12.564  0.1435  0.3441 -0.3060
16262TIP3    H170201   1.820   5.635  12.588  3.3408  1.9160 -0.2685
16262TIP3    H270202   1.912   5.570  12.487  0.7871 -1.7382 -0.4439
16263TIP3   OH270203   2.651   6.364   4.886  0.6016 -0.3445  0.2300
16263TIP3    H170204   2.605   6.444   4.861 -1.4039 -1.1170  1.2819
16263TIP3    H270205   2.718   6.393   4.948  0.2048  0.5621  0.2507
16264TIP3   OH270206   4.153   0.852  13.562 -0.7030  0.2618  0.0708
16264TIP3    H170207   4.103   0.813  13.491 -0.6731  1.4613 -0.6346
16264TIP3    H270208   4.224   0.899  13.519 -0.8494  1.2415  0.8638
16265TIP3   OH270209   1.253   4.551   1.874 -0.1966  0.9623  0.0038
16265TIP3    H170210   1.299   4.476   1.836 -2.9068 -0.2565 -1.1560
16265TIP3    H270211   1.298   4.567   1.957  0.7640 -1.6784  0.0985
16266TIP3   OH270212   4.033   1.777  15.895 -0.2557 -0.2528 -0.3275
16266TIP3    H170213   4.120   1.793  15.859  0.2150  1.6735  1.4533
16266TIP3    H270214   4.038   1.689  15.932  0.2267 -0.9940 -2.0633
16267TIP3   OH270215   3.528   4.530  15.420 -0.6018 -0.0293 -0.1521
16267TIP3    H170216   3.540   4.613  15.468  0.0405  0.3286 -0.9197
16267TIP3    H270217   3.518   4.556  15.329  1.4696 -0.8910 -0.6820
16268TIP3   OH270218   6.721   3.591  11.572 -0.1190  0.3625  0.2202
16268TIP3    H170219   6.698   3.680  11.598 -1.6330 -0.5790  2.4333
16268TIP3    H270220   6.651   3.565  11.512  1.2477  1.1802 -1.8262
16269TIP3   OH270221   6.739   4.608  13.995  0.2159  0.0544 -0.3445
16269TIP3    H170222   6.678   4.553  14.044  1.0935 -0.2474  0.4349
16269TIP3    H270223   6.692   4.691  13.983 -0.0821  0.0845  0.8952
16270TIP3   OH270224   5.431   6.649   4.774  0.1361  0.4419 -0.2307
16270TIP3    H170225   5.378   6.728   4.778  1.4494  1.3505 -0.0548
16270TIP3    H270226   5.371   6.581   4.742 -1.1656  1.3571  0.1751
16271TIP3   OH270227   1.376   3.304  14.324  0.1183 -0.7075  0.0956
16271TIP3    H170228   1.382   3.346  14.410  0.1436 -2.6820  1.0980
16271TIP3    H270229   1.282   3.300  14.306  0.0820 -0.8389  0.3122
16272TIP3   OH270230   3.390   5.159   4.635 -0.4881 -0.2218  0.4601
16272TIP3    H170231   3.404   5.254   4.641 -0.7306 -0.1799  0.3665
16272TIP3    H270232   3.471   5.126   4.595  0.5072 -0.3136  2.4104
16273TIP3   OH270233   3.454   5.680  13.836  0.3240  0.1339  0.0025
16273TIP3    H170234   3.477   5.589  13.815 -0.9521 -0.6237  1.6590
16273TIP3    H270235   3.361   5.687  13.814  0.9060  1.7818 -2.2857
16274TIP3   OH270236   1.003   2.798  15.163 -0.0724 -0.2431  0.9794
16274TIP3    H170237   0.931   2.770  15.219  0.0213 -0.3286  1.0566
16274TIP3    H270238   0.968   2.790  15.074 -0.5400  0.7818  1.0489
16275TIP3   OH270239   2.678   6.513  13.439  0.5290 -0.1540  0.0225
16275TIP3    H170240   2.702   6.442  13.380 -2.5838 -1.0653 -0.3141
16275TIP3    H270241   2.730   6.588  13.410  2.1715 -1.6870 -1.1005
16276TIP3   OH270242   4.487   0.148   1.609  0.3444 -0.0770  0.2928
16276TIP3    H170243   4.471   0.242   1.597  0.0212  0.0355  1.5059
16276TIP3    H270244   4.434   0.106   1.541 -0.3818  0.5682  0.4432
16277TIP3   OH270245   2.830   5.327   1.042  0.2745 -0.6573 -0.0831
16277TIP3    H170246   2.859   5.415   1.018  0.8054 -0.6439  0.5823
16277TIP3    H270247   2.785   5.294   0.964  1.0047 -0.2020 -0.7048
16278TIP3   OH270248   3.020   5.663   1.396  0.1790  0.0658  0.2550
16278TIP3    H170249   3.002   5.750   1.360  0.1369 -0.4024 -0.9057
16278TIP3    H270250   2.939   5.636   1.438  0.1635  0.5427  0.5310
16279TIP3   OH270251   3.194   5.895  12.288 -0.3454 -0.6883 -0.3414
16279TIP3    H170252   3.157   5.932  12.207 -2.0956  1.1448  1.1879
16279TIP3    H270253   3.277   5.942  12.300 -0.1989 -0.7872 -0.9145
16280TIP3   OH270254   5.670   6.106  13.419 -0.2072 -0.0477 -0.2347
16280TIP3    H170255   5.652   6.192  13.379 -1.0377 -0.5650 -1.0293
16280TIP3    H270256   5.655   6.120  13.512  1.2284  1.0621 -0.1387
16281TIP3   OH270257   0.882   3.351  14.053  0.6515  0.1719 -0.9144
16281TIP3    H170258   0.884   3.444  14.074 -0.7383  0.5882 -2.4550
16281TIP3    H270259   0.792   3.324  14.072  1.4314 -1.2810  1.0475
16282TIP3   OH270260   3.559   3.205  12.280  0.2244 -0.5417  1.0267
16282TIP3    H170261   3.496   3.238  12.216 -0.3421 -2.1340  0.7366
16282TIP3    H270262   3.637   3.185  12.228  0.5930  0.3503  1.2142
16283TIP3   OH270263   3.855   4.625  15.187  0.2488 -0.6902 -0.3537
16283TIP3    H170264   3.934   4.672  15.161  0.2153 -0.1182  0.5568
16283TIP3    H270265   3.784   4.670  15.141  0.3296 -0.4879 -0.2808
16284TIP3   OH270266   5.465   3.107  13.592 -0.2583 -0.3532  0.2507
16284TIP3    H170267   5.435   3.061  13.671  0.5072 -0.3347  0.5663
16284TIP3    H270268   5.400   3.085  13.525 -1.5765  0.6043  1.1815
16285TIP3   OH270269   5.279   5.421   0.886  0.1574 -0.4783 -0.2077
16285TIP3    H170270   5.352   5.440   0.827  1.0624  1.1797  1.3389
16285TIP3    H270271   5.314   5.436   0.974 -1.7955 -0.4728  0.6406
16286TIP3   OH270272   0.947   0.424  12.775  0.4496  0.4042  0.0193
16286TIP3    H170273   0.956   0.515  12.803 -0.1235 -0.0878  1.9706
16286TIP3    H270274   1.019   0.411  12.713 -0.0714  2.4376 -1.0827
16287TIP3   OH270275   3.606   3.497   1.413 -0.6543  0.7208 -0.5997
16287TIP3    H170276   3.664   3.457   1.348  0.2547  0.6889  0.2113
16287TIP3    H270277   3.589   3.585   1.380 -1.6722  0.1161 -1.7787
16288TIP3   OH270278   1.318   2.848  14.978  0.5873  0.1793 -0.4960
16288TIP3    H170279   1.256   2.807  14.917  0.4485  1.2956 -1.1332
16288TIP3    H270280   1.344   2.777  15.037 -0.2914 -0.6151 -1.0339
16289TIP3   OH270281   0.667   1.956   6.796  0.3892 -0.1031 -0.3582
16289TIP3    H170282   0.686   1.879   6.742  0.8125  0.5145 -1.1113
16289TIP3    H270283   0.572   1.960   6.800  0.3694 -0.9581  0.1120
16290TIP3   OH270284   6.367   3.631   0.148  0.0931 -0.1048  0.1987
16290TIP3    H170285   6.453   3.640   0.106 -0.4530  1.0536 -0.7257
16290TIP3    H270286   6.305   3.637   0.076 -0.8510  1.2556  1.0833
16291TIP3   OH270287   4.573   6.233  14.685 -0.6259  0.5039  0.0446
16291TIP3    H170288   4.667   6.246  14.692 -0.3193 -0.8659 -1.0134
16291TIP3    H270289   4.543   6.301  14.625 -0.5958  1.9123  1.5634
16292TIP3   OH270290   1.917   2.703   2.262  0.1615 -0.5319  0.2321
16292TIP3    H170291   1.919   2.798   2.277 -0.3692 -0.3557 -0.7210
16292TIP3    H270292   1.955   2.665   2.341 -0.5648  0.4221  1.0521
16293TIP3   OH270293   1.893   0.848   0.184  0.0071  0.5925 -0.1182
16293TIP3    H170294   1.886   0.778   0.119 -2.9036  0.4354  0.2471
16293TIP3    H270295   1.897   0.803   0.268  1.4746  0.8508 -0.0210
16294TIP3   OH270296   1.393   3.090  11.075 -0.5003 -0.0828 -0.7035
16294TIP3    H170297   1.339   3.116  11.149  0.3075 -0.4140  0.0104
16294TIP3    H270298   1.359   3.142  11.002 -0.0934  1.6550  0.2920
16295TIP3   OH270299   2.819   5.279  15.215 -0.2216 -0.1881  0.0925
16295TIP3    H170300   2.809   5.371  15.190  1.1909 -0.2168 -0.6515
16295TIP3    H270301   2.894   5.277  15.274  0.1487 -0.9377 -0.3863
16296TIP3   OH270302   2.037   2.441  17.372  0.0856  0.0832 -0.3724
16296TIP3    H170303   1.972   2.374  17.396  1.0119 -0.9861 -0.7623
16296TIP3    H270304   2.121   2.403  17.398  0.6127  1.1964 -0.4156
16297TIP3   OH270305   1.202   3.434   5.495 -0.2757 -0.1488 -0.1255
16297TIP3    H170306   1.294   3.457   5.484 -0.2877  0.1387  0.3484
16297TIP3    H270307   1.204   3.343   5.526 -0.2350 -0.8452 -2.0757
16298TIP3   OH270308   6.557   1.255  13.943  0.1667 -0.2493 -0.4568
16298TIP3    H170309   6.491   1.308  13.987  1.1016  0.5933 -0.0064
16298TIP3    H270310   6.576   1.303  13.862  0.6582 -0.1483 -0.2873
16299TIP3   OH270311   4.253   5.460  11.309  0.0513  0.2996  0.6349
16299TIP3    H170312   4.283   5.373  11.334 -0.1153  0.3199  0.9027
16299TIP3    H270313   4.206   5.447  11.227  2.7540  0.5562 -1.1102
16300TIP3   OH270314   3.302   5.721  14.671  0.8575  0.7548  0.0019
16300TIP3    H170315   3.365   5.698  14.602 -1.1495  0.6197 -1.8979
16300TIP3    H270316   3.294   5.642  14.724  0.0358 -0.3201 -1.6206
16301TIP3   OH270317   2.660   4.859  16.848 -0.6088 -0.4049 -0.1182
16301TIP3    H170318   2.609   4.932  16.883  1.2255 -0.2723  2.6621
16301TIP3    H270319   2.742   4.899  16.820 -0.4809 -1.1109 -0.7777
16302TIP3   OH270320   0.023   3.681   0.107 -0.4817  0.1264  0.0707
16302TIP3    H170321   0.104   3.725   0.079 -1.6072  1.3755 -1.3672
16302TIP3    H270322  -0.027   3.748   0.152 -1.9820  0.2401 -1.6600
16303TIP3   OH270323   2.905   4.978   3.245 -0.1195  0.1805 -0.2655
16303TIP3    H170324   2.838   4.936   3.191  0.2096  0.0277 -0.5602
16303TIP3    H270325   2.975   5.000   3.184  0.7142 -0.9205  0.2374
16304TIP3   OH270326   0.541   0.567   2.265  0.4753 -0.2980 -0.4785
16304TIP3    H170327   0.594   0.496   2.228  1.4894  0.0969  0.1846
16304TIP3    H270328   0.453   0.530   2.270  0.4592 -0.6707 -2.4291
16305TIP3   OH270329   6.680   4.703  14.519 -0.5621 -0.1716 -0.3083
16305TIP3    H170330   6.612   4.738  14.461  0.2570  1.4037 -0.3474
16305TIP3    H270331   6.651   4.613  14.537 -2.3115  0.2415 -0.8489
16306TIP3   OH270332   5.836   2.872   0.546  0.2790  0.5035 -0.1573
16306TIP3    H170333   5.868   2.918   0.469  0.3189 -0.5408 -0.7853
16306TIP3    H270334   5.782   2.801   0.511 -0.8132  0.8200  0.8213
16307TIP3   OH270335   2.825   1.240  14.073  0.0278  0.3440 -0.4324
16307TIP3    H170336   2.806   1.228  13.980 -0.2348  1.7997 -0.5896
16307TIP3    H270337   2.742   1.222  14.117  0.0305  0.1120 -0.5217
16308TIP3   OH270338   2.406   3.853   4.777 -0.5292 -0.3089  0.4195
16308TIP3    H170339   2.492   3.814   4.759 -0.7329 -0.3058 -0.5754
16308TIP3    H270340   2.354   3.781   4.810 -0.3812 -0.4907  0.2596
16309TIP3   OH270341   4.910   5.432   4.604 -0.0471 -0.4910 -0.6546
16309TIP3    H170342   4.834   5.439   4.545 -1.0054 -1.0245  0.4672
16309TIP3    H270343   4.954   5.351   4.576  0.6478  0.2855 -1.8865
16310TIP3   OH270344   4.336   1.103   5.768  1.0554 -0.1751  0.2501
16310TIP3    H170345   4.290   1.097   5.851 -0.2439 -0.1675 -0.4403
16310TIP3    H270346   4.412   1.160   5.786 -1.1357  2.8718  0.6375
16311TIP3   OH270347   3.201   1.944   6.007 -0.4107  0.3554 -0.0284
16311TIP3    H170348   3.183   1.989   5.924  0.4098 -0.5254 -0.7132
16311TIP3    H270349   3.115   1.923   6.042 -0.7905 -0.3709 -1.3051
16312TIP3   OH270350   2.377   4.188  13.428  0.3154  0.6506 -0.2677
16312TIP3    H170351   2.393   4.282  13.438  0.7466  0.4284  1.5103
16312TIP3    H270352   2.287   4.175  13.460  0.9424  0.2155  1.4182
16313TIP3   OH270353   6.664   6.674   5.555 -0.2745 -0.0649  0.1047
16313TIP3    H170354   6.677   6.619   5.633  0.0426 -0.8910 -0.5190
16313TIP3    H270355   6.701   6.759   5.580  0.6157 -0.5729  0.5693
16314TIP3   OH270356   6.420   1.593  10.688  0.2239 -0.0260 -0.1144
16314TIP3    H170357   6.450   1.682  10.704  0.3694 -0.0695 -0.1480
16314TIP3    H270358   6.406   1.589  10.593 -0.7102  0.2543  0.0002
16315TIP3   OH270359   6.535   0.502  12.468  0.5235  0.2557  0.0955
16315TIP3    H170360   6.627   0.529  12.464  0.4387  0.5294 -0.0008
16315TIP3    H270361   6.497   0.557  12.537  0.5213 -0.1254  0.4040
16316TIP3   OH270362   2.202   2.249  11.415 -0.6909 -0.4230 -0.4141
16316TIP3    H170363   2.266   2.178  11.415 -0.6286 -0.4038 -1.7662
16316TIP3    H270364   2.193   2.274  11.507  1.0969 -0.5690 -0.1620
16317TIP3   OH270365   3.547   2.846  11.999  0.6152 -0.4966 -0.1688
16317TIP3    H170366   3.610   2.855  11.928  2.2007  1.3624  1.3688
16317TIP3    H270367   3.590   2.788  12.062  1.6351  2.0968  1.6589
16318TIP3   OH270368   5.077   5.236   2.070 -0.3021 -0.2703 -0.5389
16318TIP3    H170369   5.057   5.143   2.062 -0.3822 -0.2419 -0.6668
16318TIP3    H270370   5.045   5.259   2.157 -1.0023 -0.1835 -0.8122
16319TIP3   OH270371   2.183   5.381   0.148  0.1441 -0.0845 -0.0305
16319TIP3    H170372   2.159   5.309   0.088  0.2705 -0.7326  0.6820
16319TIP3    H270373   2.099   5.415   0.178  0.0368 -1.8595  1.8791
16320TIP3   OH270374   2.997   6.503   4.212 -0.1297  0.0135  0.0286
16320TIP3    H170375   3.085   6.516   4.247  0.0228 -0.7601 -0.0491
16320TIP3    H270376   2.948   6.581   4.239  1.3810  2.0352 -2.5905
16321TIP3   OH270377   4.084   2.253   0.382  0.1666  0.3277  0.3009
16321TIP3    H170378   4.000   2.210   0.368  0.6369 -0.1582 -1.2081
16321TIP3    H270379   4.147   2.200   0.333  1.0984  1.5417  0.1282
16322TIP3   OH270380   3.983   1.089  13.282 -0.0063 -0.1481 -0.2186
16322TIP3    H170381   3.909   1.097  13.341  0.5596  0.7273  0.3975
16322TIP3    H270382   3.949   1.040  13.206 -1.2613  0.4638 -0.0693
16323TIP3   OH270383   4.335   0.051   5.073  0.2811 -0.7318  0.2100
16323TIP3    H170384   4.349   0.110   5.147  1.4022  0.4751 -0.8945
16323TIP3    H270385   4.400  -0.018   5.085  2.2084  0.7838 -0.8793
16324TIP3   OH270386   2.052   1.171  16.114  0.0960 -0.3534  0.1073
16324TIP3    H170387   2.000   1.143  16.038 -0.8822 -0.0408  0.6415
16324TIP3    H270388   2.023   1.113  16.185  0.9956 -0.6389  0.2508
16325TIP3   OH270389   4.742   3.708  12.076  0.3834 -0.2884 -0.4938
16325TIP3    H170390   4.676   3.690  12.142  1.2332 -0.1171  0.4316
16325TIP3    H270391   4.798   3.775  12.115  0.9917 -0.2879 -1.3273
16326TIP3   OH270392   1.216   6.697  16.152 -0.1255 -0.0438 -0.0522
16326TIP3    H170393   1.298   6.740  16.176  0.0198 -0.4553  0.1855
16326TIP3    H270394   1.241   6.627  16.092 -0.5529  1.4576 -2.1048
16327TIP3   OH270395   0.325   3.635  16.298 -0.7517  0.0975 -0.3550
16327TIP3    H170396   0.282   3.563  16.344 -0.9309  1.3924  1.6602
16327TIP3    H270397   0.294   3.714  16.343  1.3300  1.2773 -0.8476
16328TIP3   OH270398   2.230   1.803  11.323 -0.1439  0.5291 -0.0195
16328TIP3    H170399   2.300   1.745  11.355 -1.4781 -1.2060 -0.1114
16328TIP3    H270400   2.241   1.803  11.228  0.1425  0.8077  0.0125
16329TIP3   OH270401   2.841   0.295  14.738  0.1638 -0.3933  0.3005
16329TIP3    H170402   2.851   0.278  14.644 -0.9602 -1.5821  0.3800
16329TIP3    H270403   2.856   0.390  14.746 -0.6041 -0.1133 -1.2059
16330TIP3   OH270404   4.834   2.979   2.775 -0.0191  0.1629 -0.0742
16330TIP3    H170405   4.818   2.888   2.751 -1.6452  0.3204  0.2925
16330TIP3    H270406   4.762   3.002   2.834 -0.1304  1.9243 -0.8209
16331TIP3   OH270407   0.470   3.052   3.142  0.5420 -0.2565 -0.0417
16331TIP3    H170408   0.556   3.087   3.165 -0.0854  0.8699  0.7029
16331TIP3    H270409   0.439   3.109   3.072  1.0968 -1.7283 -1.5590
16332TIP3   OH270410   3.556   5.023  13.073 -0.0475 -0.2105  0.3186
16332TIP3    H170411   3.584   5.088  13.137 -1.2651 -0.7884  1.5052
16332TIP3    H270412   3.470   5.054  13.044 -0.8328 -1.4523  1.2088
16333TIP3   OH270413   6.064   2.315   2.313 -0.3337 -0.3837  0.2387
16333TIP3    H170414   6.105   2.228   2.312 -1.4753 -0.9902  1.7226
16333TIP3    H270415   6.138   2.376   2.306  0.6369 -1.4564  0.7351
16334TIP3   OH270416   3.940   0.576   1.180 -0.0129 -0.0611  0.3777
16334TIP3    H170417   3.887   0.499   1.161 -1.6238  0.7585  1.3195
16334TIP3    H270418   3.984   0.554   1.262 -2.5875  0.9343  2.1669
16335TIP3   OH270419   2.847   3.927  11.271 -0.4639  0.4249  0.9934
16335TIP3    H170420   2.784   3.991  11.303  0.6904  0.8563  2.5235
16335TIP3    H270421   2.794   3.853  11.241 -1.7466  1.5019  0.5562
16336TIP3   OH270422   2.863   0.517  12.767 -0.4594 -0.1066 -0.2157
16336TIP3    H170423   2.815   0.468  12.700 -4.0663  2.6926  0.0182
16336TIP3    H270424   2.921   0.575  12.717 -1.7510  0.6405 -0.9050
16337TIP3   OH270425   0.443   4.417  13.930 -0.5378  0.3767 -0.0736
16337TIP3    H170426   0.412   4.342  13.878  1.8703 -2.3872  2.1139
16337TIP3    H270427   0.489   4.472  13.867 -1.0159 -0.8282 -1.5457
16338TIP3   OH270428   4.432   3.104   2.336  0.0751  0.2855  0.3247
16338TIP3    H170429   4.366   3.155   2.290  1.6763  0.4336 -1.9270
16338TIP3    H270430   4.395   3.015   2.339 -0.5625  0.5234 -0.1864
16339TIP3   OH270431   3.688   3.413  11.349 -0.6561 -0.2519 -0.6805
16339TIP3    H170432   3.725   3.457  11.273 -1.4446  0.1623 -0.8418
16339TIP3    H270433   3.653   3.331  11.315 -1.0701 -0.0359 -0.7909
16340TIP3   OH270434   3.004   5.269  15.425 -0.2933 -0.4735 -0.7544
16340TIP3    H170435   3.001   5.239  15.515 -1.0228 -0.5252 -0.7902
16340TIP3    H270436   3.063   5.345  15.426 -0.3412 -0.4430 -0.2345
16341TIP3   OH270437   6.436   3.908   1.225 -0.3567  0.2934  0.1920
16341TIP3    H170438   6.440   3.972   1.296  0.0202  1.5349 -0.9265
16341TIP3    H270439   6.528   3.887   1.207 -0.2886  1.9038 -1.5904
16342TIP3   OH270440   3.516   2.762  12.981 -0.0333  0.0810  0.0495
16342TIP3    H170441   3.611   2.759  12.964  0.5747  2.3573  2.3393
16342TIP3    H270442   3.509   2.759  13.076 -2.3055 -0.2140 -0.0840
16343TIP3   OH270443   4.010   3.550  16.063  0.3740 -0.2365 -0.5351
16343TIP3    H170444   4.028   3.636  16.024  0.9243  0.2913  0.8449
16343TIP3    H270445   3.949   3.509  16.002 -2.2645  2.3096  0.1692
16344TIP3   OH270446   3.438   2.363  16.487  0.0200 -0.2390 -0.0488
16344TIP3    H170447   3.423   2.286  16.542  0.9906 -1.2459 -1.1320
16344TIP3    H270448   3.359   2.370  16.434  0.3230 -1.1104 -0.6370
16345TIP3   OH270449   2.755   5.569   1.531 -0.1541  0.3943 -0.1559
16345TIP3    H170450   2.793   5.609   1.609 -2.6537  1.9247  0.4129
16345TIP3    H270451   2.769   5.475   1.543 -0.0396  0.6164  1.9300
16346TIP3   OH270452   2.727   1.951  15.848  0.4251 -0.6139  0.6884
16346TIP3    H170453   2.783   1.884  15.809 -0.4027 -1.0214  0.1437
16346TIP3    H270454   2.749   1.950  15.941  0.0395 -2.0663  0.7907
16347TIP3   OH270455   5.263   4.857   5.615  0.2959 -0.3720 -0.2906
16347TIP3    H170456   5.320   4.933   5.629  0.1705  0.0325 -1.8204
16347TIP3    H270457   5.195   4.866   5.681  1.4842 -0.3700  0.9866
16348TIP3   OH270458   6.222   3.927  11.787  0.6248 -0.4896 -0.2952
16348TIP3    H170459   6.255   3.903  11.700  0.6062 -0.7543 -0.2310
16348TIP3    H270460   6.134   3.890  11.790  0.4372 -0.0442 -0.3534
16349TIP3   OH270461   5.410   1.666   1.834  0.0623  0.5924  0.6975
16349TIP3    H170462   5.319   1.696   1.836 -0.5684 -1.2260  2.2488
16349TIP3    H270463   5.436   1.662   1.926  1.0582 -0.7648  0.3866
16350TIP3   OH270464   1.220   0.401   4.644 -0.2026 -0.2423  0.6821
16350TIP3    H170465   1.272   0.377   4.721 -0.0680  1.3458  1.1126
16350TIP3    H270466   1.174   0.480   4.670 -1.1684 -0.4079 -0.4448
16351TIP3   OH270467   5.458   3.107  17.205  0.4122  0.2526  0.4133
16351TIP3    H170468   5.381   3.126  17.151  0.2971 -0.2462  0.3970
16351TIP3    H270469   5.531   3.107  17.143  0.2758 -0.3495  0.2514
16352TIP3   OH270470   5.602   1.940  15.649  0.1654 -0.0589  0.0020
16352TIP3    H170471   5.621   2.033  15.640 -0.2296 -0.1023 -1.5674
16352TIP3    H270472   5.599   1.925  15.743 -3.4655  2.3063  0.4643
16353TIP3   OH270473   1.494   4.294  16.106 -0.6793 -0.0389  0.3214
16353TIP3    H170474   1.452   4.233  16.046 -0.2385 -0.1297  0.0952
16353TIP3    H270475   1.448   4.377  16.094 -0.2801  0.0681 -0.4966
16354TIP3   OH270476   3.994   1.561  15.306  0.1723  0.1431  0.7814
16354TIP3    H170477   4.089   1.554  15.298  0.1082  0.5305 -0.4092
16354TIP3    H270478   3.979   1.583  15.398  1.3864  2.6760  0.4436
16355TIP3   OH270479   6.062   4.984   2.359 -0.4864 -0.4784  0.3350
16355TIP3    H170480   6.106   5.068   2.349 -2.7915  0.5520 -1.9984
16355TIP3    H270481   6.134   4.920   2.358  1.1188  1.1927 -1.9306
16356TIP3   OH270482   0.828   1.639  13.334 -0.5150 -0.0441 -0.3713
16356TIP3    H170483   0.809   1.549  13.360  0.3721 -0.8000 -2.1871
16356TIP3    H270484   0.746   1.686  13.351 -0.3814 -0.6719  2.5436
16357TIP3   OH270485   2.354   0.908  16.490 -0.2115  0.0493  0.4147
16357TIP3    H170486   2.406   0.894  16.411 -1.4518  1.1866 -0.6765
16357TIP3    H270487   2.350   1.003  16.499  0.7202 -0.0659  2.4427
16358TIP3   OH270488   2.452   3.109   2.331 -0.2100  0.3116  0.1034
16358TIP3    H170489   2.405   3.027   2.317  2.1592 -1.1994  0.5003
16358TIP3    H270490   2.541   3.083   2.354  1.3927  2.9805 -2.2713
16359TIP3   OH270491   0.218   3.597   6.553 -0.2527 -0.2755  0.4311
16359TIP3    H170492   0.212   3.501   6.553 -1.9640 -0.2047  0.9020
16359TIP3    H270493   0.286   3.617   6.489 -1.8518 -1.7127 -1.8613
16360TIP3   OH270494   2.809   3.844  11.606 -0.4894 -0.2160 -0.0843
16360TIP3    H170495   2.834   3.883  11.690 -0.4471 -2.2567  0.9236
16360TIP3    H270496   2.824   3.913  11.542  1.6055  0.7322  1.3023
16361TIP3   OH270497   3.738   4.496  13.454  0.4300  0.2852 -0.4448
16361TIP3    H170498   3.722   4.459  13.367  1.8095 -0.1010 -0.5679
16361TIP3    H270499   3.738   4.590  13.441 -3.4040  0.4834 -0.0823
16362TIP3   OH270500   5.386   6.354  10.896 -0.6293 -0.0806  0.1627
16362TIP3    H170501   5.309   6.299  10.883 -1.2641  0.7274  0.3699
16362TIP3    H270502   5.457   6.309  10.851 -1.0576 -1.2177  0.6088
16363TIP3   OH270503   2.992   4.974   4.979 -0.3091 -0.3620  0.0718
16363TIP3    H170504   2.995   4.918   5.056 -2.9738  0.5687  0.9469
16363TIP3    H270505   3.019   4.917   4.906 -2.4409 -2.6972  0.9736
16364TIP3   OH270506   4.619   4.520  14.653  0.0280  0.5136  0.7740
16364TIP3    H170507   4.679   4.503  14.726 -0.5682 -0.8899  0.9784
16364TIP3    H270508   4.609   4.435  14.610  0.4063  1.3130 -1.0056
16365TIP3   OH270509   2.013   0.921  16.700  0.3050  0.0571 -0.1649
16365TIP3    H170510   2.040   0.857  16.766  2.7792  0.9898 -0.1577
16365TIP3    H270511   1.988   0.998  16.749 -1.7507 -0.5291 -0.2158
16366TIP3   OH270512   2.754   6.352   0.981  0.0553  0.3665 -0.3196
16366TIP3    H170513   2.763   6.428   0.923 -0.2429  0.0917 -0.7275
16366TIP3    H270514   2.666   6.319   0.964  0.8974 -1.3276 -1.6900
16367TIP3   OH270515   4.827   3.966  11.888  0.1789 -0.1299  0.5128
16367TIP3    H170516   4.752   4.026  11.886 -0.0376 -0.4031 -0.7781
16367TIP3    H270517   4.834   3.933  11.798  0.1341 -2.2568  1.2346
16368TIP3   OH270518   0.433   4.136  16.576 -0.2773 -0.1773 -0.1643
16368TIP3    H170519   0.431   4.115  16.669  0.4109  0.7790  0.0755
16368TIP3    H270520   0.495   4.208  16.568  0.6914 -1.1078 -1.5543
16369TIP3   OH270521   3.333   5.392   3.706 -0.4645  0.4018 -0.3230
16369TIP3    H170522   3.330   5.374   3.800 -0.2629  1.7622 -0.0349
16369TIP3    H270523   3.273   5.328   3.667 -2.7240  1.5909  1.0176
16370TIP3   OH270524   1.918   3.336   0.896 -0.0047  0.0072 -0.2322
16370TIP3    H170525   1.979   3.409   0.899 -0.6412  0.6262 -1.4717
16370TIP3    H270526   1.844   3.364   0.951 -0.3263  0.3933 -0.8459
16371TIP3   OH270527   2.411   3.912  13.737 -0.4808 -0.7614 -0.5850
16371TIP3    H170528   2.383   3.973  13.668 -0.0835 -2.5959 -2.4584
16371TIP3    H270529   2.494   3.877  13.705  0.1149 -1.0952  1.2420
16372TIP3   OH270530   0.060   2.732  15.416  0.0838 -0.7270  0.0143
16372TIP3    H170531   0.119   2.794  15.460  0.6948 -1.9192  0.9438
16372TIP3    H270532   0.073   2.748  15.323  1.0635 -0.2237  0.2230
16373TIP3   OH270533   3.431   0.116   2.866  0.2437  0.1389  0.1698
16373TIP3    H170534   3.449   0.160   2.949  1.5173  0.8292 -0.4488
16373TIP3    H270535   3.357   0.059   2.885 -0.0221  0.9075  1.5614
16374TIP3   OH270536   4.758   1.309  15.926  0.0479  0.0777  0.2421
16374TIP3    H170537   4.747   1.316  15.831 -0.1022  0.7731  0.3072
16374TIP3    H270538   4.720   1.390  15.961 -0.9154 -0.6562  0.9758
16375TIP3   OH270539   2.339   6.311   3.585 -0.8103  0.7598  0.4367
16375TIP3    H170540   2.359   6.398   3.619 -1.3012  0.0128  2.8088
16375TIP3    H270541   2.358   6.252   3.657  0.9807 -1.3295 -1.5901
16376TIP3   OH270542   2.205   1.800  14.449  0.0756 -0.3917  0.6839
16376TIP3    H170543   2.183   1.799  14.542 -2.4582 -2.3352  0.1666
16376TIP3    H270544   2.250   1.717  14.434 -1.7615 -1.2845 -0.2169
16377TIP3   OH270545   5.431   5.055  14.300  0.6472  0.5758  0.1046
16377TIP3    H170546   5.493   4.996  14.256  0.6897 -0.3200  1.2890
16377TIP3    H270547   5.346   5.031  14.263  0.8234  0.7320 -0.4131
16378TIP3   OH270548   6.195   5.711   2.505 -0.4210 -0.3315 -0.6937
16378TIP3    H170549   6.123   5.751   2.553 -1.8167 -1.2415 -1.9155
16378TIP3    H270550   6.207   5.625   2.546  0.4452  0.0901 -0.0555
16379TIP3   OH270551   3.694   3.541   3.464  0.0592 -0.2350  0.3828
16379TIP3    H170552   3.759   3.480   3.430  0.1669  1.0180 -1.8482
16379TIP3    H270553   3.621   3.486   3.493  1.3023 -1.5418  1.1810
16380TIP3   OH270554   1.425   6.161   1.184  0.6069 -0.9966 -0.1746
16380TIP3    H170555   1.481   6.199   1.253 -0.6761 -1.2239  1.0303
16380TIP3    H270556   1.381   6.087   1.227  0.5364 -1.7879 -1.5463
16381TIP3   OH270557   1.187   2.308   0.728 -0.0871 -0.2156 -0.1168
16381TIP3    H170558   1.118   2.322   0.792  1.1777  0.7584  1.1054
16381TIP3    H270559   1.189   2.213   0.715 -1.4449 -0.2760  0.0275
16382TIP3   OH270560   5.523   4.080  14.901 -0.4846  0.3525  0.2214
16382TIP3    H170561   5.524   3.985  14.891 -1.6806  0.3651 -0.1634
16382TIP3    H270562   5.487   4.095  14.988 -0.2455  0.4536  0.3035
16383TIP3   OH270563   5.028   6.213   5.223  0.1430 -0.5268  0.5089
16383TIP3    H170564   5.021   6.195   5.129 -0.0688 -0.2565  0.4741
16383TIP3    H270565   5.094   6.282   5.230  0.4432 -0.8133  0.5929
16384TIP3   OH270566   0.262   5.658  12.170  0.2449  0.6231  0.3071
16384TIP3    H170567   0.192   5.623  12.114  0.0279  0.6605  0.5537
16384TIP3    H270568   0.223   5.663  12.257  0.5063  0.7916  0.4166
16385TIP3   OH270569   4.793   6.176   3.379 -0.6338  0.4759 -0.8008
16385TIP3    H170570   4.851   6.207   3.449  0.7087 -0.7328 -1.3385
16385TIP3    H270571   4.821   6.086   3.362 -2.1333  0.1366 -1.6671
16386TIP3   OH270572   5.466   5.020  13.497 -0.0519  0.0003  0.3113
16386TIP3    H170573   5.468   5.009  13.402 -1.4161  1.5176  0.0631
16386TIP3    H270574   5.403   4.955  13.528  0.4116 -0.5105  0.2022
16387TIP3   OH270575   4.100   2.164   3.419 -0.1180 -0.3029  0.6256
16387TIP3    H170576   4.129   2.130   3.504 -0.1790 -0.4268  0.5983
16387TIP3    H270577   4.015   2.203   3.437 -0.0777 -0.2249  0.6448
16388TIP3   OH270578   2.206   1.697   6.518 -0.2326 -0.8453 -0.3856
16388TIP3    H170579   2.267   1.713   6.590 -1.0080  0.0703  0.0886
16388TIP3    H270580   2.221   1.769   6.457 -1.1998 -0.2981 -0.0010
16389TIP3   OH270581   3.106   6.456   3.696  0.4567 -0.1112  0.0531
16389TIP3    H170582   3.200   6.442   3.703  0.5738  0.5414 -0.1377
16389TIP3    H270583   3.080   6.490   3.781  0.4875  0.1995 -0.0594
16390TIP3   OH270584   1.203   2.518   2.149 -0.4673 -0.7210 -0.1634
16390TIP3    H170585   1.177   2.477   2.067 -2.7728  0.7352 -0.2507
16390TIP3    H270586   1.234   2.604   2.124 -2.1639  0.1324  0.5009
16391TIP3   OH270587   1.202   1.441   4.719  0.6981 -0.0429  0.2503
16391TIP3    H170588   1.178   1.430   4.811 -0.3401 -0.3815 -0.0469
16391TIP3    H270589   1.261   1.516   4.719 -1.8406  2.1113  0.8305
16392TIP3   OH270590   2.471   5.777   4.722  0.1813  0.0983 -0.5191
16392TIP3    H170591   2.478   5.716   4.795 -0.0363 -0.5973 -1.0617
16392TIP3    H270592   2.377   5.795   4.714  0.0958 -0.6033 -1.2320
16393TIP3   OH270593   1.881   2.947   2.414  0.0990  0.2465 -0.2171
16393TIP3    H170594   1.893   2.901   2.497  0.1560 -0.5106 -0.6353
16393TIP3    H270595   1.927   3.030   2.426  0.4173 -0.0072  0.3751
16394TIP3   OH270596   5.124   6.047   4.227 -0.6106 -0.3384 -0.1074
16394TIP3    H170597   5.126   6.059   4.132  1.2130 -0.1681 -0.0810
16394TIP3    H270598   5.181   5.972   4.242 -0.3606  0.0482  0.9189
16395TIP3   OH270599   2.343   0.415  13.363  0.6483  0.5194 -0.4404
16395TIP3    H170600   2.368   0.507  13.352 -0.4339  0.6235 -2.3624
16395TIP3    H270601   2.364   0.374  13.279  0.2728 -0.8024  0.0792
16396TIP3   OH270602   4.374   3.708  15.825 -0.2739  0.0194  0.0567
16396TIP3    H170603   4.445   3.740  15.880 -0.3348  0.7240 -0.2518
16396TIP3    H270604   4.389   3.614  15.817 -1.2728 -0.4611  2.7418
16397TIP3   OH270605   4.597   1.672  17.004 -0.2322 -0.0317 -0.0688
16397TIP3    H170606   4.569   1.633  16.921 -0.1468 -0.1576 -0.0387
16397TIP3    H270607   4.632   1.599  17.054  2.7944  0.5169 -1.1709
16398TIP3   OH270608   0.247   2.490  16.519 -0.4595  0.3827 -0.0735
16398TIP3    H170609   0.185   2.563  16.517 -0.7696  0.1080 -1.1185
16398TIP3    H270610   0.304   2.505  16.444 -1.7155 -1.4270 -1.4996
16399TIP3   OH270611   1.812   6.639   2.814  0.0278  0.4451  0.0073
16399TIP3    H170612   1.861   6.588   2.750  2.9501  0.4086  2.0351
16399TIP3    H270613   1.874   6.705   2.844 -1.5453  1.1419  1.9959
16400TIP3   OH270614   5.328   4.180  13.074 -0.1837  0.1822  0.3418
16400TIP3    H170615   5.413   4.224  13.064 -0.7031  1.2318  0.5142
16400TIP3    H270616   5.263   4.250  13.071 -1.0704 -0.6306  0.0313
16401TIP3   OH270617   5.516   6.488   6.170 -0.3331 -0.0390 -0.0477
16401TIP3    H170618   5.427   6.513   6.148 -0.0844  0.1169 -0.8966
16401TIP3    H270619   5.557   6.465   6.087  0.8948  1.4035  0.1215
16402TIP3   OH270620   3.772   6.034   5.977  0.3319  0.1566  0.2009
16402TIP3    H170621   3.753   5.973   5.906 -0.6828 -0.8459  1.2941
16402TIP3    H270622   3.865   6.054   5.967  0.3063 -0.2870 -1.1464
16403TIP3   OH270623   2.640   1.346  14.307  0.5187  0.3180  0.0731
16403TIP3    H170624   2.664   1.387  14.390 -3.7599  0.5191  1.4525
16403TIP3    H270625   2.623   1.419  14.248  0.7660  0.2430 -0.0956
16404TIP3   OH270626   6.629   1.885   4.304 -1.2254 -0.4433 -0.4234
16404TIP3    H170627   6.581   1.890   4.222 -2.3066 -0.7929  0.1659
16404TIP3    H270628   6.690   1.812   4.293 -0.4570  0.3210 -1.3621
16405TIP3   OH270629   4.442   2.214  13.907 -0.1894  0.5881 -0.1197
16405TIP3    H170630   4.486   2.248  13.985  1.6818  2.1726 -1.7661
16405TIP3    H270631   4.349   2.213  13.931  0.2634  1.6413  1.9073
16406TIP3   OH270632   4.052   5.049   4.148  0.4319 -0.2635  0.0385
16406TIP3    H170633   4.050   5.105   4.226  0.5972  0.2562 -0.3290
16406TIP3    H270634   4.050   4.960   4.183  0.7820 -0.0370  0.6491
16407TIP3   OH270635   3.820   1.696   0.572 -0.0842  0.8861  0.7541
16407TIP3    H170636   3.795   1.788   0.586  1.0325  1.3577 -0.1819
16407TIP3    H270637   3.865   1.696   0.488 -0.1673 -0.5592  0.6838
16408TIP3   OH270638   0.238   1.453   3.462 -0.1859  0.3084 -0.4446
16408TIP3    H170639   0.268   1.543   3.451  0.9901  0.2815  1.9335
16408TIP3    H270640   0.145   1.457   3.440 -0.0814  2.0025 -0.7810
16409TIP3   OH270641   1.575   1.983  17.088 -0.0208  0.2043  0.3384
16409TIP3    H170642   1.532   1.957  17.170 -0.1335 -0.8337 -0.0375
16409TIP3    H270643   1.635   1.911  17.068 -1.2062 -0.3663 -1.3708
16410TIP3   OH270644   0.298   6.072   0.412 -0.5972  0.1906  0.5657
16410TIP3    H170645   0.283   6.144   0.352 -1.2185 -0.2041  0.2413
16410TIP3    H270646   0.341   6.005   0.359  2.2082  1.1860  1.4015
16411TIP3   OH270647   2.417   2.637  12.696 -0.2170 -0.1450 -0.3319
16411TIP3    H170648   2.388   2.694  12.767  0.3600 -1.6407  1.2001
16411TIP3    H270649   2.351   2.568  12.692 -0.9690  0.6224 -2.2333
16412TIP3   OH270650   4.368   4.857   5.917  0.0380  0.9062 -0.8663
16412TIP3    H170651   4.454   4.816   5.901 -0.0789  0.7544 -1.1063
16412TIP3    H270652   4.385   4.922   5.985 -0.1567 -0.9160  1.0071
16413TIP3   OH270653   1.502   1.187   1.218  0.5318  0.1423 -0.0505
16413TIP3    H170654   1.437   1.240   1.173  0.8072  0.1274 -0.4672
16413TIP3    H270655   1.451   1.136   1.282  0.1834  0.3899 -0.1277
16414TIP3   OH270656   3.073   1.157  14.761  0.2640 -0.3404 -0.4944
16414TIP3    H170657   3.162   1.135  14.787  1.0888  1.2573 -1.7770
16414TIP3    H270658   3.021   1.081  14.785  1.8459 -1.0379  0.9114
16415TIP3   OH270659   5.432   1.414   2.756  0.0799 -0.0460  0.0253
16415TIP3    H170660   5.422   1.353   2.683 -1.1419  0.5459 -0.3204
16415TIP3    H270661   5.459   1.496   2.715  0.2642  0.0509  0.3346
16416TIP3   OH270662   0.804   2.866  13.505 -0.3217 -0.2809 -0.5242
16416TIP3    H170663   0.821   2.866  13.599  1.4616  0.4148 -0.8047
16416TIP3    H270664   0.826   2.777  13.476  0.6595 -0.0441 -0.5185
16417TIP3   OH270665   3.078   6.195  13.883  0.0968 -0.3945 -0.0235
16417TIP3    H170666   3.019   6.241  13.942  1.1052  0.3840  0.4035
16417TIP3    H270667   3.165   6.232  13.901  0.7966 -1.8076 -0.3302
16418TIP3   OH270668   2.720   5.698  14.639  0.0828  0.2071  0.1197
16418TIP3    H170669   2.806   5.732  14.665  0.7719 -1.1614 -0.3098
16418TIP3    H270670   2.671   5.692  14.721  0.8084 -0.1434  0.5378
16419TIP3   OH270671   3.204   0.718  13.768  0.1060 -0.0834 -0.0737
16419TIP3    H170672   3.245   0.726  13.854 -0.9055  0.8889  0.3447
16419TIP3    H270673   3.211   0.625  13.747  1.9636 -0.0436  0.2287
16420TIP3   OH270674   1.619   5.952   2.002 -0.3025 -0.0305  0.1735
16420TIP3    H170675   1.583   6.031   1.961 -1.0984 -0.2322  0.4598
16420TIP3    H270676   1.550   5.922   2.061 -0.4138 -1.4656 -0.6328
16421TIP3   OH270677   1.655   4.104   3.573  0.0234  0.5871  0.5636
16421TIP3    H170678   1.746   4.077   3.571  0.0116  0.4897  1.1091
16421TIP3    H270679   1.615   4.048   3.640 -0.7806 -0.4118 -0.7053
16422TIP3   OH270680   4.375   2.413   2.303  0.8312  0.0527 -0.0524
16422TIP3    H170681   4.378   2.318   2.314  1.4681  0.1436  0.5832
16422TIP3    H270682   4.458   2.435   2.262  0.7803  0.3647  0.0124
16423TIP3   OH270683   2.959   2.661   0.749  0.1084 -0.5988  0.5688
16423TIP3    H170684   3.040   2.660   0.699 -0.0626 -0.1551  0.2803
16423TIP3    H270685   2.936   2.569   0.761  1.6294 -0.8257  2.2332
16424TIP3   OH270686   3.311   0.398   2.284 -0.3097 -0.1341 -0.0685
16424TIP3    H170687   3.366   0.336   2.332 -0.6602  0.6295  1.3693
16424TIP3    H270688   3.322   0.481   2.330 -0.2447  0.7854 -1.6515
16425TIP3   OH270689   4.252   2.690  14.366  0.8142  0.4154 -0.1265
16425TIP3    H170690   4.181   2.755  14.372 -1.0456 -1.4876 -0.3796
16425TIP3    H270691   4.286   2.684  14.455  0.9020  1.5870 -0.0635
16426TIP3   OH270692   3.719   4.735   1.414 -0.0981  0.1631  0.6050
16426TIP3    H170693   3.733   4.826   1.387 -0.5078 -0.0607 -0.4116
16426TIP3    H270694   3.789   4.686   1.370 -0.1154 -0.0684  0.8322
16427TIP3   OH270695   0.386   5.261   4.241  0.2710 -0.0720  0.2548
16427TIP3    H170696   0.403   5.251   4.335  0.6112 -0.7857  0.1197
16427TIP3    H270697   0.472   5.253   4.200  0.3194  1.5257 -0.0369
16428TIP3   OH270698   1.605   4.817  11.402  0.0032  0.0081  0.1593
16428TIP3    H170699   1.648   4.820  11.488  0.5322  0.4578 -0.1215
16428TIP3    H270700   1.567   4.904  11.391  2.1600  0.8674 -1.1854
16429TIP3   OH270701   4.098   3.556  12.188  0.2307  0.5468 -0.0638
16429TIP3    H170702   4.011   3.578  12.219 -0.3557  0.0380 -1.3040
16429TIP3    H270703   4.125   3.482  12.244 -1.2160 -1.0123 -1.3043
16430TIP3   OH270704   3.863   3.389   3.348 -0.1924 -0.2218 -0.3487
16430TIP3    H170705   3.910   3.442   3.284 -0.8110  0.5067 -0.2161
16430TIP3    H270706   3.911   3.306   3.351 -0.8956 -0.7886 -2.7250
16431TIP3   OH270707   2.528   6.223   6.594  0.2299 -0.5128  0.1555
16431TIP3    H170708   2.436   6.236   6.568  0.6364 -0.4080 -1.3334
16431TIP3    H270709   2.539   6.128   6.595  0.6949 -0.5493 -2.0968
16432TIP3   OH270710   5.715   5.818  13.852  0.0808 -0.4013  0.2341
16432TIP3    H170711   5.700   5.823  13.758 -1.4236  0.2621  0.4940
16432TIP3    H270712   5.668   5.893  13.889  2.9448  1.0337  1.2873
16433TIP3   OH270713   1.659   1.936  15.779  0.4034 -0.2324 -0.6320
16433TIP3    H170714   1.644   1.993  15.854 -0.8533  0.3706 -1.3302
16433TIP3    H270715   1.668   1.848  15.817  1.8368  0.3107  0.3916
16434TIP3   OH270716   1.673   5.045   0.398  0.0954  0.1441  0.0077
16434TIP3    H170717   1.690   5.001   0.481  1.1437 -0.1185 -0.3308
16434TIP3    H270718   1.719   4.992   0.333 -1.1846  0.0206 -0.8384
16435TIP3   OH270719   5.777   2.099  14.167 -0.2226 -0.2673 -0.0444
16435TIP3    H170720   5.772   2.163  14.238  0.2727  0.8580 -0.9917
16435TIP3    H270721   5.702   2.120  14.112 -0.3452 -0.8448 -0.1027
16436TIP3   OH270722   0.005   5.786  14.068  0.1878  0.1906  0.0228
16436TIP3    H170723   0.094   5.768  14.096  0.2791 -1.6342 -1.2473
16436TIP3    H270724  -0.050   5.757  14.141  0.5812 -0.1389  0.1898
16437TIP3   OH270725   0.115   1.815   4.003  0.2697  0.2694 -0.7732
16437TIP3    H170726   0.077   1.744   4.055  1.2171  0.6684  0.5227
16437TIP3    H270727   0.043   1.877   3.991 -0.4996 -0.7587 -1.6942
16438TIP3   OH270728   1.383   4.720  11.249  0.2056  0.0619  0.2575
16438TIP3    H170729   1.469   4.761  11.239  0.2548 -0.1448 -0.1724
16438TIP3    H270730   1.334   4.748  11.173  0.1619 -0.4885  0.0781
16439TIP3   OH270731   3.065   5.184   1.849  0.1870 -0.0778  0.4357
16439TIP3    H170732   2.986   5.164   1.800  1.5135 -2.0698 -1.0213
16439TIP3    H270733   3.089   5.273   1.820 -0.5591 -0.1432 -0.4164
16440TIP3   OH270734   0.962   5.584  16.794  0.1789  0.4701 -0.4172
16440TIP3    H170735   1.047   5.616  16.824 -0.1448  2.4670 -1.4902
16440TIP3    H270736   0.902   5.605  16.865  0.0251  2.0768 -0.9890
16441TIP3   OH270737   3.307   1.855  10.954 -0.1657 -0.6369 -0.2523
16441TIP3    H170738   3.255   1.885  10.879  0.2688 -0.7787 -0.6095
16441TIP3    H270739   3.367   1.790  10.918 -0.6799 -1.5060  0.4104
16442TIP3   OH270740   3.051   2.346   0.763 -0.6173  0.1991  0.4112
16442TIP3    H170741   3.045   2.250   0.759  0.1716  0.1661 -0.7749
16442TIP3    H270742   2.961   2.375   0.776 -1.0668 -0.6742 -0.5488
16443TIP3   OH270743   2.884   5.734   2.053  0.2271 -0.7485 -0.0195
16443TIP3    H170744   2.855   5.702   2.139  1.0174 -0.1739  0.4768
16443TIP3    H270745   2.942   5.808   2.073  0.7842 -0.8887 -1.0263
16444TIP3   OH270746   2.886   1.474   2.142 -0.6167  0.5269 -0.3432
16444TIP3    H170747   2.981   1.462   2.136 -0.3461  0.9980  2.0832
16444TIP3    H270748   2.872   1.567   2.124 -0.5792  0.5481 -0.2611
16445TIP3   OH270749   5.663   5.634  14.391 -0.4518  0.1669  0.6970
16445TIP3    H170750   5.724   5.625  14.464 -1.4825  0.1257  1.5799
16445TIP3    H270751   5.589   5.577  14.415 -0.5125 -0.3699 -0.7005
16446TIP3   OH270752   1.138   0.461  13.243 -0.8695 -0.2485  0.5531
16446TIP3    H170753   1.170   0.551  13.229  0.1572 -0.6118  0.4327
16446TIP3    H270754   1.200   0.424  13.306 -0.8901 -1.0756  0.0954
16447TIP3   OH270755   3.526   4.385   0.560  0.1720  0.2376  0.2392
16447TIP3    H170756   3.494   4.407   0.647  0.8827 -0.7173  0.7599
16447TIP3    H270757   3.567   4.465   0.528 -2.9080  1.6180 -0.5907
16448TIP3   OH270758   3.758   1.154  15.895  0.6402  0.4886  0.4233
16448TIP3    H170759   3.698   1.129  15.965  0.7928  1.4659  0.9189
16448TIP3    H270760   3.717   1.120  15.815  0.1940 -0.1665  0.9213
16449TIP3   OH270761   5.039   6.608  17.116  0.0944 -0.8953  0.3445
16449TIP3    H170762   4.975   6.604  17.187  0.6892 -2.9584  0.8319
16449TIP3    H270763   5.101   6.675  17.143 -1.4739  0.7132  0.1479
16450TIP3   OH270764   0.872   3.317  15.067 -0.1313 -0.5586  0.2491
16450TIP3    H170765   0.943   3.328  15.004  0.4920  0.0163  1.0338
16450TIP3    H270766   0.795   3.354  15.024 -0.1206 -1.7812 -0.8724
16451TIP3   OH270767   1.421   6.568  11.804 -0.0844  0.1072 -0.3909
16451TIP3    H170768   1.367   6.642  11.776  1.5554  1.1759 -0.8709
16451TIP3    H270769   1.362   6.492  11.799 -1.7847  1.3272  0.0005
16452TIP3   OH270770   4.564   2.961  14.001 -0.2465 -0.1112 -0.2211
16452TIP3    H170771   4.529   3.045  13.970 -0.1518 -0.4534 -1.3204
16452TIP3    H270772   4.659   2.976  14.008 -0.1888 -0.2028 -0.7275
16453TIP3   OH270773   2.032   3.067   0.116  0.4969  0.1336  0.7133
16453TIP3    H170774   2.119   3.095   0.142  0.1379  0.5181  1.5291
16453TIP3    H270775   2.014   3.115   0.035  1.4466 -0.7437 -0.0541
16454TIP3   OH270776   0.362   1.442  11.589  0.1065  0.1948  0.1988
16454TIP3    H170777   0.415   1.477  11.660  0.5001 -0.0914  0.0534
16454TIP3    H270778   0.308   1.516  11.560 -2.4651 -0.4475  2.8958
16455TIP3   OH270779   2.220   4.526   4.353 -0.1666  0.3284  0.5021
16455TIP3    H170780   2.255   4.614   4.361 -2.4804  1.4820 -1.0117
16455TIP3    H270781   2.204   4.514   4.259 -0.6064 -1.4102  0.7501
16456TIP3   OH270782   3.629   6.427   6.531  0.1485  0.0851  0.0852
16456TIP3    H170783   3.537   6.443   6.509  0.1798  1.7707  1.0209
16456TIP3    H270784   3.631   6.335   6.559 -0.8249 -0.6218 -1.9164
16457TIP3   OH270785   2.456   1.417   3.665  0.0457  0.4146 -0.2444
16457TIP3    H170786   2.514   1.342   3.657  0.3405  0.7235 -1.1257
16457TIP3    H270787   2.470   1.467   3.585 -2.2538 -0.0928 -1.0661
16458TIP3   OH270788   6.077   6.059  12.532 -0.6583 -0.4636 -0.1321
16458TIP3    H170789   6.079   6.135  12.473 -2.2986  0.8593  1.4223
16458TIP3    H270790   5.999   6.011  12.506  0.0525 -1.3371 -0.7158
16459TIP3   OH270791   5.007   5.712   1.331 -0.1749  0.4468 -0.7336
16459TIP3    H170792   5.012   5.624   1.367  2.8368  1.0339  0.5162
16459TIP3    H270793   5.072   5.714   1.261 -0.6600  1.5131 -1.1806
16460TIP3   OH270794   4.695   6.018  12.595 -0.5442  0.5082  0.2815
16460TIP3    H170795   4.740   5.993  12.676 -0.7504  3.5767  1.4950
16460TIP3    H270796   4.760   6.007  12.526  0.8007  1.1123  1.4163
16461TIP3   OH270797   2.757   4.324   2.306 -0.4770  0.1550  0.7245
16461TIP3    H170798   2.732   4.303   2.215  1.1199  0.0897  0.2703
16461TIP3    H270799   2.808   4.404   2.298 -2.3537  1.5422  1.8886
16462TIP3   OH270800   0.626   1.058   5.623 -0.2985  0.1055  0.4680
16462TIP3    H170801   0.658   1.143   5.653  0.9275  0.1853 -0.9572
16462TIP3    H270802   0.678   0.994   5.671 -0.9156  0.1457  1.2121
16463TIP3   OH270803   4.696   5.059   0.790 -0.8622 -0.1034 -0.1249
16463TIP3    H170804   4.678   5.044   0.698  1.6904 -0.8839 -0.5670
16463TIP3    H270805   4.678   4.975   0.833 -0.5085 -0.2049 -0.1763
16464TIP3   OH270806   3.437   4.733  14.878  0.1965  0.7984 -0.5274
16464TIP3    H170807   3.384   4.799  14.833  0.6501  1.1257 -0.5828
16464TIP3    H270808   3.380   4.701  14.948 -1.1529 -0.8858 -2.2939
16465TIP3   OH270809   3.329   3.930  12.128  0.1328 -0.1963 -0.5037
16465TIP3    H170810   3.316   4.023  12.145 -0.0608 -0.3162 -0.0063
16465TIP3    H270811   3.424   3.918  12.131  0.1917  0.0740 -1.0553
16466TIP3   OH270812   3.132   5.162   4.547 -0.4065  0.0170  0.2340
16466TIP3    H170813   3.220   5.145   4.581 -0.3395 -1.1649 -0.4930
16466TIP3    H270814   3.136   5.135   4.455 -1.1220  1.3635 -0.2155
16467TIP3   OH270815   4.253   2.405  12.110 -0.1453 -0.0979 -0.3204
16467TIP3    H170816   4.243   2.498  12.131 -0.7290 -0.6679  2.1569
16467TIP3    H270817   4.170   2.381  12.067 -0.1127  0.4517 -0.6925
16468TIP3   OH270818   5.799   5.219  15.137  0.4286  0.0050 -0.4544
16468TIP3    H170819   5.826   5.307  15.111 -0.3660  0.7355  1.0499
16468TIP3    H270820   5.730   5.195  15.075 -0.0611  0.8674 -0.2496
16469TIP3   OH270821   1.302   6.487  14.315  0.4183  0.3193  0.0885
16469TIP3    H170822   1.248   6.409  14.332  2.0544 -0.5944  1.3202
16469TIP3    H270823   1.341   6.471  14.229  0.0129  0.2314 -0.0827
16470TIP3   OH270824   1.315   5.758  13.184 -0.5572 -0.1859 -0.2705
16470TIP3    H170825   1.304   5.786  13.274  0.4782 -1.6359  0.3608
16470TIP3    H270826   1.288   5.833  13.131 -1.5900  0.5439  1.2197
16471TIP3   OH270827   3.110   5.496  11.092  0.1279  0.2205  0.2204
16471TIP3    H170828   3.057   5.430  11.047 -0.6944  0.7889  0.3372
16471TIP3    H270829   3.073   5.502  11.180  0.1339  0.8923  0.1861
16472TIP3   OH270830   2.099   0.865  12.954 -0.0215 -0.6924 -0.4948
16472TIP3    H170831   2.087   0.841  12.862  0.8416 -1.4641 -0.4250
16472TIP3    H270832   2.189   0.897  12.960 -0.4144  0.3930 -0.1164
16473TIP3   OH270833   6.009   5.438   4.164 -0.1157 -0.2342 -0.0355
16473TIP3    H170834   6.055   5.357   4.184 -0.7619 -0.9748 -1.4632
16473TIP3    H270835   5.932   5.437   4.221  0.2674 -0.2590  0.4825
16474TIP3   OH270836   1.701   2.901   1.341 -0.1834  0.1953  0.3965
16474TIP3    H170837   1.726   2.993   1.340  0.1295  0.1103  0.3109
16474TIP3    H270838   1.780   2.855   1.367  0.1577 -0.1978 -1.2383
16475TIP3   OH270839   2.302   1.624   4.535 -0.2530  0.4085  0.7732
16475TIP3    H170840   2.230   1.686   4.528 -0.3598  0.4877  2.2116
16475TIP3    H270841   2.380   1.679   4.547  0.0300  0.3164 -0.5238
16476TIP3   OH270842   0.319   5.939  12.837 -0.0834 -0.5741  0.6546
16476TIP3    H170843   0.257   5.989  12.891  1.1078  0.4439  1.1387
16476TIP3    H270844   0.318   5.984  12.752 -1.4943 -1.7978 -0.0096
16477TIP3   OH270845   5.332   4.742  11.919 -0.7126  0.6995 -0.2619
16477TIP3    H170846   5.381   4.820  11.946 -1.0641  0.6794  0.4779
16477TIP3    H270847   5.372   4.716  11.836  1.8835 -0.4638  1.2094
16478TIP3   OH270848   0.812   1.226   2.944  0.2052  0.1816  0.0291
16478TIP3    H170849   0.722   1.220   2.976  0.0176  0.5222 -0.4166
16478TIP3    H270850   0.842   1.311   2.975  0.6712 -0.2935  0.9058
16479TIP3   OH270851   5.165   0.473   5.657 -0.6218  0.0924 -0.3996
16479TIP3    H170852   5.069   0.471   5.653 -0.6330 -0.0631 -0.0914
16479TIP3    H270853   5.191   0.382   5.645 -0.5128  0.1406 -0.5191
16480TIP3   OH270854   2.614   1.153  11.681  0.6997 -0.1569  0.4231
16480TIP3    H170855   2.581   1.118  11.599 -1.5195  0.8059  0.8565
16480TIP3    H270856   2.709   1.159  11.668  0.3503  0.5518 -2.2848
16481TIP3   OH270857   0.862   6.205  15.968 -0.4593  0.1636 -0.1078
16481TIP3    H170858   0.915   6.238  16.041  1.3160  0.4996 -1.4699
16481TIP3    H270859   0.925   6.191  15.898 -1.9289 -1.3491 -1.2005
16482TIP3   OH270860   1.227   2.503  14.715 -0.6227  0.3534 -0.0006
16482TIP3    H170861   1.303   2.495  14.772 -0.8775 -0.3590  0.2547
16482TIP3    H270862   1.215   2.598  14.703  1.0637  0.4547 -1.1127
16483TIP3   OH270863   3.195   3.721  11.803  0.5190 -0.1736 -0.0423
16483TIP3    H170864   3.104   3.714  11.833  0.4581  0.3925 -0.0959
16483TIP3    H270865   3.196   3.675  11.720  1.1606 -3.7456  1.7245
16484TIP3   OH270866   5.427   5.144  11.738 -0.3613 -0.5373 -0.4866
16484TIP3    H170867   5.478   5.110  11.665  1.4563 -0.4464  0.6842
16484TIP3    H270868   5.431   5.239  11.727 -0.1166 -0.5248 -0.3087
16485TIP3   OH270869   2.476   1.067   6.168 -0.6488 -0.2147  0.0095
16485TIP3    H170870   2.482   1.070   6.072  0.4442  1.3383  0.0873
16485TIP3    H270871   2.561   1.099   6.198 -0.1486 -2.7186  1.5366
16486TIP3   OH270872   5.135   6.251  12.997 -0.1626 -1.0533 -0.0710
16486TIP3    H170873   5.134   6.268  13.092  0.5804  0.1988 -0.2690
16486TIP3    H270874   5.182   6.326  12.960 -3.3979  0.3053 -1.7882
16487TIP3   OH270875   1.098   3.226   0.797  0.4201 -0.7617  0.1081
16487TIP3    H170876   1.130   3.295   0.855  2.4741  0.2438 -2.0349
16487TIP3    H270877   1.012   3.257   0.769  0.3034 -0.2482  0.9909
16488TIP3   OH270878   5.273   4.076   4.534  0.0122 -0.6989  0.0618
16488TIP3    H170879   5.303   4.119   4.614  0.0715 -2.5512  1.0836
16488TIP3    H270880   5.197   4.024   4.561 -1.1322  0.0741 -1.4866
16489TIP3   OH270881   1.894   3.983   3.554  0.3347  0.0066 -0.2610
16489TIP3    H170882   1.975   4.009   3.508 -0.1479 -1.3325 -1.9610
16489TIP3    H270883   1.904   3.889   3.569  0.0324  0.2289  1.5658
16490TIP3   OH270884   4.518   3.028   0.213 -0.0109 -0.5301 -0.2752
16490TIP3    H170885   4.484   2.965   0.277 -0.6528  0.3950  0.3304
16490TIP3    H270886   4.445   3.043   0.153 -0.5414  1.0341  0.6927
16491TIP3   OH270887   4.798   5.881   6.103  0.2054 -0.1568  0.1257
16491TIP3    H170888   4.795   5.886   6.198  1.2577  0.0946  0.1587
16491TIP3    H270889   4.891   5.874   6.082 -0.1048 -2.9358 -0.7575
16492TIP3   OH270890   1.457   2.449  13.213 -0.0317  0.3178  0.2599
16492TIP3    H170891   1.522   2.437  13.143 -0.0194 -2.5021  0.6301
16492TIP3    H270892   1.506   2.489  13.285  0.5687  0.8645 -0.4345
16493TIP3   OH270893   1.285   0.037   4.329 -0.3639 -0.2200  0.2627
16493TIP3    H170894   1.342  -0.018   4.381  2.4131  1.6804 -0.5565
16493TIP3    H270895   1.234   0.086   4.394 -0.3076 -1.1731  1.0520
16494TIP3   OH270896   5.620   4.226   0.115 -0.3181  0.1516  0.1370
16494TIP3    H170897   5.619   4.151   0.176 -1.1728  0.4243  0.4823
16494TIP3    H270898   5.686   4.285   0.151 -0.1633 -0.1078  0.2826
16495TIP3   OH270899   6.693   4.147   2.340  0.3302 -0.3245 -0.1061
16495TIP3    H170900   6.727   4.166   2.427  2.0839  0.9773 -1.0117
16495TIP3    H270901   6.612   4.197   2.334  0.1601 -0.4709  0.7712
16496TIP3   OH270902   5.774   3.888  12.815 -0.0851  0.7048 -0.0436
16496TIP3    H170903   5.725   3.946  12.873  1.1296  2.4375 -0.6729
16496TIP3    H270904   5.730   3.895  12.730  0.6311  1.4800 -0.3599
16497TIP3   OH270905   2.946   2.679   3.706  0.0519 -0.2546 -0.1784
16497TIP3    H170906   3.018   2.640   3.757 -0.6743  0.6364  1.6217
16497TIP3    H270907   2.983   2.692   3.619  1.9678 -0.1561  0.5850
16498TIP3   OH270908   1.610   5.339   0.885  0.3289  0.5909  0.4066
16498TIP3    H170909   1.617   5.330   0.980 -1.5708 -0.0328  0.5389
16498TIP3    H270910   1.571   5.256   0.856  1.1027  0.6745 -0.9573
16499TIP3   OH270911   1.843   3.143   1.340 -0.5396  0.8042 -0.1846
16499TIP3    H170912   1.895   3.220   1.318  0.2115  0.3155 -0.1691
16499TIP3    H270913   1.901   3.089   1.394 -1.1736  0.3869  0.0999
16500TIP3   OH270914   2.382   3.234  12.871 -0.5128 -0.2491  0.3250
16500TIP3    H170915   2.334   3.170  12.923  1.9671 -1.3511  1.4051
16500TIP3    H270916   2.359   3.318  12.910  0.5708 -0.9721  2.7665
16501TIP3   OH270917   4.243   2.913   4.490  0.2257  0.1235  0.0274
16501TIP3    H170918   4.254   3.008   4.482  2.3477 -0.1353 -0.8877
16501TIP3    H270919   4.269   2.894   4.580  0.6573  0.3296 -0.0473
16502TIP3   OH270920   1.211   1.558   1.475  0.3064 -0.4134 -0.1625
16502TIP3    H170921   1.219   1.559   1.380 -1.7868  0.6000 -0.3782
16502TIP3    H270922   1.273   1.625   1.504 -1.1404  1.4199 -1.0840
16503TIP3   OH270923   1.493   6.204   5.893  0.1361 -0.3207 -0.3438
16503TIP3    H170924   1.511   6.272   5.828 -0.5147 -0.4913 -0.7094
16503TIP3    H270925   1.516   6.245   5.977  2.5775 -0.6467 -0.7812
16504TIP3   OH270926   5.606   2.421  15.010 -0.1749  0.2246 -0.6205
16504TIP3    H170927   5.686   2.380  15.041 -1.3075 -0.9971  0.9043
16504TIP3    H270928   5.572   2.469  15.086  0.1884  2.6243 -1.8559
16505TIP3   OH270929   2.781   2.848   0.349 -0.2803  1.0508  0.4073
16505TIP3    H170930   2.775   2.924   0.291  0.0112  1.2153  0.5874
16505TIP3    H270931   2.837   2.878   0.421  1.9753 -0.1154 -0.7601
16506TIP3   OH270932   0.273   1.363   2.145  0.2022  0.0808 -0.8967
16506TIP3    H170933   0.253   1.330   2.233 -0.1206  0.7742 -0.7022
16506TIP3    H270934   0.348   1.310   2.116 -0.4518 -0.9824 -0.7010
16507TIP3   OH270935   2.092   3.004  15.509 -0.3534  0.4294  0.5626
16507TIP3    H170936   2.176   2.964  15.485 -0.3066 -0.3931  2.0220
16507TIP3    H270937   2.072   3.062  15.435  0.8942 -0.2718 -0.3744
16508TIP3   OH270938   6.289   4.167  14.404  0.0240 -0.3347 -0.3940
16508TIP3    H170939   6.282   4.075  14.431 -0.8325 -0.6900 -1.7499
16508TIP3    H270940   6.371   4.172  14.355  0.2465 -0.2830 -0.0234
16509TIP3   OH270941   2.518   3.343  15.330 -0.2920  0.4097 -0.1226
16509TIP3    H170942   2.458   3.343  15.255 -0.6851  2.6064  0.1136
16509TIP3    H270943   2.581   3.274  15.311 -2.7883 -1.9517 -0.4413
16510TIP3   OH270944   5.230   4.888  16.893  0.1597  0.4535  0.2556
16510TIP3    H170945   5.239   4.797  16.922 -0.6917  0.9694  2.3332
16510TIP3    H270946   5.141   4.893  16.859  0.8089  0.1150 -1.6252
16511TIP3   OH270947   3.972   0.589   6.415  0.2877 -0.2653  0.1964
16511TIP3    H170948   3.895   0.573   6.469 -0.1783 -1.1899 -0.6892
16511TIP3    H270949   4.033   0.518   6.438  0.4766 -0.1024  0.2022
16512TIP3   OH270950   5.570   0.621  12.487 -0.4753  0.4529  0.1809
16512TIP3    H170951   5.504   0.648  12.423 -2.1422  0.4132  1.8006
16512TIP3    H270952   5.598   0.534  12.457  0.2730  1.2474 -1.5577
16513TIP3   OH270953   3.121   5.318  14.627 -0.5653 -0.9797 -0.3387
16513TIP3    H170954   3.120   5.411  14.606 -1.8905 -1.3634 -2.3057
16513TIP3    H270955   3.060   5.309  14.700  0.6602 -0.1664  0.8354
16514TIP3   OH270956   0.252   2.111  16.399 -0.0193  0.5809  0.4443
16514TIP3    H170957   0.253   2.032  16.453  0.1254 -1.5958 -2.4560
16514TIP3    H270958   0.343   2.140  16.396  0.0732  0.3352  0.8551
16515TIP3   OH270959   0.626   1.324   4.630  0.0231 -0.0098 -0.8005
16515TIP3    H170960   0.601   1.341   4.721 -0.2636  0.9299 -1.0497
16515TIP3    H270961   0.570   1.251   4.603 -1.7161  1.3261 -0.9941
16516TIP3   OH270962   2.214   0.954   4.850 -0.5699  0.2072  0.4418
16516TIP3    H170963   2.269   1.014   4.800  0.1897  1.0421  2.1841
16516TIP3    H270964   2.260   0.944   4.933 -1.7875 -1.1040  0.9900
16517TIP3   OH270965   4.049   3.185   3.330 -0.0342  0.4785 -0.1519
16517TIP3    H170966   4.017   3.142   3.251 -0.1617 -0.7794  0.5480
16517TIP3    H270967   4.114   3.124   3.365  1.7143  2.0819 -0.4913
16518TIP3   OH270968   2.178   3.571   3.010 -0.1882  0.4336  0.3512
16518TIP3    H170969   2.220   3.505   3.065  1.7591  0.2396 -1.2484
16518TIP3    H270970   2.243   3.641   3.002 -0.1283  0.2053 -2.0577
16519TIP3   OH270971   5.198   1.052   4.412  0.6047 -0.8677  0.0360
16519TIP3    H170972   5.206   1.111   4.337  0.0909  0.0428  0.6660
16519TIP3    H270973   5.228   1.104   4.487  1.3352 -1.8342  0.4423
16520TIP3   OH270974   0.603   4.683  11.051 -0.3896  0.2773  0.3230
16520TIP3    H170975   0.633   4.592  11.054  0.3332  0.2505 -3.2689
16520TIP3    H270976   0.517   4.679  11.009  1.1509  1.3424 -3.3029
16521TIP3   OH270977   1.819   4.745  16.681  0.5077  0.5097  0.0781
16521TIP3    H170978   1.781   4.714  16.763  0.6810 -0.8496 -0.3358
16521TIP3    H270979   1.899   4.791  16.708  1.2108 -0.9644  0.6064
16522TIP3   OH270980   6.381   4.842  14.365  0.0267 -0.3564 -0.0307
16522TIP3    H170981   6.316   4.837  14.436  0.2987  0.1198  0.2592
16522TIP3    H270982   6.397   4.751  14.340 -1.1900 -0.4454 -0.5155
16523TIP3   OH270983   6.560   5.188  12.123  0.0200  0.2895 -0.0695
16523TIP3    H170984   6.468   5.163  12.118 -0.2850  1.0837  1.0717
16523TIP3    H270985   6.558   5.276  12.160  1.2262  0.4955 -0.4602
16524TIP3   OH270986   0.804   1.384  17.336  0.1246  0.2593 -0.1126
16524TIP3    H170987   0.813   1.298  17.296 -0.5899  0.8604 -1.6379
16524TIP3    H270988   0.791   1.444  17.263 -0.8972  1.4657  0.9993
16525TIP3   OH270989   6.199   3.006  10.740 -0.5788  0.0671  0.2967
16525TIP3    H170990   6.129   2.956  10.699 -0.9589  1.6108 -1.0360
16525TIP3    H270991   6.256   2.940  10.778 -0.3279 -1.4779 -2.5125
16526TIP3   OH270992   5.127   2.409   0.429  0.5743 -0.2693 -0.0014
16526TIP3    H170993   5.064   2.478   0.408 -0.5441 -1.4679 -0.8165
16526TIP3    H270994   5.207   2.455   0.454 -0.1791  1.2976 -0.3559
16527TIP3   OH270995   5.681   6.632   5.898  0.5206 -0.1889  0.6379
16527TIP3    H170996   5.600   6.674   5.925  0.3146  0.6224 -1.1562
16527TIP3    H270997   5.733   6.628   5.978 -1.3164 -0.8833  1.8742
16528TIP3   OH270998   6.206   5.479  16.328 -0.1431  0.2634 -0.0201
16528TIP3    H170999   6.125   5.460  16.375  0.0567 -0.9064 -0.1164
16528TIP3    H271000   6.191   5.564  16.287 -1.7007 -0.3722 -0.8459
16529TIP3   OH271001   4.886   5.533   0.553  0.0851  1.2252 -0.1219
16529TIP3    H171002   4.920   5.540   0.642  0.2752 -0.1425 -0.0661
16529TIP3    H271003   4.963   5.543   0.497  0.6015 -1.4762 -0.0060
16530TIP3   OH271004   1.226   2.456   6.730  0.4197 -0.1854 -0.1938
16530TIP3    H171005   1.224   2.364   6.706  0.3261  0.3645 -2.4697
16530TIP3    H271006   1.140   2.473   6.768  0.3715 -0.9652  0.0638
16531TIP3   OH271007   5.033   2.956   1.659 -0.0092  0.0359 -0.3130
16531TIP3    H171008   5.029   2.997   1.745  0.5616  0.1307 -0.3259
16531TIP3    H271009   5.051   3.027   1.598  0.9539 -0.2119 -0.3384
16532TIP3   OH271010   2.607   0.966  14.886  0.1729  0.2884 -0.9697
16532TIP3    H171011   2.623   0.890  14.830  0.6821  0.2942 -0.8440
16532TIP3    H271012   2.588   1.037  14.824  0.2773  0.1923 -1.1141
16533TIP3   OH271013   3.390   3.911  13.924  0.2244  0.5197  0.9346
16533TIP3    H171014   3.433   3.861  13.994  2.0193  0.6411 -0.0272
16533TIP3    H271015   3.430   3.879  13.844 -2.2642 -0.0744 -0.1532
16534TIP3   OH271016   5.074   0.423   2.654 -0.2485 -0.5453 -0.2115
16534TIP3    H171017   5.049   0.504   2.609  2.5959  0.9664  0.7221
16534TIP3    H271018   5.143   0.386   2.600  1.2338 -0.1971  1.3614
16535TIP3   OH271019   6.026   5.556  15.444  0.4765 -0.1669 -0.0144
16535TIP3    H171020   5.961   5.488  15.426  0.3509 -0.2270  0.6383
16535TIP3    H271021   5.992   5.602  15.520 -1.2204  2.9330 -2.4228
16536TIP3   OH271022   0.594   4.056  14.796  0.0345 -0.3306  0.3509
16536TIP3    H171023   0.647   3.977  14.792 -0.5346 -0.7231  0.3557
16536TIP3    H271024   0.656   4.128  14.784  0.7782 -0.6953  1.7486
16537TIP3   OH271025   2.353   0.329  16.336  0.3785  0.0193 -0.0740
16537TIP3    H171026   2.393   0.245  16.357 -0.6810  0.0890  2.5324
16537TIP3    H271027   2.261   0.309  16.319  0.1152  0.6496  0.5692
16538TIP3   OH271028   6.241   0.937  12.668 -0.3218  0.0148  0.1741
16538TIP3    H171029   6.265   1.028  12.684 -0.8496  0.1353  0.3203
16538TIP3    H271030   6.149   0.941  12.641  0.3833 -0.2147 -2.5919
16539TIP3   OH271031   3.653   1.958  13.346 -0.0097 -0.5581  0.1333
16539TIP3    H171032   3.668   1.896  13.275 -0.2193 -0.5693  0.0976
16539TIP3    H271033   3.739   1.999  13.361  0.4163 -1.7111  0.9614
16540TIP3   OH271034   5.461   0.700  16.672 -0.3163 -0.4620 -0.4908
16540TIP3    H171035   5.469   0.783  16.625  0.5090 -0.1260  0.2099
16540TIP3    H271036   5.389   0.714  16.734 -0.5826 -0.4862 -0.7908
16541TIP3   OH271037   3.241   0.569   5.350 -1.1046  0.4745  0.5960
16541TIP3    H171038   3.199   0.575   5.436 -1.5164 -1.6045  0.5868
16541TIP3    H271039   3.329   0.605   5.364 -1.1241  0.0524  1.9117
16542TIP3   OH271040   6.567   5.702  17.384  0.4204 -0.1929  0.3175
16542TIP3    H171041   6.602   5.613  17.376  0.7932 -0.1856  1.5548
16542TIP3    H271042   6.539   5.725  17.296  1.5724 -1.0248 -0.3011
16543TIP3   OH271043   4.701   4.428  11.763 -0.6430  0.1044  0.3060
16543TIP3    H171044   4.753   4.480  11.702  0.7331 -0.4034  0.9879
16543TIP3    H271045   4.682   4.488  11.835 -0.0899  0.0185  0.5322
16544TIP3   OH271046   4.758   3.564  13.068  0.0046  0.7289  0.4632
16544TIP3    H171047   4.805   3.601  13.142  1.8164  1.8963 -1.1844
16544TIP3    H271048   4.673   3.608  13.069  0.3000  1.2996  1.3814
16545TIP3   OH271049   5.241   6.529   0.167 -0.4783 -0.1299 -0.7369
16545TIP3    H171050   5.316   6.531   0.107 -1.2648 -0.2580 -1.7512
16545TIP3    H271051   5.272   6.478   0.243  1.5544  2.6191  0.4223
16546TIP3   OH271052   1.053   0.635   4.701 -0.1795  0.0933  0.7077
16546TIP3    H171053   1.000   0.663   4.627  1.0133  0.4227 -0.0564
16546TIP3    H271054   1.046   0.706   4.764 -0.3269  0.3103  0.4472
16547TIP3   OH271055   6.479   2.240   0.290  0.2056 -0.1370 -0.2885
16547TIP3    H171056   6.506   2.165   0.236 -0.5934 -0.2203 -0.5772
16547TIP3    H271057   6.391   2.218   0.319  0.9133 -0.4854  1.7517
16548TIP3   OH271058   1.098   1.407  14.725  0.2346 -0.1561  0.1054
16548TIP3    H171059   1.153   1.348  14.673  1.6730  1.5245 -0.3744
16548TIP3    H271060   1.112   1.493  14.686  0.9722  1.1298  2.9233
16549TIP3   OH271061   1.574   2.751  11.752 -0.2467  0.0337  0.1468
16549TIP3    H171062   1.550   2.808  11.825  1.2980  0.4141  0.3802
16549TIP3    H271063   1.643   2.799  11.705  1.6140 -1.8970  0.7489
16550TIP3   OH271064   5.386   5.678  11.790  0.1764 -0.0722 -0.0737
16550TIP3    H171065   5.408   5.736  11.717  0.1079  1.1651  0.8499
16550TIP3    H271066   5.302   5.638  11.766  0.5848 -0.3533 -1.0458
16551TIP3   OH271067   4.418   3.720   1.778 -0.2443  0.1582  0.3478
16551TIP3    H171068   4.475   3.795   1.760 -0.1265 -0.0814 -0.2998
16551TIP3    H271069   4.348   3.756   1.833 -0.9003  1.0524 -1.0174
16552TIP3   OH271070   6.224   0.667   1.737 -0.4378 -0.1119  0.4863
16552TIP3    H171071   6.190   0.585   1.700 -2.7826  0.5243  1.1018
16552TIP3    H271072   6.157   0.732   1.716  1.6981  1.8657 -0.5978
16553TIP3   OH271073   4.652   6.380  15.279 -0.3893 -0.5300  0.4442
16553TIP3    H171074   4.647   6.317  15.207  0.5622  1.0077 -1.0352
16553TIP3    H271075   4.674   6.463  15.237 -1.2270  0.7361  2.3692
16554TIP3   OH271076   4.194   5.728  12.886  0.6644  0.1547 -0.2598
16554TIP3    H171077   4.229   5.715  12.797  1.1685 -1.5725  0.1446
16554TIP3    H271078   4.115   5.780  12.873  0.8435  0.1246 -1.7030
16555TIP3   OH271079   3.341   0.479   2.947 -0.5250  0.2761 -0.1829
16555TIP3    H171080   3.378   0.467   2.860  0.2937 -2.4135  0.4221
16555TIP3    H271081   3.410   0.523   2.997 -1.2683  2.4846 -1.0014
16556TIP3   OH271082   2.000   6.353  16.392  0.3277 -0.3984  0.6899
16556TIP3    H171083   1.917   6.343  16.439 -0.5908  2.4703 -0.1091
16556TIP3    H271084   1.975   6.351  16.299  0.9519  1.4394  0.4469
16557TIP3   OH271085   5.270   3.069  15.844  0.0104  0.0543 -0.3584
16557TIP3    H171086   5.289   3.155  15.880 -0.0294 -0.3802  0.7483
16557TIP3    H271087   5.201   3.084  15.780  1.3524  1.1144 -1.6111
16558TIP3   OH271088   0.873   6.375  15.198  0.1255  0.0318  0.0926
16558TIP3    H171089   0.868   6.309  15.130 -1.7873  0.5027 -0.2906
16558TIP3    H271090   0.966   6.398  15.203  0.5764 -1.4313 -0.9413
16559TIP3   OH271091   1.995   0.279   0.144  0.4187 -0.9024  0.2503
16559TIP3    H171092   2.045   0.204   0.175  0.8132 -0.8511 -0.2382
16559TIP3    H271093   1.906   0.245   0.132  0.7108 -1.4384 -0.4767
16560TIP3   OH271094   0.660   3.475  12.236 -0.4891 -0.4724 -0.0063
16560TIP3    H171095   0.612   3.495  12.316 -2.6938 -2.1433 -0.8130
16560TIP3    H271096   0.742   3.435  12.266 -0.7384  0.0179  1.3990
16561TIP3   OH271097   3.130   6.245   3.033  0.0231 -0.3820  0.0987
16561TIP3    H171098   3.089   6.165   3.065 -0.1767 -0.5761 -0.6163
16561TIP3    H271099   3.059   6.309   3.032  0.4431  0.1562  1.8042
16562TIP3   OH271100   0.182   2.685  12.306  0.7148 -0.0951  0.0880
16562TIP3    H171101   0.165   2.592  12.291 -0.3698  0.0377  0.4471
16562TIP3    H271102   0.097   2.727  12.295  1.6161  1.2106 -2.6158
16563TIP3   OH271103   3.856   3.735  15.373  0.8280 -0.3815  0.9987
16563TIP3    H171104   3.932   3.684  15.344  0.3276 -1.4058  1.4686
16563TIP3    H271105   3.813   3.761  15.291  1.0771 -0.7227  0.7551
16564TIP3   OH271106   6.372   3.280  15.156 -0.4498  0.5014 -0.0907
16564TIP3    H171107   6.406   3.200  15.115 -2.9642 -2.0393  2.3070
16564TIP3    H271108   6.357   3.340  15.083  0.0333 -1.8044 -2.2380
16565TIP3   OH271109   4.332   6.035   4.151  0.3803  0.6520 -0.0520
16565TIP3    H171110   4.316   6.127   4.170 -0.5582  1.1002 -2.5766
16565TIP3    H271111   4.309   6.026   4.058  1.4588 -1.8994 -0.1391
16566TIP3   OH271112   5.754   1.752  15.522 -0.4125  0.1911 -0.0016
16566TIP3    H171113   5.772   1.709  15.605  0.0738 -1.0537 -0.7116
16566TIP3    H271114   5.704   1.830  15.545 -0.9508 -0.5279  1.3867
16567TIP3   OH271115   2.164   0.611   3.065  0.0820 -0.4545 -0.1002
16567TIP3    H171116   2.161   0.541   3.130  0.0682 -0.0285  0.3545
16567TIP3    H271117   2.230   0.672   3.097 -1.8377  1.1584  0.9540
16568TIP3   OH271118   6.105   1.843  11.754  0.5913 -0.1844 -0.3242
16568TIP3    H171119   6.157   1.787  11.811  0.3408  0.6299  0.7546
16568TIP3    H271120   6.136   1.932  11.773 -0.2649  0.1956 -0.6488
16569TIP3   OH271121   1.511   5.204  11.028 -0.0944  0.4470 -0.0132
16569TIP3    H171122   1.595   5.234  11.064  0.9309 -2.5874  0.3428
16569TIP3    H271123   1.457   5.284  11.026  2.7402  2.5184 -0.2603
16570TIP3   OH271124   0.823   2.954   4.890  0.7187 -0.5504 -0.1491
16570TIP3    H171125   0.884   2.909   4.832 -0.6125 -0.5313 -1.6381
16570TIP3    H271126   0.754   2.986   4.832 -0.7148 -0.5828  1.4605
16571TIP3   OH271127   1.189   2.469   4.068  0.9625  0.2927  0.0058
16571TIP3    H171128   1.235   2.526   4.007  1.2074  0.6278  0.4932
16571TIP3    H271129   1.241   2.473   4.148 -0.1879  1.0812  0.7431
16572TIP3   OH271130   0.561   4.013  16.357  0.5229  0.1235 -0.1574
16572TIP3    H171131   0.506   4.067  16.414  1.5802  0.8732  0.1701
16572TIP3    H271132   0.637   3.991  16.410 -0.2669 -2.4725  0.0207
16573TIP3   OH271133   5.981   5.448   3.152  0.2298  0.3471 -0.2452
16573TIP3    H171134   6.004   5.535   3.118  1.9213  0.1045  0.2125
16573TIP3    H271135   6.003   5.452   3.245 -1.0237 -0.1340  0.0911
16574TIP3   OH271136   6.065   2.633   4.657  0.3894  0.5139 -0.1906
16574TIP3    H171137   6.044   2.608   4.747  1.6537  0.7717  0.1975
16574TIP3    H271138   6.052   2.552   4.607  1.2808 -0.0853  0.5134
16575TIP3   OH271139   0.527   6.061  11.293 -0.7016  0.2462 -0.1816
16575TIP3    H171140   0.618   6.075  11.318 -0.9463  1.9889 -0.1002
16575TIP3    H271141   0.479   6.130  11.341 -2.2745 -1.5665  0.9931
16576TIP3   OH271142   4.429   6.475   5.581 -0.3682 -0.0530  0.1632
16576TIP3    H171143   4.431   6.435   5.668  0.2272  3.1402  1.7610
16576TIP3    H271144   4.502   6.434   5.534 -1.0281 -2.2231  0.9097
16577TIP3   OH271145   3.511   6.176  13.399  0.2181 -0.3935 -0.3558
16577TIP3    H171146   3.536   6.220  13.480  0.8547  1.9360 -1.7399
16577TIP3    H271147   3.594   6.148  13.361 -0.1258 -2.1635  0.1020
16578TIP3   OH271148   3.037   0.912   4.563  0.3436  0.3638 -0.0033
16578TIP3    H171149   3.127   0.893   4.587  0.1185  1.5517  1.9686
16578TIP3    H271150   3.000   0.828   4.536  2.1200 -0.0628 -1.2704
16579TIP3   OH271151   0.125   4.514   0.584  0.1580  0.6808 -0.2392
16579TIP3    H171152   0.185   4.442   0.562 -0.3770  0.1918 -0.1186
16579TIP3    H271153   0.051   4.503   0.524  0.0785  1.1495 -0.2332
16580TIP3   OH271154   5.780   5.494   5.659 -0.3076 -0.1639  0.0360
16580TIP3    H171155   5.781   5.411   5.706 -2.3129  0.0052  0.4762
16580TIP3    H271156   5.737   5.474   5.576  1.0585  0.0462 -0.7593
16581TIP3   OH271157   4.826   4.853  12.046 -0.1469 -0.2590  0.2053
16581TIP3    H171158   4.795   4.845  12.136 -0.9125  1.8120  0.1699
16581TIP3    H271159   4.811   4.945  12.023 -0.6856 -0.8902 -2.2923
16582TIP3   OH271160   6.606   4.050  14.799  0.7561  0.9117 -0.2210
16582TIP3    H171161   6.595   4.060  14.705  2.3436 -1.5234 -0.7582
16582TIP3    H271162   6.517   4.051  14.835 -0.0052  0.0809 -1.9755
16583TIP3   OH271163   2.975   3.826   1.415  0.4025 -0.5187 -0.2048
16583TIP3    H171164   3.008   3.784   1.335  1.4591  0.6588 -0.4086
16583TIP3    H271165   2.907   3.886   1.385 -1.6203 -2.4599  0.1540
16584TIP3   OH271166   3.832   3.354  13.330 -0.0784  0.0585  0.6532
16584TIP3    H171167   3.776   3.428  13.309 -0.2279 -0.1593  0.2838
16584TIP3    H271168   3.775   3.291  13.375  0.4365  0.9184  2.6395
16585TIP3   OH271169   6.207   5.518  12.070  0.1383  0.0786 -0.6734
16585TIP3    H171170   6.281   5.563  12.110  0.0479  0.2293 -0.6764
16585TIP3    H271171   6.236   5.427  12.062  0.5337  0.2448 -1.1908
16586TIP3   OH271172   0.294   0.506   4.856  0.0541  0.1758  0.3296
16586TIP3    H171173   0.207   0.534   4.882  0.2514  2.0179 -0.7534
16586TIP3    H271174   0.320   0.441   4.921 -1.0070  1.6357  2.3135
16587TIP3   OH271175   1.046   5.804  11.753  0.6493 -0.9547  0.1015
16587TIP3    H171176   1.018   5.845  11.835  0.7999 -1.1252  0.2396
16587TIP3    H271177   0.982   5.735  11.737  1.7180 -2.2335  1.1231
16588TIP3   OH271178   6.208   1.698   0.037 -0.1056 -0.6672 -0.0561
16588TIP3    H171179   6.125   1.736   0.065  0.9567  1.6153  0.2817
16588TIP3    H271180   6.209   1.710  -0.058  0.7013  1.3580  0.1584
16589TIP3   OH271181   0.554   3.850   1.299  0.1408  0.1194 -0.6818
16589TIP3    H171182   0.649   3.839   1.299  0.3506  1.5005  0.8685
16589TIP3    H271183   0.539   3.932   1.253  0.1381  2.0955  2.4934
16590TIP3   OH271184   5.201   3.629  13.764 -0.2062 -0.1131  0.0662
16590TIP3    H171185   5.134   3.697  13.772  0.1844  0.2000  0.6729
16590TIP3    H271186   5.157   3.558  13.716 -0.0785  1.2740 -2.2690
16591TIP3   OH271187   6.057   2.246  15.027 -0.4427  0.2913 -0.0252
16591TIP3    H171188   6.103   2.192  15.091 -0.9536  0.5802  0.5993
16591TIP3    H271189   6.068   2.200  14.944  0.7959  0.2579  0.1468
16592TIP3   OH271190   6.254   0.759   4.305 -0.6200  0.2392  0.4259
16592TIP3    H171191   6.195   0.832   4.287 -1.2456  0.2721  2.3615
16592TIP3    H271192   6.279   0.770   4.397  1.4887 -0.4499  0.0078
16593TIP3   OH271193   0.381   6.054  12.555 -0.1196 -0.3740  0.5081
16593TIP3    H171194   0.378   6.016  12.467  1.0400 -0.7503  0.6137
16593TIP3    H271195   0.468   6.095  12.560 -0.2173 -0.2625  1.4388
16594TIP3   OH271196   0.989   3.086   1.210  0.1352  0.4787 -0.1035
16594TIP3    H171197   1.082   3.106   1.224  0.9631 -3.9728  2.9583
16594TIP3    H271198   0.946   3.117   1.289 -0.2040 -0.9493  0.2970
16595TIP3   OH271199   1.426   0.022   1.931 -0.3009 -0.4330  0.5232
16595TIP3    H171200   1.353  -0.007   1.985 -1.3924  2.6285  0.8881
16595TIP3    H271201   1.494   0.045   1.993 -1.7594  3.6423  0.9167
16596TIP3   OH271202   5.810   6.574  13.084 -0.1303 -0.6483 -0.2517
16596TIP3    H171203   5.868   6.502  13.110 -0.0772  0.1212  1.8881
16596TIP3    H271204   5.722   6.536  13.084  0.1403 -1.3380 -1.6792
16597TIP3   OH271205   2.762   1.471   0.900  0.6875  0.1665 -0.1527
16597TIP3    H171206   2.833   1.422   0.940 -0.4277 -1.7420 -0.3868
16597TIP3    H271207   2.743   1.424   0.819 -0.2875  1.1253 -0.5038
16598TIP3   OH271208   4.109   5.765  15.934  0.0919 -0.4088 -0.1204
16598TIP3    H171209   4.126   5.753  15.840 -0.9403 -3.4893 -0.0180
16598TIP3    H271210   4.075   5.854  15.941  0.6152  0.0519 -2.5930
16599TIP3   OH271211   1.090   3.694   6.421  0.4419  0.0630  0.0444
16599TIP3    H171212   1.100   3.650   6.337  0.0356 -0.5927  0.3276
16599TIP3    H271213   1.119   3.784   6.405 -0.1765  0.0985 -0.9374
16600TIP3   OH271214   5.736   3.464  11.557  0.1598  0.1966 -0.4029
16600TIP3    H171215   5.687   3.417  11.490  1.2342 -0.8044 -0.5354
16600TIP3    H271216   5.745   3.401  11.629 -1.2274  1.3458  0.8490
16601TIP3   OH271217   3.368   4.617   3.661  0.5066 -0.9600 -0.8809
16601TIP3    H171218   3.321   4.547   3.615 -0.8944 -0.4255 -0.3123
16601TIP3    H271219   3.364   4.591   3.753 -1.3298  0.5568 -0.4788
16602TIP3   OH271220   1.834   2.905  15.345  0.2236  0.0042 -1.3180
16602TIP3    H171221   1.877   2.985  15.377  1.1200 -0.7527 -0.5470
16602TIP3    H271222   1.852   2.840  15.413 -1.3068 -0.6183 -1.4755
16603TIP3   OH271223   3.587   2.209  15.046  0.2748  0.0556  0.0047
16603TIP3    H171224   3.510   2.264  15.027 -0.9830 -1.6041  0.0722
16603TIP3    H271225   3.577   2.185  15.138  0.2541 -1.0838 -0.2865
16604TIP3   OH271226   3.567   4.955   0.874 -0.0326 -0.7921  0.1618
16604TIP3    H171227   3.567   5.043   0.911  1.0834  0.6800 -3.0480
16604TIP3    H271228   3.644   4.913   0.912  0.2959  0.1518  0.5692
16605TIP3   OH271229   0.671   0.740   2.445  0.7537 -0.6254 -0.1695
16605TIP3    H171230   0.761   0.747   2.414  0.8754  0.1662  0.3377
16605TIP3    H271231   0.623   0.700   2.372  1.2171  0.3207 -1.0084
16606TIP3   OH271232   3.719   4.180   3.096  0.9432 -0.4330 -0.3221
16606TIP3    H171233   3.703   4.273   3.079 -1.5595 -0.4240  1.5460
16606TIP3    H271234   3.717   4.140   3.009 -0.6214  0.9390 -0.9880
16607TIP3   OH271235   5.316   2.554   3.396 -0.4138  0.4862  0.1297
16607TIP3    H171236   5.312   2.466   3.432 -1.2255  1.1887  1.8810
16607TIP3    H271237   5.225   2.582   3.389 -0.2028  0.8875 -1.2020
16608TIP3   OH271238   5.892   2.585  15.397 -0.4210 -0.2297  0.1642
16608TIP3    H171239   5.855   2.604  15.311 -0.0932  1.6360  0.3935
16608TIP3    H271240   5.904   2.671  15.437  3.3370 -0.7367  0.4509
16609TIP3   OH271241   5.289   4.095   5.091  0.4635 -0.8391 -0.2889
16609TIP3    H171242   5.217   4.054   5.043  1.4187 -2.7570 -0.1749
16609TIP3    H271243   5.323   4.025   5.147  2.8291 -0.1783 -0.7950
16610TIP3   OH271244   5.455   4.803   4.061  0.5469 -0.7720 -0.1325
16610TIP3    H171245   5.459   4.898   4.062 -0.8849 -0.6763 -0.6178
16610TIP3    H271246   5.361   4.783   4.061  0.8059 -2.1603 -0.9825
16611TIP3   OH271247   0.615   4.395  16.174  0.2100  0.8247 -0.2710
16611TIP3    H171248   0.703   4.425  16.194  0.6397 -0.5068 -0.0542
16611TIP3    H271249   0.624   4.301  16.158 -1.0668  0.7788 -0.8895
16612TIP3   OH271250   5.636   6.718  15.133 -0.3197  0.9716 -0.5008
16612TIP3    H171251   5.640   6.695  15.226 -0.0140  0.4444 -0.6425
16612TIP3    H271252   5.573   6.789  15.129 -0.9802  0.4270  0.0005
16613TIP3   OH271253   4.875   0.618   5.363  0.1031  0.3502 -0.4066
16613TIP3    H171254   4.830   0.690   5.406  1.5668  2.9414 -2.8140
16613TIP3    H271255   4.890   0.553   5.432 -0.2624  2.8510  2.1998
16614TIP3   OH271256   1.603   3.509   0.604 -0.9377 -0.0425 -0.0787
16614TIP3    H171257   1.583   3.524   0.697 -1.5868  0.0494 -0.2316
16614TIP3    H271258   1.636   3.594   0.573  0.2562 -0.3484  0.3122
16615TIP3   OH271259   1.630   2.443   2.297  0.4606 -0.3845 -0.2895
16615TIP3    H171260   1.594   2.373   2.244  0.9974 -0.0284 -1.1586
16615TIP3    H271261   1.555   2.496   2.322  0.3953  0.9239 -2.9161
16616TIP3   OH271262   6.189   2.602   5.597 -1.2853 -0.2994 -0.2458
16616TIP3    H171263   6.169   2.579   5.688  0.9250  1.2539  0.7164
16616TIP3    H271264   6.169   2.696   5.591 -1.2960 -0.3554 -1.3583
16617TIP3   OH271265   3.521   2.322   3.308 -0.8458 -0.4614  0.3281
16617TIP3    H171266   3.433   2.355   3.288 -0.4576 -0.6623 -1.9368
16617TIP3    H271267   3.508   2.261   3.381 -2.0379  2.1402  2.4714
16618TIP3   OH271268   3.591   4.498  15.831 -0.3668 -0.1420 -0.0743
16618TIP3    H171269   3.592   4.449  15.749  0.0949 -2.8525  1.4250
16618TIP3    H271270   3.683   4.520  15.847  0.1830 -3.0125  1.4595
16619TIP3   OH271271   5.440   3.978  15.435  0.4462 -0.1322  0.0855
16619TIP3    H171272   5.346   3.972  15.451  0.1528  1.1438 -0.9751
16619TIP3    H271273   5.462   3.898  15.387 -0.1241 -0.3832  0.2425
16620TIP3   OH271274   4.634   2.552   5.700 -0.1607  0.1974 -0.0159
16620TIP3    H171275   4.563   2.496   5.731 -0.9103  1.4357  0.6031
16620TIP3    H271276   4.709   2.528   5.755 -0.3974 -0.3662  0.0712
16621TIP3   OH271277   6.651   5.576   5.050  0.3817  0.5827 -0.0328
16621TIP3    H171278   6.579   5.569   5.112  0.2812  0.9866 -0.1035
16621TIP3    H271279   6.694   5.490   5.054 -2.2678 -1.0680 -2.6620
16622TIP3   OH271280   0.292   3.477   0.648 -0.2290  0.0027  0.4990
16622TIP3    H171281   0.308   3.572   0.644 -1.7577  0.2990  0.7110
16622TIP3    H271282   0.289   3.450   0.556 -3.0393  0.8073  0.2639
16623TIP3   OH271283   0.464   4.162  15.573  0.2661 -0.9117 -0.1447
16623TIP3    H171284   0.380   4.207  15.582  0.0935 -1.2139 -0.2195
16623TIP3    H271285   0.527   4.220  15.615 -0.0118 -0.7788  0.0934
16624TIP3   OH271286   1.305   2.691   6.636 -0.4242  0.1506 -0.5828
16624TIP3    H171287   1.268   2.622   6.692  2.5258  0.4321  2.0303
16624TIP3    H271288   1.241   2.761   6.640 -0.7096 -0.1304  1.9977
16625TIP3   OH271289   2.065   0.009  16.129 -0.0293  0.0480  0.2168
16625TIP3    H171290   2.059  -0.047  16.206 -0.1895  1.7087  1.4764
16625TIP3    H271291   2.158   0.024  16.116  0.0460 -0.8945 -0.4512
16626TIP3   OH271292   4.686   4.822   0.937  0.0909  0.2710 -0.4939
16626TIP3    H171293   4.726   4.859   1.016  0.9006 -0.3498 -0.5948
16626TIP3    H271294   4.673   4.729   0.959 -1.5244  0.5047 -0.3822
16627TIP3   OH271295   2.184   5.960   2.733  0.3671 -0.5612 -0.2200
16627TIP3    H171296   2.259   5.906   2.709  0.4138 -0.6570  0.1257
16627TIP3    H271297   2.209   6.000   2.817  0.0862 -0.4925 -0.1667
16628TIP3   OH271298   2.033   6.450   6.054  0.0108 -0.4354  0.5011
16628TIP3    H171299   1.985   6.427   5.975 -0.3816 -0.5020  0.7604
16628TIP3    H271300   1.979   6.516   6.098  0.1333 -0.5331  0.8075
16629TIP3   OH271301   3.549   5.396  13.788 -0.9727  0.2823  0.2977
16629TIP3    H171302   3.528   5.335  13.859 -3.0912 -0.1053 -0.5991
16629TIP3    H271303   3.533   5.346  13.708 -1.0252  1.4839 -0.4576
16630TIP3   OH271304   5.680   4.324   4.818  0.1167 -0.6633  0.2936
16630TIP3    H171305   5.591   4.338   4.850  0.6597 -1.7339  2.5255
16630TIP3    H271306   5.670   4.264   4.744 -0.9704 -2.3445  1.7015
16631TIP3   OH271307   2.541   4.234  16.170 -0.0287 -0.7479  0.4570
16631TIP3    H171308   2.515   4.145  16.147  1.8198 -1.1494 -0.3032
16631TIP3    H271309   2.615   4.222  16.229  0.4340  0.2692  0.1040
16632TIP3   OH271310   4.778   2.434  15.108  0.3599 -0.0105  0.1751
16632TIP3    H171311   4.806   2.442  15.200 -0.0881  0.2000  0.2960
16632TIP3    H271312   4.791   2.341  15.088 -1.8659 -0.6198  1.2394
16633TIP3   OH271313   1.114   4.148   3.553  0.4680  0.0133 -0.0934
16633TIP3    H171314   1.169   4.225   3.536  0.1684 -0.0480 -1.5124
16633TIP3    H271315   1.032   4.184   3.585  1.2444  0.1131  1.9346
16634TIP3   OH271316   5.998   2.865   5.034  0.3108 -0.2317  0.0930
16634TIP3    H171317   5.921   2.824   4.994 -1.0188  2.4638 -0.3295
16634TIP3    H271318   5.981   2.862   5.128  1.6649 -3.1874  0.3494
16635TIP3   OH271319   2.924   5.772   5.873 -0.6179 -0.0308  0.0060
16635TIP3    H171320   2.947   5.854   5.917 -1.5156  0.4437 -0.3754
16635TIP3    H271321   2.860   5.798   5.807 -1.1852 -1.0955  0.1212
16636TIP3   OH271322   2.279   0.325   4.902  0.6588  0.5574  0.6118
16636TIP3    H171323   2.208   0.357   4.846 -0.2560  0.3572  1.6176
16636TIP3    H271324   2.349   0.388   4.891  1.0433 -0.1859 -1.7952
16637TIP3   OH271325   0.330   2.143   0.019 -0.3407  0.1898 -0.6432
16637TIP3    H171326   0.414   2.183  -0.004 -0.0082  0.7816  1.4262
16637TIP3    H271327   0.269   2.216   0.020 -0.1817  0.3380  0.9988
16638TIP3   OH271328   2.352   0.661   2.439  0.5607  0.0588  0.1439
16638TIP3    H171329   2.447   0.660   2.451  0.4711 -0.6538  0.9309
16638TIP3    H271330   2.317   0.650   2.528 -0.2592  0.3697 -0.1327
16639TIP3   OH271331   3.641   0.349   0.559  0.0157  0.1335  0.1321
16639TIP3    H171332   3.618   0.356   0.652  2.2749  0.2668  0.7285
16639TIP3    H271333   3.579   0.407   0.515 -1.5001 -0.3946  1.4500
16640TIP3   OH271334   6.618   5.958   2.270 -0.8218 -0.2089 -0.3294
16640TIP3    H171335   6.647   5.910   2.348  0.6170 -0.4148 -0.9571
16640TIP3    H271336   6.527   5.931   2.258 -0.5391 -1.5334  0.2863
16641TIP3   OH271337   6.616   5.441  15.559  0.6706  0.0680  0.0831
16641TIP3    H171338   6.593   5.354  15.528  1.5903 -0.6722  1.3879
16641TIP3    H271339   6.639   5.490  15.480  1.1170 -1.1707 -0.5690
16642TIP3   OH271340   3.496   3.369   3.518 -0.1520 -0.5991  0.2487
16642TIP3    H171341   3.417   3.419   3.539 -0.8932 -1.7867  0.4007
16642TIP3    H271342   3.483   3.284   3.561  2.1092 -0.1620  2.0076
16643TIP3   OH271343   3.924   3.232   0.614  0.2599  0.0076 -0.1685
16643TIP3    H171344   3.920   3.204   0.523 -1.3001  0.2916 -0.2183
16643TIP3    H271345   4.001   3.189   0.650 -0.0915 -1.5210 -1.1672
16644TIP3   OH271346   0.193   1.874   5.907 -0.5713  0.5896  0.5839
16644TIP3    H171347   0.281   1.910   5.921  1.2760 -3.0691 -0.3789
16644TIP3    H271348   0.177   1.819   5.984 -3.6058  3.6033  2.3911
16645TIP3   OH271349   1.249   5.153  11.137 -0.4507 -0.0329 -0.1536
16645TIP3    H171350   1.339   5.155  11.102 -0.3429  0.0152  0.1259
16645TIP3    H271351   1.257   5.105  11.219 -1.0695 -2.1909 -1.2578
16646TIP3   OH271352   5.825   5.035   5.320  0.6674  0.2266  0.3170
16646TIP3    H171353   5.772   4.956   5.310  1.2272 -0.2995  1.3713
16646TIP3    H271354   5.779   5.101   5.267 -1.7551  0.1273  2.0751
16647TIP3   OH271355   6.561   0.090  12.195  0.2430  0.0617 -0.0064
16647TIP3    H171356   6.615   0.154  12.241  0.6473 -0.5990  0.4437
16647TIP3    H271357   6.602   0.006  12.213  0.1175 -0.2639 -1.1682
16648TIP3   OH271358   1.418   6.145   0.485  0.0614 -0.2256  0.5386
16648TIP3    H171359   1.389   6.066   0.530 -0.9019  0.6231  1.4776
16648TIP3    H271360   1.514   6.141   0.489  0.0213 -1.1632  0.8741
16649TIP3   OH271361   2.155   0.730  16.539 -0.3867 -0.2067  0.4023
16649TIP3    H171362   2.092   0.765  16.602 -1.0156  0.7089 -0.7159
16649TIP3    H271363   2.228   0.791  16.542  0.6042 -1.3687  1.8394
16650TIP3   OH271364   4.575   1.405  14.597 -0.1568 -0.0836  0.3335
16650TIP3    H171365   4.547   1.490  14.632  0.2452 -0.0492  0.5838
16650TIP3    H271366   4.563   1.413  14.502 -0.0102  0.2992  0.3438
16651TIP3   OH271367   4.482   2.258   3.435  0.0671 -0.2249  0.1041
16651TIP3    H171368   4.467   2.333   3.378  0.8693 -0.1087  0.0261
16651TIP3    H271369   4.570   2.272   3.471 -0.5914 -0.0590  1.7371
16652TIP3   OH271370   3.949   3.705  12.460  0.6921  0.0148  0.0419
16652TIP3    H171371   3.960   3.671  12.549 -0.3321  0.3102  0.2930
16652TIP3    H271372   3.940   3.626  12.405 -0.9693 -0.1664  0.5275
16653TIP3   OH271373   5.257   3.966  11.834 -0.0982 -0.4550  0.2057
16653TIP3    H171374   5.332   3.909  11.820 -0.4492 -0.6108 -1.2609
16653TIP3    H271375   5.254   4.022  11.756  1.0618  2.6113  2.1760
16654TIP3   OH271376   1.176   6.605   4.846 -0.5626 -0.1858 -0.4716
16654TIP3    H171377   1.186   6.511   4.838  1.2513  0.0910 -2.0146
16654TIP3    H271378   1.248   6.642   4.795 -0.5372  2.0416  1.0345
16655TIP3   OH271379   6.271   1.743   0.647 -0.2878  0.2993 -0.2021
16655TIP3    H171380   6.360   1.715   0.630  0.1278  1.0515  0.6478
16655TIP3    H271381   6.278   1.802   0.721 -1.3596  1.1761 -0.7616
16656TIP3   OH271382   1.162   0.032   2.415  0.0834 -0.4813 -0.0735
16656TIP3    H171383   1.086  -0.023   2.431  0.1066 -0.5241 -0.1081
16656TIP3    H271384   1.188   0.064   2.501 -0.8984  0.7735 -0.2127
16657TIP3   OH271385   2.924   4.810  14.126 -0.3973  0.7159  0.2817
16657TIP3    H171386   2.945   4.717  14.136  0.6062  0.7579 -1.0832
16657TIP3    H271387   2.832   4.811  14.100  0.0027 -0.0535 -1.3368
16658TIP3   OH271388   3.089   5.059  15.598 -0.4143  0.0708 -0.1483
16658TIP3    H171389   3.018   5.007  15.634  0.3568 -0.7064  0.2976
16658TIP3    H271390   3.125   5.107  15.673  2.3855 -2.9343  0.6911
16659TIP3   OH271391   6.175   1.479   0.937 -0.0551 -0.0109 -0.0108
16659TIP3    H171392   6.115   1.477   0.863  0.0130  0.3514 -0.0772
16659TIP3    H271393   6.254   1.437   0.904  1.0783  2.7339 -1.1434
16660TIP3   OH271394   4.235   4.241   0.040 -0.1160  0.0326  0.7724
16660TIP3    H171395   4.327   4.267   0.046 -0.2380  0.1463  2.9811
16660TIP3    H271396   4.196   4.308  -0.016  1.1215  0.0484 -0.1050
16661TIP3   OH271397   4.822   2.050  11.293  0.0568 -0.8501  0.2586
16661TIP3    H171398   4.894   2.038  11.356  0.0130  0.1716  0.5301
16661TIP3    H271399   4.866   2.058  11.208  0.3164  0.1982  0.4755
16662TIP3   OH271400   2.415   4.083   4.914  0.0100 -0.1447 -0.5926
16662TIP3    H171401   2.456   4.149   4.858  1.9279 -0.8962 -0.1487
16662TIP3    H271402   2.403   4.007   4.856  1.7749 -0.8406 -0.0911
16663TIP3   OH271403   5.238   5.538   6.060 -0.7287 -0.2931 -0.2451
16663TIP3    H171404   5.333   5.541   6.062 -0.7475  0.6438 -0.1645
16663TIP3    H271405   5.215   5.557   5.969 -0.8252 -1.3509 -0.4500
16664TIP3   OH271406   5.591   0.820  13.522  0.4523  0.0574 -0.6119
16664TIP3    H171407   5.613   0.746  13.465 -0.8906 -0.8197 -0.0190
16664TIP3    H271408   5.630   0.896  13.478  2.1880 -1.0299 -1.0365
16665TIP3   OH271409   4.680   4.484  16.412 -0.0701 -0.7460  0.5284
16665TIP3    H171410   4.650   4.397  16.435  0.2604 -1.0754 -0.2410
16665TIP3    H271411   4.722   4.517  16.491  0.1748 -1.4549  0.7001
16666TIP3   OH271412   5.759   6.560  10.912  0.7716  0.0893  0.6200
16666TIP3    H171413   5.732   6.544  11.003 -0.0243  0.8610  0.5299
16666TIP3    H271414   5.802   6.646  10.915 -0.7437  0.9011 -0.0071
16667TIP3   OH271415   0.257   4.755  15.651  0.1933  0.1990 -0.2986
16667TIP3    H171416   0.225   4.829  15.703  0.7092  0.0265  0.2625
16667TIP3    H271417   0.348   4.744  15.678  0.4204 -0.0025 -1.1119
16668TIP3   OH271418   6.083   1.454  10.670 -0.1565  0.0821  0.1251
16668TIP3    H171419   6.146   1.394  10.710 -0.7355 -0.1912  0.6489
16668TIP3    H271420   6.086   1.433  10.577  0.5595  0.1068  0.1374
16669TIP3   OH271421   6.562   6.333   6.443  0.3241 -0.0657  0.6090
16669TIP3    H171422   6.527   6.256   6.487 -0.2006 -0.3525 -0.2820
16669TIP3    H271423   6.640   6.301   6.396  0.3451  0.0331  0.5769
16670TIP3   OH271424   0.126   5.669   5.295 -0.2057 -0.9306 -0.0056
16670TIP3    H171425   0.046   5.668   5.243  0.1696 -0.0716 -0.6385
16670TIP3    H271426   0.101   5.632   5.380 -0.7901 -2.5054 -0.8399
16671TIP3   OH271427   2.733   4.723  11.129 -0.3904 -0.6711 -0.5728
16671TIP3    H171428   2.761   4.738  11.039  1.7532 -0.5122  0.0581
16671TIP3    H271429   2.776   4.792  11.179  1.2150 -2.6952  0.9950
16672TIP3   OH271430   1.247   5.348   0.881 -0.1163 -0.3976  0.4303
16672TIP3    H171431   1.262   5.366   0.974  3.1514 -0.7183  0.0892
16672TIP3    H271432   1.245   5.252   0.875  0.7616 -0.4055  0.0824
16673TIP3   OH271433   1.218   6.434  13.989  0.5326 -0.9361  0.4553
16673TIP3    H171434   1.229   6.370  13.918  1.3058 -1.3325  0.9203
16673TIP3    H271435   1.249   6.516  13.952 -0.4540 -0.8207 -0.1458
16674TIP3   OH271436   1.277   5.287   4.605  0.0442 -0.0603 -0.1530
16674TIP3    H171437   1.242   5.203   4.635  0.2765 -0.1844 -0.2300
16674TIP3    H271438   1.280   5.279   4.510 -2.5456  1.0419 -0.4159
16675TIP3   OH271439   6.693   2.991  13.074 -0.3738 -0.0045  0.0362
16675TIP3    H171440   6.644   2.911  13.093 -1.0038  0.3059 -0.2362
16675TIP3    H271441   6.647   3.030  13.000  1.0646 -0.3622 -1.0941
16676TIP3   OH271442   6.665   4.609   5.802 -0.0676  0.3050 -0.0410
16676TIP3    H171443   6.572   4.605   5.782  0.0307 -1.2626 -0.3281
16676TIP3    H271444   6.669   4.639   5.893 -0.8952 -0.2434  0.1889
16677TIP3   OH271445   1.132   3.037   3.074 -0.3683  0.5016  0.2534
16677TIP3    H171446   1.135   3.108   3.010  0.3152  1.0526  0.8718
16677TIP3    H271447   1.077   2.970   3.034  0.5733  0.5467 -1.1949
16678TIP3   OH271448   1.688   0.447   3.598  0.2375  0.2162  0.5610
16678TIP3    H171449   1.621   0.491   3.650  0.9959  0.8624  1.0074
16678TIP3    H271450   1.679   0.484   3.511 -0.9493 -0.7707  0.2428
16679TIP3   OH271451   4.186   2.813  11.262 -0.5598  0.0750 -0.0078
16679TIP3    H171452   4.235   2.824  11.181  3.1440 -2.6703  1.5617
16679TIP3    H271453   4.104   2.772  11.235 -0.4869  1.4393 -2.5113
16680TIP3   OH271454   4.463   0.276   3.359 -0.6618  0.1943  0.5994
16680TIP3    H171455   4.477   0.205   3.421  0.8940 -1.6588 -1.6828
16680TIP3    H271456   4.377   0.258   3.321 -0.5315 -0.1377  0.4581
16681TIP3   OH271457   6.169   5.697  11.795 -0.2115 -0.1172  0.1270
16681TIP3    H171458   6.155   5.620  11.739  2.1808 -0.5364 -0.0223
16681TIP3    H271459   6.189   5.660  11.881 -0.5765  0.4117  0.4461
16682TIP3   OH271460   2.359   4.138   0.251 -0.3721 -0.2885  0.2768
16682TIP3    H171461   2.272   4.170   0.229 -0.2384 -0.1037  0.0141
16682TIP3    H271462   2.348   4.044   0.262 -0.7294 -0.1799  0.8702
16683TIP3   OH271463   0.128   5.270   0.224 -0.0623  0.1306  0.0341
16683TIP3    H171464   0.100   5.359   0.246 -0.5352  0.5563 -2.1096
16683TIP3    H271465   0.049   5.217   0.232  0.1398 -0.0517  0.9501
16684TIP3   OH271466   4.793   3.300   0.595 -0.4205 -0.6701 -0.4573
16684TIP3    H171467   4.824   3.371   0.650 -3.1709 -0.5120  1.0474
16684TIP3    H271468   4.859   3.293   0.526 -0.3315  3.7418 -1.0795
16685TIP3   OH271469   0.659   3.983  14.305 -0.5186  0.6851 -0.1019
16685TIP3    H171470   0.700   4.040  14.370 -0.8163 -1.3659  1.9927
16685TIP3    H271471   0.565   3.995  14.317 -0.6100 -0.8806  1.0408
16686TIP3   OH271472   4.774   5.792   0.520 -0.4291 -0.1913  0.3639
16686TIP3    H171473   4.774   5.697   0.510 -1.2926 -0.3098  1.3310
16686TIP3    H271474   4.861   5.812   0.554 -0.3723 -0.6709  0.5119
16687TIP3   OH271475   4.897   1.866   0.774  0.1348  0.1308 -0.2750
16687TIP3    H171476   4.868   1.950   0.807  0.4117  0.6452 -1.2916
16687TIP3    H271477   4.818   1.814   0.765 -0.0911  0.4429 -0.0822
16688TIP3   OH271478   2.760   6.323   3.469 -0.0931  0.0011 -0.4149
16688TIP3    H171479   2.708   6.397   3.501 -0.7352  0.0291 -1.4550
16688TIP3    H271480   2.840   6.362   3.435 -0.7054  0.3138 -1.5477
16689TIP3   OH271481   1.309   6.476   5.670  0.2760  0.0836  0.2405
16689TIP3    H171482   1.273   6.553   5.713  0.6963  0.6752 -0.4415
16689TIP3    H271483   1.392   6.460   5.715 -0.0988 -0.3473  0.7878
16690TIP3   OH271484   6.361   0.029   4.114  0.2511  0.3990 -0.6441
16690TIP3    H171485   6.384   0.122   4.117 -0.3427  0.5182  0.8335
16690TIP3    H271486   6.445  -0.015   4.101  0.9004  1.0210  1.1663
16691TIP3   OH271487   0.597   5.391  13.821  0.0858  0.2993 -0.3533
16691TIP3    H171488   0.649   5.456  13.772  0.8419  0.8720  1.1605
16691TIP3    H271489   0.625   5.307  13.785  0.6505  0.7016 -0.8855
16692TIP3   OH271490   3.687   3.241   0.415  0.1665  0.1990  0.3844
16692TIP3    H171491   3.659   3.223   0.325 -2.1491  2.0668  0.6355
16692TIP3    H271492   3.685   3.337   0.422  0.8646  0.1155  2.2680
16693TIP3   OH271493   1.222   4.330  13.622 -0.0526  0.2505  0.8425
16693TIP3    H171494   1.173   4.397  13.669  1.8309  1.3786  1.2945
16693TIP3    H271495   1.223   4.254  13.681 -0.9693  0.3019  0.9406
16694TIP3   OH271496   5.412   3.807   1.925 -0.3631  0.1190 -0.1469
16694TIP3    H171497   5.436   3.722   1.963  0.7763  0.4567 -0.0501
16694TIP3    H271498   5.468   3.814   1.848 -0.8667  0.5361 -0.4769
16695TIP3   OH271499   6.493   3.183   4.082  0.4583 -0.3604 -0.0631
16695TIP3    H171500   6.463   3.168   4.172 -1.0059  1.4600 -0.1871
16695TIP3    H271501   6.449   3.264   4.055  1.8399 -0.1762 -1.9955
16696TIP3   OH271502   0.587   4.180  15.855  0.0429  0.1337 -0.1950
16696TIP3    H171503   0.619   4.183  15.945  0.9598 -1.0607 -0.4601
16696TIP3    H271504   0.502   4.136  15.861 -0.6472  1.4412  0.2454
16697TIP3   OH271505   6.539   4.248  17.377 -0.3873 -0.4079 -0.0499
16697TIP3    H171506   6.518   4.323  17.321 -2.2497  0.1587  1.3037
16697TIP3    H271507   6.468   4.246  17.442  0.7949 -2.0274  1.2811
16698TIP3   OH271508   1.471   1.757   3.712  0.2611 -0.1433  0.1766
16698TIP3    H171509   1.538   1.723   3.653 -0.8079 -0.1289 -1.0896
16698TIP3    H271510   1.497   1.848   3.728  0.3978 -0.0544 -0.5196
16699TIP3   OH271511   5.473   3.859  11.702  0.2195 -0.5608  0.0996
16699TIP3    H171512   5.455   3.775  11.743 -5.1849 -1.3700 -2.9401
16699TIP3    H271513   5.482   3.839  11.609 -1.1596  2.0918 -0.7352
16700TIP3   OH271514   2.111   4.778   0.389  0.2757 -0.0110  0.0390
16700TIP3    H171515   2.197   4.799   0.426 -0.5589  0.4705  1.7746
16700TIP3    H271516   2.087   4.696   0.430 -2.1853  2.1936  3.4636
16701TIP3   OH271517   2.423   3.169  13.912 -0.0025  0.1037 -0.3779
16701TIP3    H171518   2.516   3.188  13.927  0.1716 -0.9367 -0.0307
16701TIP3    H271519   2.385   3.165  13.999 -0.1752 -0.3959 -0.4724
16702TIP3   OH271520   0.053   3.876   5.246  0.0199 -0.2706  0.8586
16702TIP3    H171521   0.030   3.787   5.217  0.0799  0.1844 -0.6610
16702TIP3    H271522   0.000   3.934   5.191 -1.2740  0.6561  2.9553
16703TIP3   OH271523   2.778   0.768   0.409 -0.2722  0.0422 -0.1065
16703TIP3    H171524   2.744   0.848   0.369 -0.0979 -0.4118 -1.1775
16703TIP3    H271525   2.773   0.702   0.340  0.1057 -0.7363  0.5947
16704TIP3   OH271526   3.492   5.858   5.846  0.0938  0.0485 -0.4710
16704TIP3    H171527   3.486   5.846   5.751 -1.6268 -0.0633 -0.3900
16704TIP3    H271528   3.405   5.889   5.871  0.3762 -0.3764  1.1373
16705TIP3   OH271529   0.701   5.932   4.415 -0.3245 -0.3122  0.4017
16705TIP3    H171530   0.651   5.929   4.497 -0.5409 -1.2875  0.2454
16705TIP3    H271531   0.634   5.940   4.347 -0.0849  2.5055  0.3677
16706TIP3   OH271532   2.837   6.675   1.727  0.5251  0.1829 -0.0681
16706TIP3    H171533   2.878   6.756   1.698  0.6937  0.0031 -0.3400
16706TIP3    H271534   2.838   6.618   1.650 -0.0979  0.1173 -0.0353
16707TIP3   OH271535   1.691   6.480  15.159 -0.5963 -0.0674  0.4420
16707TIP3    H171536   1.620   6.537  15.187 -0.1343 -0.0165  1.5703
16707TIP3    H271537   1.763   6.500  15.218  0.7262  0.5994 -1.3041
16708TIP3   OH271538   1.141   2.628  13.603  0.1614  0.4236 -0.3413
16708TIP3    H171539   1.157   2.631  13.509 -0.0783  1.2269 -0.3611
16708TIP3    H271540   1.075   2.559  13.614 -1.8262  2.1123 -1.0828
16709TIP3   OH271541   4.393   2.497  13.453 -0.0035  0.3289  0.1247
16709TIP3    H171542   4.421   2.413  13.490  1.4478  1.4796  1.7785
16709TIP3    H271543   4.298   2.488  13.445  0.1395 -1.5548  0.0035
16710TIP3   OH271544   5.221   4.491   0.709 -0.3958  1.0309  0.1750
16710TIP3    H171545   5.212   4.444   0.626  2.4615  0.3233  0.1588
16710TIP3    H271546   5.299   4.544   0.698  2.4029 -1.8516  3.4977
16711TIP3   OH271547   2.929   2.069  12.597  0.2450  0.2899 -0.5592
16711TIP3    H171548   2.976   2.103  12.673 -1.0424  0.2720  0.2603
16711TIP3    H271549   2.838   2.091  12.613 -0.5072 -2.4838 -0.5802
16712TIP3   OH271550   5.139   1.632   0.085  0.0466 -0.7854  0.5770
16712TIP3    H171551   5.170   1.546   0.058  0.4251 -0.8994  1.3416
16712TIP3    H271552   5.117   1.677   0.003 -2.1225 -2.3179  0.2292
16713TIP3   OH271553   2.282   1.452  16.744  0.2381  0.2474  0.1510
16713TIP3    H171554   2.269   1.541  16.778 -0.3318  0.1503  0.2023
16713TIP3    H271555   2.346   1.462  16.674  0.5978  0.6147  0.5295
16714TIP3   OH271556   1.311   1.917   0.340 -0.3233 -0.0862  0.1665
16714TIP3    H171557   1.267   1.965   0.270 -0.0308  0.5092  0.3890
16714TIP3    H271558   1.311   1.826   0.310  0.9012  0.3286 -1.2094
16715TIP3   OH271559   4.310   4.033   5.879 -0.3298 -0.0816  0.8523
16715TIP3    H171560   4.277   3.957   5.928  0.3044  0.0278  1.4578
16715TIP3    H271561   4.231   4.081   5.853 -0.7868 -1.3393 -0.1996
16716TIP3   OH271562   2.714   0.832  13.305 -0.3145 -0.4940  0.5494
16716TIP3    H171563   2.773   0.906  13.292 -0.1222 -0.6532  0.5096
16716TIP3    H271564   2.632   0.859  13.264  0.2726 -0.9889 -1.0371
16717TIP3   OH271565   4.651   6.594   3.518 -0.6486 -0.9368  0.8275
16717TIP3    H171566   4.717   6.638   3.465 -0.8947 -0.5845  0.8115
16717TIP3    H271567   4.589   6.559   3.454 -0.8368 -0.6869  0.8712
16718TIP3   OH271568   2.208   0.260   6.497 -0.7227  0.2022  0.4408
16718TIP3    H171569   2.209   0.224   6.409 -1.3429 -1.5095  1.0945
16718TIP3    H271570   2.280   0.216   6.542  1.0755  2.7163  0.2322
16719TIP3   OH271571   6.179   4.890   4.111 -0.0427  0.0468 -0.3864
16719TIP3    H171572   6.266   4.853   4.119 -0.3501 -0.5397  0.4499
16719TIP3    H271573   6.190   4.967   4.056  1.4501  1.3625  1.6005
16720TIP3   OH271574   1.550   3.499   5.203  0.5603 -0.3995  0.5987
16720TIP3    H171575   1.506   3.530   5.283  0.2873 -0.9054  0.6442
16720TIP3    H271576   1.643   3.516   5.220  0.4403  0.1835  0.7164
16721TIP3   OH271577   3.817   3.076   4.004  0.2516 -0.2980 -0.5517
16721TIP3    H171578   3.853   3.001   4.052  1.8447  0.3376 -0.6977
16721TIP3    H271579   3.838   3.151   4.060  0.0631  0.2024 -1.1530
16722TIP3   OH271580   2.997   4.746   5.128 -0.3698 -0.3190  0.4691
16722TIP3    H171581   3.084   4.708   5.117 -0.2340  0.3168 -0.9467
16722TIP3    H271582   2.964   4.708   5.209  0.9647 -1.0710  0.6915
16723TIP3   OH271583   6.607   6.375  11.740  0.2601 -0.5865  0.9800
16723TIP3    H171584   6.686   6.428  11.728  0.0717 -0.0140  2.1633
16723TIP3    H271585   6.537   6.428  11.701  0.5840 -1.5772 -1.0712
16724TIP3   OH271586   5.120   2.357  14.476  0.1836 -0.6622  0.1748
16724TIP3    H171587   5.178   2.291  14.437 -1.5985 -1.7328 -0.8509
16724TIP3    H271588   5.036   2.343  14.431 -1.3963 -0.4524  2.8514
16725TIP3   OH271589   0.265   1.724  16.959 -0.0168 -0.0122  0.2636
16725TIP3    H171590   0.299   1.801  17.005 -0.9387  0.3414  0.3913
16725TIP3    H271591   0.309   1.725  16.874  0.4879  0.2681  0.5254
16726TIP3   OH271592   5.849   1.209   0.763  0.0148 -0.1182 -0.6710
16726TIP3    H171593   5.899   1.281   0.725 -1.3709  1.3364  0.1518
16726TIP3    H271594   5.763   1.246   0.781 -0.5347 -1.8004  0.4307
16727TIP3   OH271595   6.003   5.219  13.492  0.0437  0.3586  0.3538
16727TIP3    H171596   6.047   5.190  13.412 -0.2787  2.6103 -0.7443
16727TIP3    H271597   5.910   5.217  13.470  0.0056  2.0966  0.1863
16728TIP3   OH271598   5.675   0.927   4.589 -0.5883  0.2947  0.0807
16728TIP3    H171599   5.615   0.908   4.661 -0.5497 -0.7621 -0.1535
16728TIP3    H271600   5.680   0.845   4.540  0.9351  0.4100  0.0125
16729TIP3   OH271601   2.527   1.553  13.378 -0.0848  0.1370  0.0688
16729TIP3    H171602   2.532   1.497  13.455  1.1209 -0.5039 -0.4371
16729TIP3    H271603   2.534   1.642  13.412  0.9877 -0.1592  0.6761
16730TIP3   OH271604   3.711   1.739  14.758  0.2992  0.1516  0.2166
16730TIP3    H171605   3.799   1.776  14.746  0.5105 -0.0622  1.0623
16730TIP3    H271606   3.668   1.799  14.820 -0.6103  0.9751 -1.1312
16731TIP3   OH271607   1.352   4.336   3.092 -0.2005  0.7461 -0.0747
16731TIP3    H171608   1.309   4.265   3.139  0.4477 -0.1033 -0.7414
16731TIP3    H271609   1.360   4.406   3.157 -0.2555 -0.0222  0.7775
16732TIP3   OH271610   5.682   6.507  16.651  0.5558  0.0054 -0.1183
16732TIP3    H171611   5.696   6.579  16.713  0.9368  0.1877 -0.4135
16732TIP3    H271612   5.590   6.514  16.627  0.8543  1.1118 -1.0189
16733TIP3   OH271613   6.311   6.718  13.906  0.3767 -0.2478  0.6623
16733TIP3    H171614   6.398   6.712  13.868  0.2596  2.0448 -0.0899
16733TIP3    H271615   6.252   6.691  13.835  0.4051 -0.8699  0.8683
16734TIP3   OH271616   6.231   5.896  13.002 -0.5828 -0.4032 -0.6899
16734TIP3    H171617   6.192   5.928  12.921 -0.0828  1.4621 -0.2520
16734TIP3    H271618   6.167   5.920  13.070  0.9829  2.2817 -0.0236
16735TIP3   OH271619   4.473   2.164  16.413  0.1939 -0.2187 -0.3262
16735TIP3    H171620   4.471   2.069  16.424  1.3796 -0.2266  0.0037
16735TIP3    H271621   4.564   2.183  16.390  0.4132  1.0119  1.3783
16736TIP3   OH271622   6.432   5.226   3.480  0.1870 -0.6753  0.2508
16736TIP3    H171623   6.426   5.132   3.459 -1.1262 -0.5174 -0.1983
16736TIP3    H271624   6.389   5.233   3.565 -1.7696 -0.2086 -0.7081
16737TIP3   OH271625   6.338   4.278  17.053  0.3329 -0.2090  0.1922
16737TIP3    H171626   6.340   4.373  17.041 -1.7118 -0.2381 -0.7702
16737TIP3    H271627   6.257   4.261  17.101 -1.6269 -1.7117 -3.2051
16738TIP3   OH271628   1.684   6.458   2.341 -0.2827 -0.8116  0.0803
16738TIP3    H171629   1.666   6.549   2.363 -3.2427 -1.0725 -0.8330
16738TIP3    H271630   1.670   6.410   2.423  0.5126 -0.5315  0.3815
16739TIP3   OH271631   6.095   4.010   5.616  0.3856 -0.6290  0.2394
16739TIP3    H171632   6.004   3.985   5.632  0.1232  1.1545  1.7643
16739TIP3    H271633   6.146   3.938   5.652 -0.3760 -1.4850 -0.3249
16740TIP3   OH271634   6.253   3.280  16.258 -0.3521 -0.1216 -0.4647
16740TIP3    H171635   6.328   3.283  16.199 -0.3381 -1.2338 -0.5368
16740TIP3    H271636   6.289   3.244  16.340 -0.0890  2.5654  0.7051
16741TIP3   OH271637   4.247   3.802   0.569  0.0955 -0.4268 -0.1651
16741TIP3    H171638   4.281   3.855   0.641 -0.6393 -0.8676  0.5332
16741TIP3    H271639   4.202   3.729   0.613  0.2490 -1.0922 -1.0880
16742TIP3   OH271640   3.265   2.764   4.302 -0.4283 -0.1172 -0.5824
16742TIP3    H171641   3.230   2.842   4.259 -1.3360 -0.5334 -0.6339
16742TIP3    H271642   3.192   2.731   4.354 -0.1723 -1.1509 -0.8654
16743TIP3   OH271643   2.777   2.155  13.761  0.0273 -0.1370  0.2605
16743TIP3    H171644   2.787   2.215  13.835 -1.1740 -0.7849  0.9788
16743TIP3    H271645   2.810   2.204  13.685 -2.9197  2.3150  0.3854
16744TIP3   OH271646   0.968   6.355   0.828  0.1949  0.3997 -0.1960
16744TIP3    H171647   1.033   6.406   0.781  0.5931 -0.3011 -0.4131
16744TIP3    H271648   0.885   6.398   0.808  0.4894  0.7658 -0.6447
16745TIP3   OH271649   5.959   3.351  14.491  0.2025 -0.1582 -0.3205
16745TIP3    H171650   5.963   3.256  14.489  1.1811 -0.1571  0.9319
16745TIP3    H271651   5.889   3.371  14.553 -0.2508 -0.0386 -0.8530
16746TIP3   OH271652   0.813   4.436  14.480  0.1581  0.9578 -0.0653
16746TIP3    H171653   0.739   4.490  14.451 -0.7069 -0.7683 -1.2882
16746TIP3    H271654   0.845   4.396  14.399  1.0785  0.0367  0.7448
16747TIP3   OH271655   2.220   6.570  16.267  0.0195 -0.5546 -0.3435
16747TIP3    H171656   2.181   6.493  16.309  0.8974 -1.2532 -0.7695
16747TIP3    H271657   2.258   6.536  16.185  0.3829  0.3378 -0.5576
16748TIP3   OH271658   5.652   5.922   4.268  0.1836  0.0784 -0.1974
16748TIP3    H171659   5.645   5.833   4.234  1.1532 -0.7401  1.6041
16748TIP3    H271660   5.734   5.923   4.317  1.8793  2.9131 -2.7113
16749TIP3   OH271661   6.394   3.850   2.981  0.2806 -0.2418  0.0321
16749TIP3    H171662   6.465   3.825   2.922  1.1507  0.3341  0.8095
16749TIP3    H271663   6.386   3.945   2.970  0.0243 -0.2219  0.3637
16750TIP3   OH271664   3.601   5.042  13.548  0.7024  0.2377 -0.1196
16750TIP3    H171665   3.535   4.974  13.538 -1.3483  1.6482  2.5522
16750TIP3    H271666   3.653   5.015  13.624 -0.7770  1.9979  1.6205
16751TIP3   OH271667   5.216   1.309  13.910 -0.3610  0.0163 -0.4163
16751TIP3    H171668   5.210   1.401  13.885  1.0336 -0.2798 -2.0634
16751TIP3    H271669   5.154   1.264  13.851  0.9866 -0.3792 -1.5870
16752TIP3   OH271670   2.957   0.848   1.328 -0.1087 -0.6846 -0.8857
16752TIP3    H171671   2.965   0.920   1.266 -1.5860  1.2830  1.0334
16752TIP3    H271672   2.900   0.785   1.284  0.5878 -0.3477 -2.3218
16753TIP3   OH271673   4.905   5.716   5.600 -0.0662  1.1318  0.2412
16753TIP3    H171674   4.925   5.692   5.509  1.4224 -1.0010  1.0504
16753TIP3    H271675   4.863   5.638   5.637  1.3033  1.1455  1.9331
16754TIP3   OH271676   1.355   5.859  16.868 -0.1357 -0.7685  0.4476
16754TIP3    H171677   1.285   5.891  16.811  0.9385 -0.3100 -0.6474
16754TIP3    H271678   1.312   5.795  16.924 -1.4175 -0.5810 -0.2786
16755TIP3   OH271679   3.334   2.517  14.613 -0.2069 -0.5705  0.6621
16755TIP3    H171680   3.383   2.588  14.656 -1.7023  0.0062  1.5256
16755TIP3    H271681   3.274   2.563  14.554 -0.8087 -1.1332  0.8253
16756TIP3   OH271682   3.771   4.789   0.975  0.3258  0.1635  0.2426
16756TIP3    H171683   3.791   4.738   0.896 -0.0053 -0.7940  0.7625
16756TIP3    H271684   3.845   4.773   1.033 -0.1034 -0.3068  0.6760
16757TIP3   OH271685   5.314   5.828  16.137  0.7303 -0.2884 -0.0070
16757TIP3    H171686   5.229   5.855  16.102  0.4416  1.2423  1.7098
16757TIP3    H271687   5.308   5.846  16.231  2.8101 -0.5105  0.2135
16758TIP3   OH271688   0.477   1.047   4.261 -0.3107  0.2440  0.8314
16758TIP3    H171689   0.511   1.119   4.208  0.3356 -1.6660 -1.5105
16758TIP3    H271690   0.394   1.023   4.220  0.7429 -2.0159 -0.1055
16759TIP3   OH271691   4.151   2.106  15.712 -0.1351 -0.3424  0.4434
16759TIP3    H171692   4.244   2.094  15.693 -0.5020 -0.7895 -1.2800
16759TIP3    H271693   4.107   2.037  15.662 -1.5752  1.6154 -1.1942
16760TIP3   OH271694   3.343   4.082  17.220  0.0785  0.4528 -0.5484
16760TIP3    H171695   3.269   4.076  17.160 -0.8386 -0.6634  0.6344
16760TIP3    H271696   3.417   4.044  17.172 -0.6725 -0.5755 -0.9184
16761TIP3   OH271697   6.727   5.989  15.638  0.0817  0.0218  0.1220
16761TIP3    H171698   6.642   5.944  15.628  0.2264  0.3055 -3.5471
16761TIP3    H271699   6.718   6.038  15.720 -1.7159 -3.0903  2.0269
16762TIP3   OH271700   0.524   6.095   6.197  0.5286  0.0804  0.7082
16762TIP3    H171701   0.576   6.091   6.277 -2.8818 -0.9760  3.0801
16762TIP3    H271702   0.507   6.189   6.184  0.9259  0.2468  1.3559
16763TIP3   OH271703   6.356   3.170   2.401  0.0234 -0.1079 -0.1869
16763TIP3    H171704   6.434   3.158   2.455 -0.5371  2.5226  1.4194
16763TIP3    H271705   6.293   3.107   2.436  0.3011  0.2346  0.9676
16764TIP3   OH271706   0.503   1.597  13.831 -0.2124  0.3318 -0.1384
16764TIP3    H171707   0.413   1.628  13.820 -0.6840 -0.7254  0.5614
16764TIP3    H271708   0.505   1.561  13.920  1.0118  0.6770 -0.0136
16765TIP3   OH271709   6.390   0.224   1.241 -0.2192  0.0030 -0.1604
16765TIP3    H171710   6.426   0.234   1.153  0.7376  0.8418  0.3166
16765TIP3    H271711   6.365   0.312   1.267  2.0058  0.2553  1.4319
16766TIP3   OH271712   1.591   2.598  16.403 -0.5075 -0.4174  0.2233
16766TIP3    H171713   1.576   2.520  16.456 -0.3419 -0.5492  0.0736
16766TIP3    H271714   1.682   2.622  16.422 -0.2101 -0.8890 -0.5652
16767TIP3   OH271715   2.051   1.624   0.203 -0.0774  0.4262 -0.8073
16767TIP3    H171716   2.017   1.666   0.282 -1.1201  0.3971 -1.2316
16767TIP3    H271717   2.093   1.544   0.236 -0.4300  0.4544 -0.2618
16768TIP3   OH271718   6.520   0.550   3.940  0.2060  0.0926 -0.3023
16768TIP3    H171719   6.511   0.593   4.026  0.0761  0.8644 -0.6905
16768TIP3    H271720   6.439   0.573   3.894 -0.3235 -1.4248 -0.1618
16769TIP3   OH271721   1.824   2.654   4.915 -0.0658  0.6262 -0.2772
16769TIP3    H171722   1.779   2.673   4.998  3.0559  0.4518  1.6013
16769TIP3    H271723   1.844   2.741   4.879  0.8086  0.7546  0.4914
16770TIP3   OH271724   0.773   4.963   5.581 -0.2524 -0.0352  0.0626
16770TIP3    H171725   0.717   4.943   5.656 -2.2173  1.0239 -1.0365
16770TIP3    H271726   0.712   4.987   5.511  1.5875  0.9679 -1.2885
16771TIP3   OH271727   0.862   1.814  14.424 -0.3466  0.1710 -0.0038
16771TIP3    H171728   0.823   1.857  14.348 -0.4251  0.5357  0.2418
16771TIP3    H271729   0.848   1.875  14.496 -0.3837 -0.2285  0.3312
16772TIP3   OH271730   5.349   1.008  16.791  0.0636 -0.1884  0.5869
16772TIP3    H171731   5.400   1.080  16.829  0.7177 -0.0639 -0.4928
16772TIP3    H271732   5.300   1.048  16.720  0.8684 -0.8978 -0.3931
16773TIP3   OH271733   4.176   4.919   5.689 -0.2167  0.1679  0.7664
16773TIP3    H171734   4.250   4.950   5.636 -0.7427  1.7437  0.8801
16773TIP3    H271735   4.212   4.911   5.777 -0.1491  0.8900  0.8133
16774TIP3   OH271736   1.902   5.885  15.965  0.2560  0.4627  0.2686
16774TIP3    H171737   1.814   5.857  15.992 -0.4536  1.0816 -1.2589
16774TIP3    H271738   1.887   5.937  15.886  1.6616  3.3686  1.7550
16775TIP3   OH271739   6.681   1.325  11.199  0.3582 -0.2514  0.3212
16775TIP3    H171740   6.687   1.244  11.248  0.0317 -0.4195  0.0866
16775TIP3    H271741   6.722   1.306  11.115 -0.8952 -0.5865 -0.2436
16776TIP3   OH271742   2.330   2.241  16.950 -0.2199  0.5193  0.3361
16776TIP3    H171743   2.236   2.245  16.939 -0.3630 -1.8184  0.1642
16776TIP3    H271744   2.342   2.208  17.039  0.6305  5.0015  2.1631
16777TIP3   OH271745   4.116   4.209   5.633  0.1826 -0.1075 -0.1034
16777TIP3    H171746   4.152   4.276   5.691  0.7442  1.0466 -1.7079
16777TIP3    H271747   4.190   4.184   5.577 -0.7482  0.1536 -1.5179
16778TIP3   OH271748   3.008   2.256  11.791  0.3591 -0.1975  1.0674
16778TIP3    H171749   3.066   2.184  11.766  0.9323  1.0453 -1.6228
16778TIP3    H271750   3.064   2.334  11.787 -1.3867  1.0633 -1.7165
16779TIP3   OH271751   3.920   3.852  13.315  0.7348  0.0060 -0.5135
16779TIP3    H171752   3.857   3.831  13.245  0.9201 -0.1786 -0.6271
16779TIP3    H271753   3.933   3.769  13.360 -0.2886  0.3600  0.4980
16780TIP3   OH271754   2.849   4.381  13.181  0.6269 -0.1536  0.5740
16780TIP3    H171755   2.902   4.341  13.111 -0.8047  0.1766 -0.7698
16780TIP3    H271756   2.768   4.330  13.181 -1.7169  3.0960 -1.8853
16781TIP3   OH271757   1.068   5.709  16.446  0.0468  0.4092 -0.0904
16781TIP3    H171758   1.103   5.647  16.509  0.3271  1.5455  0.8986
16781TIP3    H271759   1.134   5.712  16.377  1.1418  1.2881  0.9581
16782TIP3   OH271760   6.376   3.928   6.004 -0.3871  0.2187 -0.0301
16782TIP3    H171761   6.320   3.934   6.082  0.8292 -0.2450  0.9051
16782TIP3    H271762   6.390   3.834   5.991 -0.3342  0.3040 -0.6309
16783TIP3   OH271763   3.027   4.200  15.225 -0.2719  0.1661 -0.5359
16783TIP3    H171764   3.054   4.158  15.307  0.4648  0.1523 -0.7855
16783TIP3    H271765   2.972   4.134  15.183 -2.6631  1.0328  1.0120
16784TIP3   OH271766   0.728   4.343   4.188 -1.0373 -0.0700 -0.8551
16784TIP3    H171767   0.724   4.435   4.163  0.0501  0.2052 -0.0719
16784TIP3    H271768   0.648   4.305   4.152 -2.6683  1.6357  0.7515
16785TIP3   OH271769   0.226   0.350  12.160 -0.5153 -0.4295  0.3131
16785TIP3    H171770   0.162   0.420  12.157 -1.7282 -1.5256 -0.4224
16785TIP3    H271771   0.270   0.353  12.075  0.6229  0.4780  0.9060
16786TIP3   OH271772   5.707   2.605  16.851  0.4107 -0.1632  0.4520
16786TIP3    H171773   5.713   2.588  16.756 -1.0196 -1.0230  0.4889
16786TIP3    H271774   5.676   2.695  16.857 -1.7984 -0.8354  0.0146
16787TIP3   OH271775   3.177   3.875  15.940  0.3763  0.2532 -0.4265
16787TIP3    H171776   3.128   3.880  15.858 -0.7760  0.2200  0.2350
16787TIP3    H271777   3.260   3.918  15.921 -0.0648  0.6787 -1.4712
16788TIP3   OH271778   6.537   2.974   5.222 -0.0277 -0.3618 -0.4778
16788TIP3    H171779   6.633   2.973   5.230 -0.0119  0.3051 -0.5605
16788TIP3    H271780   6.520   3.014   5.137 -0.3924  0.0089 -0.2325
16789TIP3   OH271781   6.010   2.673  14.282 -0.5843 -0.5603  0.1440
16789TIP3    H171782   6.076   2.743  14.281 -1.8640  0.8074  2.3395
16789TIP3    H271783   5.932   2.713  14.244 -0.3634 -2.0133 -1.9885
16790TIP3   OH271784   6.662   0.279  16.235  0.2667  0.5387 -0.0042
16790TIP3    H171785   6.642   0.190  16.207 -0.9331  0.3197  1.4204
16790TIP3    H271786   6.576   0.321  16.243  0.7979  1.7228 -0.3109
16791TIP3   OH271787   6.228   5.340   3.070  0.5635  0.1932  0.1184
16791TIP3    H171788   6.137   5.369   3.064  0.1151 -1.3319 -1.4273
16791TIP3    H271789   6.249   5.310   2.981  2.2628 -0.4171  0.6864
16792TIP3   OH271790   4.700   0.790   3.463 -0.6262 -0.1963 -0.2193
16792TIP3    H171791   4.657   0.856   3.518  0.0133  0.6625 -0.7280
16792TIP3    H271792   4.638   0.716   3.462 -1.9415  0.8593 -0.6364
16793TIP3   OH271793   2.440   3.277   3.404 -0.1300  0.3493  0.0179
16793TIP3    H171794   2.501   3.307   3.472  0.4994 -0.5019 -0.1564
16793TIP3    H271795   2.496   3.240   3.336 -0.8707 -1.4217  0.3290
16794TIP3   OH271796   4.155   0.874  13.095  0.1403 -0.0090 -0.4372
16794TIP3    H171797   4.161   0.816  13.019  0.8117 -0.0655 -0.3432
16794TIP3    H271798   4.215   0.945  13.076  0.1512  0.0869 -0.0497
16795TIP3   OH271799   3.541   3.003   3.948 -0.2517 -0.6018 -0.4422
16795TIP3    H171800   3.632   2.983   3.968 -0.4521 -0.4301  0.7354
16795TIP3    H271801   3.493   2.923   3.969 -0.4082 -0.6041 -0.7988
16796TIP3   OH271802   4.069   5.310  14.656  0.1927  0.1015 -0.6541
16796TIP3    H171803   4.065   5.380  14.591  0.2004  0.4691 -0.2668
16796TIP3    H271804   4.060   5.356  14.740 -3.4790 -0.6206 -0.4720
16797TIP3   OH271805   5.125   3.594   1.119 -0.3364  0.0630  0.0700
16797TIP3    H171806   5.152   3.660   1.182 -1.7626 -0.6790  1.5405
16797TIP3    H271807   5.051   3.634   1.072 -0.3328  0.0036  0.0130
16798TIP3   OH271808   0.262   1.887  16.561 -0.0433  0.2990 -0.1376
16798TIP3    H171809   0.309   1.846  16.488  0.7672  0.7559  0.1140
16798TIP3    H271810   0.192   1.826  16.581 -0.3133  0.1867 -1.3320
16799TIP3   OH271811   2.628   6.639   1.282 -0.0787 -0.4524  0.4087
16799TIP3    H171812   2.613   6.691   1.361 -4.0484 -0.3582 -0.1843
16799TIP3    H271813   2.584   6.555   1.301  0.3964 -1.0662 -1.0859
16800TIP3   OH271814   1.384   3.264   4.102  0.5550  0.0498  0.1527
16800TIP3    H171815   1.390   3.179   4.146  2.4036  0.1319  0.1276
16800TIP3    H271816   1.325   3.315   4.158 -2.7104 -1.9515 -1.1491
16801TIP3   OH271817   0.578   0.961   3.241 -0.0470 -0.0836 -0.3069
16801TIP3    H171818   0.580   1.050   3.207 -0.4742 -0.6302 -1.8453
16801TIP3    H271819   0.667   0.945   3.273 -0.3844  1.4259  1.5158
16802TIP3   OH271820   5.778   1.639   5.751 -0.2824  0.2403  0.0323
16802TIP3    H171821   5.794   1.679   5.837 -2.3468  0.5105  0.3548
16802TIP3    H271822   5.827   1.557   5.752  2.3577  1.7244  0.1779
16803TIP3   OH271823   1.572   5.821  17.149  0.0143  0.4815  0.2129
16803TIP3    H171824   1.497   5.874  17.122 -0.9916 -1.6820 -1.4292
16803TIP3    H271825   1.548   5.788  17.236 -1.8260 -1.6273 -1.0090
16804TIP3   OH271826   1.324   2.707  12.228 -0.0430  0.3825  0.0721
16804TIP3    H171827   1.415   2.736  12.216  0.4325 -0.6303  0.9882
16804TIP3    H271828   1.313   2.636  12.164 -0.3863  0.8744 -0.4263
16805TIP3   OH271829   4.050   6.367  14.021 -0.1785 -0.3432 -0.0986
16805TIP3    H171830   4.040   6.274  14.042 -2.2935 -0.5035 -1.5748
16805TIP3    H271831   3.961   6.402  14.022  0.5772  1.7136  0.4866
16806TIP3   OH271832   5.045   5.191  14.113  0.2276  0.0133  0.1637
16806TIP3    H171833   5.002   5.129  14.054  1.5589  0.1404 -0.9832
16806TIP3    H271834   5.094   5.136  14.174  0.4187 -0.0872 -0.0798
16807TIP3   OH271835   2.005   1.340  13.018  0.0563 -0.2611  0.2503
16807TIP3    H171836   2.097   1.364  13.017 -0.1016  0.4753  1.0939
16807TIP3    H271837   1.964   1.397  12.953  0.2610 -0.9441 -0.4932
16808TIP3   OH271838   5.231   5.241  15.278  0.4070  0.3961 -0.0863
16808TIP3    H171839   5.273   5.321  15.247  0.2029  0.6104  0.1771
16808TIP3    H271840   5.238   5.180  15.205  1.8018  0.1818  0.2025
16809TIP3   OH271841   2.805   2.600   4.529 -0.4069  0.2173 -0.6010
16809TIP3    H171842   2.744   2.586   4.457 -1.2399 -0.4715  0.2127
16809TIP3    H271843   2.750   2.602   4.608  0.5180  0.5275  0.0604
16810TIP3   OH271844   0.553   2.840   0.966  0.0399 -0.4588 -0.2167
16810TIP3    H171845   0.557   2.906   1.035 -0.4314  0.7449 -1.2995
16810TIP3    H271846   0.518   2.762   1.009  1.6724 -0.4011  1.3597
16811TIP3   OH271847   1.727   5.636  13.594 -0.1614  0.0189 -0.0519
16811TIP3    H171848   1.783   5.609  13.522 -0.2851 -0.9535  0.1983
16811TIP3    H271849   1.754   5.580  13.668  0.5506  1.5618  0.9102
16812TIP3   OH271850   5.666   0.061   4.740 -0.2494 -0.1664  0.3012
16812TIP3    H171851   5.579   0.023   4.730  0.3041 -1.4065 -0.0173
16812TIP3    H271852   5.657   0.123   4.812 -1.6422  0.5496 -0.4431
16813TIP3   OH271853   6.279   6.315  12.433  0.3455  0.1775 -0.2767
16813TIP3    H171854   6.266   6.246  12.368 -0.3417 -0.5482  0.6021
16813TIP3    H271855   6.343   6.374  12.393  1.5790 -1.3890 -0.7456
16814TIP3   OH271856   1.933   1.297   3.711  0.1663 -0.2981 -0.5160
16814TIP3    H171857   1.973   1.370   3.665  1.0958  0.3904  1.2820
16814TIP3    H271858   1.996   1.274   3.779  0.8014 -4.0533 -2.1288
16815TIP3   OH271859   3.432   5.640   6.385 -0.0197 -0.6542  0.2574
16815TIP3    H171860   3.497   5.579   6.420 -0.4295 -0.7427  0.8781
16815TIP3    H271861   3.452   5.644   6.292  2.5713  1.3219  0.7720
16816TIP3   OH271862   3.844   0.969   4.986  0.0637 -0.0816  0.0237
16816TIP3    H171863   3.878   0.946   5.072  0.6036 -0.1672 -0.2111
16816TIP3    H271864   3.749   0.969   4.997  0.1225  2.4612  1.3020
16817TIP3   OH271865   3.273   2.964   5.625 -0.1430  0.3923  0.2964
16817TIP3    H171866   3.199   2.974   5.564 -0.8342  0.6256  1.1504
16817TIP3    H271867   3.271   2.871   5.649  0.6402  0.1072 -0.6327
16818TIP3   OH271868   5.691   6.631  12.289 -0.3850  0.1579 -0.1885
16818TIP3    H171869   5.677   6.537  12.278 -1.4389  0.5856 -3.8801
16818TIP3    H271870   5.782   6.645  12.264 -0.6216  0.2555 -1.0159
16819TIP3   OH271871   1.971   3.170  11.476  0.4148  0.7048  0.1930
16819TIP3    H171872   2.011   3.102  11.422 -0.8366 -0.9626  1.2578
16819TIP3    H271873   1.957   3.243  11.417  1.2489 -0.1856 -1.1510
16820TIP3   OH271874   5.647   2.361   2.445 -0.2868 -0.0921  0.2363
16820TIP3    H171875   5.716   2.408   2.398 -0.4218  1.0904  1.1705
16820TIP3    H271876   5.571   2.367   2.387 -0.6131  1.8517  0.7819
16821TIP3   OH271877   3.466   3.335   5.444  0.0876 -0.0010  0.2247
16821TIP3    H171878   3.478   3.293   5.529  0.1082 -0.5269 -0.0387
16821TIP3    H271879   3.545   3.387   5.432  1.1013 -1.6368 -0.4525
16822TIP3   OH271880   3.790   0.819   3.691  0.3918 -0.1729  0.1014
16822TIP3    H171881   3.871   0.793   3.736 -0.5565 -0.4714  1.7196
16822TIP3    H271882   3.784   0.913   3.706  1.7792  0.4088 -2.3671
16823TIP3   OH271883   5.672   5.403   0.142  0.0551  0.0837 -0.3711
16823TIP3    H171884   5.659   5.316   0.104 -3.2199  0.4394 -0.3500
16823TIP3    H271885   5.641   5.394   0.232  0.2497  1.1351 -0.1962
16824TIP3   OH271886   3.055   2.224  14.005  0.0172  0.1982  0.6396
16824TIP3    H171887   3.085   2.288  14.069 -0.8217  1.2254  0.0362
16824TIP3    H271888   2.960   2.234  14.004 -0.1221 -0.9848  0.4457
16825TIP3   OH271889   6.362   0.802  14.185  0.2968 -0.5728 -0.1360
16825TIP3    H171890   6.439   0.791  14.239  0.2777 -2.8738 -0.4596
16825TIP3    H271891   6.395   0.801  14.095  0.0196 -0.1302 -0.2473
16826TIP3   OH271892   2.684   4.430  14.627 -0.2281  0.6890 -0.0610
16826TIP3    H171893   2.631   4.353  14.606  0.4822  1.1072 -4.0893
16826TIP3    H271894   2.629   4.482  14.686 -0.9707 -2.4650  2.2820
16827TIP3   OH271895   5.946   1.006   4.585  0.1410 -0.5108 -0.0957
16827TIP3    H171896   5.985   0.918   4.583 -1.8717 -1.4723  0.3011
16827TIP3    H271897   5.860   0.993   4.624  0.0727  1.7880  0.6632
16828TIP3   OH271898   1.875   1.054  16.293  0.5818  0.2725 -0.4640
16828TIP3    H171899   1.813   1.024  16.360 -0.6928  1.5371 -1.0321
16828TIP3    H271900   1.888   1.147  16.313  2.1512  0.0908 -0.5005
16829TIP3   OH271901   0.009   2.453  11.276  0.0906 -0.2619  0.2880
16829TIP3    H171902  -0.013   2.483  11.187 -0.1013  0.3898  0.5416
16829TIP3    H271903   0.016   2.534  11.326 -0.4048 -0.6485  1.0019
16830TIP3   OH271904   3.798   3.706   2.188 -1.0032 -0.0035 -1.0028
16830TIP3    H171905   3.806   3.672   2.277 -0.0526  1.4744 -0.4956
16830TIP3    H271906   3.704   3.715   2.174 -1.1382  0.5683  0.1762
16831TIP3   OH271907   2.729   3.408  16.605  0.1275 -0.1856 -0.1380
16831TIP3    H171908   2.692   3.489  16.571  0.7632  0.0752 -0.2264
16831TIP3    H271909   2.698   3.341  16.544 -2.2267 -0.3740  1.1617
16832TIP3   OH271910   5.485   3.306   4.292  0.0495 -0.8509 -0.0397
16832TIP3    H171911   5.421   3.287   4.223 -0.9797  2.4635 -0.1504
16832TIP3    H271912   5.567   3.268   4.259 -1.2644 -2.8981 -1.1243
16833TIP3   OH271913   0.740   0.493  13.705 -0.0687 -0.2132 -0.1376
16833TIP3    H171914   0.793   0.571  13.717  1.8513 -1.5130  0.1977
16833TIP3    H271915   0.733   0.483  13.610  1.0057 -0.4856 -0.1957
16834TIP3   OH271916   1.910   3.479  10.507  0.2083 -0.4661  0.1817
16834TIP3    H171917   1.950   3.556  10.547  2.7926 -0.4880 -2.0138
16834TIP3    H271918   1.852   3.515  10.439  1.1704 -0.4036 -0.6301
16835TIP3   OH271919   3.543   6.312  17.177  0.7306  0.1523 -0.4632
16835TIP3    H171920   3.572   6.232  17.133 -0.6525  0.6652 -2.4345
16835TIP3    H271921   3.605   6.379  17.149  1.0931  0.0629  0.1047
16836TIP3   OH271922   0.863   1.742   4.886  0.3189  0.5433  0.0102
16836TIP3    H171923   0.899   1.816   4.837  0.5757 -0.2911 -1.0994
16836TIP3    H271924   0.861   1.670   4.823 -0.4551 -0.2510  0.9057
16837TIP3   OH271925   0.031   6.281   5.138  0.1202 -0.3463 -0.2641
16837TIP3    H171926   0.112   6.237   5.111  0.2670 -0.2368 -0.0098
16837TIP3    H271927   0.057   6.373   5.146 -0.0598 -0.2933 -0.3035
16838TIP3   OH271928   0.568   3.270   5.427 -0.0761  0.0000  0.2335
16838TIP3    H171929   0.590   3.187   5.470 -1.5664 -1.4625 -1.6460
16838TIP3    H271930   0.501   3.247   5.363 -0.7024  2.7275 -0.2207
16839TIP3   OH271931   3.116   2.788   2.615 -0.1665 -0.0536 -0.1828
16839TIP3    H171932   3.101   2.777   2.709 -0.4169 -0.6060 -0.2824
16839TIP3    H271933   3.131   2.699   2.583 -2.3443 -0.1638 -1.0364
16840TIP3   OH271934   6.733   6.592   1.302  0.4047 -0.5006 -0.7193
16840TIP3    H171935   6.821   6.594   1.339  0.4748 -1.3321 -0.8208
16840TIP3    H271936   6.733   6.661   1.236  0.2995  0.9410  0.7436
16841TIP3   OH271937   5.392   6.308   4.959  0.1331 -0.0967 -0.4164
16841TIP3    H171938   5.435   6.319   5.044  0.4270 -2.0966 -0.2585
16841TIP3    H271939   5.328   6.379   4.955  0.3510  0.2416  1.3220
16842TIP3   OH271940   3.072   5.987   4.433  0.4813 -0.0504  0.0592
16842TIP3    H171941   2.987   5.990   4.388 -0.6683 -3.2329  1.7221
16842TIP3    H271942   3.100   5.896   4.427  3.4165  0.7255  0.3293
16843TIP3   OH271943   4.227   2.942   1.548 -0.1972 -0.0097 -0.0742
16843TIP3    H171944   4.291   3.005   1.579  0.0395 -1.1370  1.8424
16843TIP3    H271945   4.173   2.922   1.624 -0.7570 -1.5283 -0.8251
16844TIP3   OH271946   3.040   1.495  13.494  0.9791  0.6251 -0.6958
16844TIP3    H171947   3.104   1.559  13.526  1.5216  0.5783 -1.6692
16844TIP3    H271948   2.968   1.549  13.459 -0.7149  0.7292  2.5129
16845TIP3   OH271949   4.454   5.007   4.192 -0.4429  0.2369  0.2818
16845TIP3    H171950   4.401   5.083   4.170  0.3417  0.6141 -0.3390
16845TIP3    H271951   4.398   4.954   4.248 -1.4050  0.7087 -0.2230
16846TIP3   OH271952   4.991   2.554   1.765  0.3486 -0.1956  0.0562
16846TIP3    H171953   5.017   2.472   1.722 -0.5658 -0.2675 -0.3760
16846TIP3    H271954   4.927   2.593   1.706 -0.2811  0.1342  0.9409
16847TIP3   OH271955   0.930   2.156   2.850 -0.5557  0.2466 -0.2563
16847TIP3    H171956   0.913   2.149   2.944  0.9097  0.1352  0.0155
16847TIP3    H271957   0.849   2.125   2.809 -0.8147 -0.7982  0.9678
16848TIP3   OH271958   2.751   3.211  12.999 -0.2398 -0.3096  0.6336
16848TIP3    H171959   2.657   3.210  12.984 -0.2012  1.6919  0.0563
16848TIP3    H271960   2.788   3.255  12.923  1.0740 -0.1463  1.3216
16849TIP3   OH271961   3.212   0.035  11.857  0.2693  0.1077 -0.1602
16849TIP3    H171962   3.198  -0.011  11.774 -0.4659  0.0416 -0.0080
16849TIP3    H271963   3.186   0.125  11.839  0.7346  0.2395 -0.1789
16850TIP3   OH271964   4.305   6.369  13.832 -0.0834 -0.3679 -0.0223
16850TIP3    H171965   4.261   6.397  13.752  0.3849 -1.2221 -0.5932
16850TIP3    H271966   4.234   6.340  13.890 -0.4106  0.1353 -0.1645
16851TIP3   OH271967   5.282   4.370   3.999  0.3102 -0.1910 -0.4037
16851TIP3    H171968   5.223   4.372   4.074 -1.8181  0.2287 -2.0219
16851TIP3    H271969   5.294   4.462   3.974  0.7778 -0.3422 -0.7695
16852TIP3   OH271970   2.621   2.711  13.056 -0.4652 -0.2480 -0.0774
16852TIP3    H171971   2.579   2.631  13.025  0.0121 -0.5351  0.0008
16852TIP3    H271972   2.552   2.758  13.102 -0.3025 -1.5211  1.5645
16853TIP3   OH271973   5.257   5.598   5.360 -0.4958 -0.0968  0.1416
16853TIP3    H171974   5.206   5.547   5.423 -0.0069 -0.1977  0.4619
16853TIP3    H271975   5.307   5.660   5.413  0.3377 -0.5493 -0.0888
16854TIP3   OH271976   5.358   6.643  14.102  0.3213 -0.2050 -0.0006
16854TIP3    H171977   5.391   6.553  14.107 -1.3811 -0.8947 -0.4690
16854TIP3    H271978   5.436   6.697  14.111  1.8721 -1.7276 -2.9357
16855TIP3   OH271979   0.712   6.368   2.948  0.7150  0.5862 -0.3690
16855TIP3    H171980   0.770   6.300   2.915  0.4442  1.1913 -2.2347
16855TIP3    H271981   0.754   6.450   2.923  0.9351  1.1441  1.6543
16856TIP3   OH271982   5.145   2.456   2.922  0.1797  0.0802 -0.0589
16856TIP3    H171983   5.125   2.395   2.994 -1.5587 -1.5754 -1.8132
16856TIP3    H271984   5.211   2.410   2.870 -0.7649 -0.1083 -1.1145
16857TIP3   OH271985   5.016   1.232   6.505  0.3710  0.2814  0.1761
16857TIP3    H171986   5.048   1.241   6.595  2.0878 -0.0271 -0.3736
16857TIP3    H271987   5.033   1.141   6.482 -0.3921  0.2618 -0.3589
16858TIP3   OH271988   4.934   5.557   5.096 -0.1391  0.5541 -0.2897
16858TIP3    H171989   5.011   5.606   5.066  0.4719  0.6833  1.3911
16858TIP3    H271990   4.956   5.465   5.079 -0.3772  0.6991 -1.4501
16859TIP3   OH271991   2.735   0.565   6.223  0.0039  0.4721 -0.0473
16859TIP3    H171992   2.657   0.618   6.205 -0.6407 -0.5389 -0.3375
16859TIP3    H271993   2.717   0.524   6.308 -0.1602 -0.3984 -0.4869
16860TIP3   OH271994   3.408   4.907  14.508 -0.0159 -0.2261 -0.2498
16860TIP3    H171995   3.466   4.983  14.518  0.1501 -0.3512 -0.2626
16860TIP3    H271996   3.321   4.940  14.531 -0.1085  0.2087 -1.2048
16861TIP3   OH271997   5.661   0.427   6.853 -0.4304  0.2440  0.4877
16861TIP3    H171998   5.683   0.334   6.856 -0.7764  0.1214 -0.4167
16861TIP3    H271999   5.587   0.432   6.794 -1.1227  0.9759  1.3886
16862TIP3   OH272000   3.070   3.739   1.172  0.0727  0.5908 -0.8419
16862TIP3    H172001   3.071   3.643   1.175  2.2237  0.6006  0.4097
16862TIP3    H272002   3.085   3.761   1.080  1.2318 -0.2903 -0.8767
16863TIP3   OH272003   2.249   3.050  14.986 -0.2262 -0.3699 -0.0737
16863TIP3    H172004   2.165   3.077  14.948  0.2494 -0.6025 -1.3444
16863TIP3    H272005   2.232   2.963  15.023 -0.5706 -0.3696 -0.2293
16864TIP3   OH272006   2.690   4.188  16.790  0.2489 -0.0676 -0.7161
16864TIP3    H172007   2.698   4.104  16.835  1.2738  0.6837  0.5685
16864TIP3    H272008   2.640   4.243  16.850 -0.5184  0.2141 -1.5983
16865TIP3   OH272009   2.377   4.163   1.467  0.0498  0.2121  0.5834
16865TIP3    H172010   2.346   4.097   1.529 -0.2764 -1.4447 -1.2593
16865TIP3    H272011   2.308   4.170   1.402  0.7254  1.3154 -0.0576
16866TIP3   OH272012   6.290   6.424  17.259 -0.1108  0.1571 -0.0882
16866TIP3    H172013   6.197   6.432  17.279  0.2927  1.4526  1.4540
16866TIP3    H272014   6.317   6.511  17.232  1.0748  0.3269  1.5171
16867TIP3   OH272015   2.464   3.268  14.610 -0.0945 -0.2291 -0.2828
16867TIP3    H172016   2.523   3.200  14.642 -0.3363 -0.5350 -0.4785
16867TIP3    H272017   2.478   3.269  14.516 -2.1469 -2.0298 -0.6932
16868TIP3   OH272018   3.396   4.574  14.317 -0.2481 -0.0035  0.2758
16868TIP3    H172019   3.334   4.627  14.369  1.2464  1.5922  0.5071
16868TIP3    H272020   3.434   4.636  14.255 -1.0888 -1.6217 -1.9715
16869TIP3   OH272021   0.577   4.417   1.874  0.3330 -0.1358  0.0232
16869TIP3    H172022   0.482   4.430   1.876  0.3896  0.3461 -0.2915
16869TIP3    H272023   0.592   4.340   1.929 -0.2491 -0.2631  0.0103
16870TIP3   OH272024   5.203   2.324  13.365 -0.1280  0.2878 -0.5029
16870TIP3    H172025   5.284   2.274  13.378 -0.6463 -0.1762  1.2520
16870TIP3    H272026   5.143   2.262  13.325 -0.1592  0.0973 -0.1626
16871TIP3   OH272027   1.262   0.675   1.472  0.1649  0.0706  0.1385
16871TIP3    H172028   1.334   0.613   1.488  0.3766 -0.1627 -1.5002
16871TIP3    H272029   1.299   0.761   1.494  1.1813  0.0203 -1.2287
16872TIP3   OH272030   3.233   3.198  14.888  0.1313 -0.5018  0.2401
16872TIP3    H172031   3.184   3.273  14.923  1.0154  0.2959 -0.1652
16872TIP3    H272032   3.285   3.236  14.816 -2.3036 -2.1998 -2.6168
16873TIP3   OH272033   5.311   5.815  13.118 -0.1405 -0.1574 -0.6102
16873TIP3    H172034   5.348   5.728  13.132 -1.0425 -0.5362 -0.5395
16873TIP3    H272035   5.266   5.836  13.200  2.4719  1.6299  0.5177
16874TIP3   OH272036   1.718   0.968  16.095 -0.6597 -0.4156 -0.2115
16874TIP3    H172037   1.757   1.014  16.169 -0.9666 -1.5172  0.6622
16874TIP3    H272038   1.667   1.036  16.050 -1.5856  0.0069  1.3787
16875TIP3   OH272039   5.030   5.954   5.804 -0.1486 -0.1040  0.2467
16875TIP3    H172040   4.997   5.921   5.721 -0.6626 -0.3765  0.5565
16875TIP3    H272041   4.958   6.007   5.840  1.1354  2.6155 -0.9116
16876TIP3   OH272042   4.334   4.115   1.632 -0.2206 -0.6048 -0.6760
16876TIP3    H172043   4.309   4.169   1.708 -0.4459 -2.2421  0.4831
16876TIP3    H272044   4.251   4.075   1.604  0.0534 -0.9379 -1.0118
16877TIP3   OH272045   1.949   1.081  12.800  0.1262 -0.4242 -0.0391
16877TIP3    H172046   1.898   1.158  12.824 -0.2222 -0.4518 -0.6452
16877TIP3    H272047   2.040   1.106  12.816 -0.0146 -0.0474  0.1908
16878TIP3   OH272048   6.746   5.150  12.807  0.1274 -0.0302  0.5169
16878TIP3    H172049   6.712   5.070  12.847 -0.4633  0.8895  1.9544
16878TIP3    H272050   6.769   5.205  12.881  0.5259  1.1351 -0.4441
16879TIP3   OH272051   0.837   4.035  13.936  0.1349  0.4487  0.2167
16879TIP3    H172052   0.902   3.993  13.992  0.7661  0.6844 -0.3225
16879TIP3    H272053   0.769   4.067  13.996  0.7830  0.6719  0.8380
16880TIP3   OH272054   2.059   3.307   5.015 -0.0957 -0.4841  0.5479
16880TIP3    H172055   2.016   3.233   4.971 -1.3560 -0.3419  1.4989
16880TIP3    H272056   2.015   3.314   5.099 -1.3485  2.5652 -0.2485
16881TIP3   OH272057   2.283   2.907   5.248  0.4469 -0.5161  0.2020
16881TIP3    H172058   2.268   2.903   5.342  0.4144  0.7704  0.2703
16881TIP3    H272059   2.378   2.911   5.238  0.4549 -0.7657  0.1709
16882TIP3   OH272060   4.232   4.472   5.096  0.1125  0.2646 -0.1307
16882TIP3    H172061   4.227   4.388   5.052  1.7123  0.5631 -0.9596
16882TIP3    H272062   4.279   4.529   5.035 -3.1062  2.5606 -0.7689
16883TIP3   OH272063   1.205   3.506  11.631 -0.5171 -0.4039  0.0236
16883TIP3    H172064   1.244   3.593  11.621 -0.3575 -0.4640  0.1110
16883TIP3    H272065   1.122   3.511  11.584 -0.6153 -0.1338  0.2190
16884TIP3   OH272066   6.666   5.649  13.815  0.2022 -0.1149  0.2449
16884TIP3    H172067   6.755   5.670  13.844 -0.2370  0.7759  0.9939
16884TIP3    H272068   6.677   5.621  13.724  1.0009  2.4500 -0.5604
16885TIP3   OH272069   1.194   0.853  11.393 -0.2255  0.1969 -0.3806
16885TIP3    H172070   1.281   0.815  11.406 -0.1911  0.5414  0.4624
16885TIP3    H272071   1.135   0.795  11.441 -0.2732  0.7410  0.2360
16886TIP3   OH272072   3.804   4.613   4.915  0.3963 -0.1268  0.0600
16886TIP3    H172073   3.758   4.614   4.999 -0.9576 -1.2103 -0.6287
16886TIP3    H272074   3.895   4.630   4.938 -0.3679  2.6992  1.4260
16887TIP3   OH272075   1.024   4.725  12.265  0.0644 -0.1214 -0.4464
16887TIP3    H172076   1.026   4.791  12.196  0.1683  0.3153 -0.0382
16887TIP3    H272077   0.994   4.773  12.343  2.5506  0.0688  0.4844
16888TIP3   OH272078   5.749   0.155   5.457 -0.0653 -0.3426  0.2074
16888TIP3    H172079   5.717   0.244   5.441 -1.0478 -0.8304 -0.5999
16888TIP3    H272080   5.821   0.167   5.520 -0.1257  1.0246  0.0511
16889TIP3   OH272081   0.578   3.782  14.518 -0.5800 -0.1532 -0.1962
16889TIP3    H172082   0.501   3.834  14.536  1.2074  3.1067 -1.1541
16889TIP3    H272083   0.595   3.735  14.600 -1.6386  1.7367  1.1847
16890TIP3   OH272084   5.946   6.629  12.350 -0.2048  0.1537 -0.3697
16890TIP3    H172085   5.931   6.679  12.429 -0.1804  0.5374 -0.6065
16890TIP3    H272086   6.014   6.677  12.302 -0.0522 -0.1981 -0.5135
16891TIP3   OH272087   3.527   2.571  13.382 -0.5983  0.1335 -0.5220
16891TIP3    H172088   3.451   2.587  13.327 -0.1650  4.1645 -0.2559
16891TIP3    H272089   3.493   2.522  13.457 -3.2691  2.5704  0.0465
16892TIP3   OH272090   0.331   5.826  11.988  0.1860  0.3222 -0.2907
16892TIP3    H172091   0.318   5.764  12.060  0.4728  0.7183  0.1047
16892TIP3    H272092   0.319   5.912  12.028 -0.5856  0.5131 -0.9204
16893TIP3   OH272093   4.227   4.739  13.922 -0.3537 -0.4626  0.3020
16893TIP3    H172094   4.321   4.750  13.931 -0.0650 -2.3507  0.0416
16893TIP3    H272095   4.200   4.807  13.860  0.4835  1.3013  1.7621
16894TIP3   OH272096   6.492   2.474  15.616  0.4688 -0.3142 -0.5902
16894TIP3    H172097   6.404   2.511  15.623  0.9566  1.3303 -2.3922
16894TIP3    H272098   6.490   2.398  15.674 -1.1627  1.4832  1.9278
16895TIP3   OH272099   3.988   4.233   3.328 -0.1792  1.2660 -0.1869
16895TIP3    H172100   3.918   4.241   3.263  1.3022 -0.4340 -2.1309
16895TIP3    H272101   3.944   4.243   3.412 -2.9821 -0.6274 -1.2760
16896TIP3   OH272102   4.648   5.615   1.462 -0.9211  0.1016  0.1912
16896TIP3    H172103   4.684   5.526   1.459 -0.1556  0.3796  0.7068
16896TIP3    H272104   4.703   5.664   1.401 -0.2061  0.5979  1.2070
16897TIP3   OH272105   0.876   5.910   2.916 -0.2590  0.2307  0.1588
16897TIP3    H172106   0.885   5.994   2.872 -0.4140 -0.0504 -0.4283
16897TIP3    H272107   0.853   5.932   3.006  0.4483  0.8241  0.2008
16898TIP3   OH272108   3.872   1.236  12.570  0.5276 -0.0406  0.2672
16898TIP3    H172109   3.827   1.152  12.570 -0.0258  0.2329 -0.4993
16898TIP3    H272110   3.844   1.279  12.650  0.4801 -0.4154  0.4523
16899TIP3   OH272111   2.112   5.789   0.564  0.0970 -0.0962  0.1713
16899TIP3    H172112   2.128   5.706   0.517  1.0238 -0.1844  0.6183
16899TIP3    H272113   2.038   5.770   0.622 -1.0196 -0.0135 -1.1660
16900TIP3   OH272114   1.676   0.259  12.698 -0.2132 -0.3963 -0.0119
16900TIP3    H172115   1.585   0.252  12.669 -0.5761 -1.2711  1.2503
16900TIP3    H272116   1.679   0.208  12.779  1.5460 -0.9025 -0.3527
16901TIP3   OH272117   6.010   4.139   3.822  0.0099  0.6822  0.1649
16901TIP3    H172118   6.080   4.198   3.793  0.5923  0.8863  1.8528
16901TIP3    H272119   5.945   4.197   3.862  0.4653  0.2387  1.6020
16902TIP3   OH272120   0.320   2.105  13.017 -0.1044 -0.0853  0.2018
16902TIP3    H172121   0.366   2.083  13.098 -1.2136 -0.6780  0.6999
16902TIP3    H272122   0.273   2.025  12.993  1.1641 -0.3152 -1.7337
16903TIP3   OH272123   3.517   2.575   3.140  0.1852 -0.3988 -1.0221
16903TIP3    H172124   3.560   2.520   3.206 -1.9008 -1.1143 -0.1600
16903TIP3    H272125   3.523   2.525   3.059  1.9490  0.0595 -1.2133
16904TIP3   OH272126   0.942   3.163  12.213 -0.1292  0.3905  0.1213
16904TIP3    H172127   0.956   3.245  12.260 -0.8878  0.5332  0.1131
16904TIP3    H272128   1.016   3.158  12.152  0.8292  0.2250  1.2632
16905TIP3   OH272129   1.272   1.653   1.234 -0.2841  0.1438  0.0584
16905TIP3    H172130   1.241   1.658   1.143 -0.1554 -2.0686 -0.1564
16905TIP3    H272131   1.367   1.663   1.228 -0.3920  1.2594  0.1008
16906TIP3   OH272132   4.071   6.154  16.207  0.3282 -0.2044  0.3911
16906TIP3    H172133   4.120   6.079  16.241  0.2533 -0.3391  0.2026
16906TIP3    H272134   3.987   6.117  16.179  0.8760 -0.3565 -1.1753
16907TIP3   OH272135   5.873   0.489   0.327  0.2277 -0.0952  0.3459
16907TIP3    H172136   5.916   0.555   0.381  0.3296  0.5467 -0.4974
16907TIP3    H272137   5.780   0.495   0.350 -0.1954  2.2133 -1.5601
16908TIP3   OH272138   5.403   1.984   1.482  0.2045 -0.3795  0.1407
16908TIP3    H172139   5.346   1.908   1.468  0.9946 -1.7334  3.2837
16908TIP3    H272140   5.430   1.977   1.574  1.0067  3.2943  0.3544
16909TIP3   OH272141   0.073   4.741   5.603  0.3146 -0.0177  0.0274
16909TIP3    H172142   0.062   4.798   5.680  0.9878  0.1610  0.0001
16909TIP3    H272143   0.013   4.669   5.618 -0.8827  0.9201 -0.1448
16910TIP3   OH272144   3.062   4.998  12.184 -0.0060 -0.7436 -0.1289
16910TIP3    H172145   3.098   4.909  12.187 -0.4311 -0.9527 -0.9656
16910TIP3    H272146   3.070   5.023  12.092 -0.8074 -0.2969 -0.0835
16911TIP3   OH272147   0.222   1.882  12.901  0.5685 -0.5417  0.0070
16911TIP3    H172148   0.308   1.844  12.884  0.4792 -0.3758 -0.8904
16911TIP3    H272149   0.188   1.903  12.814  0.1334  0.5184  0.4205
16912TIP3   OH272150   3.869   3.550  11.520  0.2764  0.2015 -0.0915
16912TIP3    H172151   3.786   3.515  11.487  0.8794 -0.7004 -0.6965
16912TIP3    H272152   3.859   3.645  11.513 -0.6461  0.0988 -0.3106
16913TIP3   OH272153   0.874   0.124   2.393  0.2157 -0.2704 -0.4462
16913TIP3    H172154   0.800   0.090   2.442  1.0342 -1.7587 -0.1852
16913TIP3    H272155   0.917   0.047   2.356 -0.3325  0.7729 -3.5592
16914TIP3   OH272156   6.537   5.043  14.303 -0.8589  0.0344  0.4790
16914TIP3    H172157   6.480   4.987  14.355 -2.1254  1.5512  0.7791
16914TIP3    H272158   6.492   5.128  14.300  0.5976  0.8128 -0.6441
16915TIP3   OH272159   2.834   5.615  11.996  0.6122 -0.0977  0.0668
16915TIP3    H172160   2.873   5.568  11.923 -0.2474 -0.5722 -0.0932
16915TIP3    H272161   2.844   5.556  12.071  3.4138  1.2159  0.8907
16916TIP3   OH272162   3.188   3.570  16.912 -0.1817 -0.4834 -0.8709
16916TIP3    H172163   3.149   3.641  16.964 -0.2055 -2.2329  1.6450
16916TIP3    H272164   3.117   3.542  16.854 -0.5598  0.6701 -1.0049
16917TIP3   OH272165   1.733   0.555  10.711 -0.5964 -0.1851 -0.2009
16917TIP3    H172166   1.809   0.613  10.723 -0.5007 -0.6741  1.7401
16917TIP3    H272167   1.658   0.615  10.708 -0.4279  0.1147  1.0700
16918TIP3   OH272168   6.172   6.107  15.174 -0.0522 -0.1693 -0.1861
16918TIP3    H172169   6.215   6.186  15.142 -0.5102  0.3299  0.4111
16918TIP3    H272170   6.159   6.053  15.096  1.8194 -0.4281 -0.3683
16919TIP3   OH272171   4.572   2.308   6.496 -0.3864  0.6055  0.1893
16919TIP3    H172172   4.611   2.223   6.515  0.1780  1.0521  1.0615
16919TIP3    H272173   4.484   2.303   6.533 -0.2051  0.5457  0.6190
16920TIP3   OH272174   6.620   5.737   2.749 -0.3445  0.5807  0.0132
16920TIP3    H172175   6.543   5.790   2.769 -0.3607  0.0578  1.4999
16920TIP3    H272176   6.604   5.654   2.794  1.4097  0.7337  1.0044
16921TIP3   OH272177   0.485   3.370   3.399 -0.4248 -0.5669  0.2513
16921TIP3    H172178   0.496   3.459   3.431 -3.3660 -1.1401  3.5653
16921TIP3    H272179   0.423   3.378   3.326  0.2977  0.1778 -0.2897
16922TIP3   OH272180   0.921   4.599  16.873 -0.3472  0.2915  0.1273
16922TIP3    H172181   0.955   4.514  16.844 -1.8253 -1.1878  2.4407
16922TIP3    H272182   0.968   4.662  16.818  0.1244 -2.0083 -2.3816
16923TIP3   OH272183   6.506   0.374  11.197 -0.0522  0.2923 -0.3363
16923TIP3    H172184   6.522   0.338  11.284 -2.8516 -1.9795 -0.6115
16923TIP3    H272185   6.590   0.367  11.152  0.5734 -1.9591  1.0384
16924TIP3   OH272186   1.919   0.673   3.800  0.0306 -0.1810 -0.5700
16924TIP3    H172187   1.877   0.620   3.868 -1.1075  1.8155  0.3779
16924TIP3    H272188   1.846   0.717   3.757  0.9748  1.0682 -0.9324
16925TIP3   OH272189   0.140   5.077  13.839  0.4440 -0.1765 -0.0196
16925TIP3    H172190   0.195   5.156  13.834 -0.5077  0.5164  0.1136
16925TIP3    H272191   0.087   5.090  13.918 -0.1216 -0.6860 -0.3091
16926TIP3   OH272192   5.474   1.814   2.988  0.1137 -0.3696 -0.8062
16926TIP3    H172193   5.388   1.853   2.971 -0.1762 -0.9923 -0.7854
16926TIP3    H272194   5.535   1.873   2.943 -0.2981  0.1891 -0.6575
16927TIP3   OH272195   3.874   0.623   0.766  0.5889  0.6818  0.1882
16927TIP3    H172196   3.870   0.656   0.855  2.0792  0.6992  0.2839
16927TIP3    H272197   3.784   0.625   0.735  0.4994  4.6630  0.2230
16928TIP3   OH272198   4.003   2.531  11.526 -0.0276 -0.4999  0.1879
16928TIP3    H172199   3.975   2.506  11.438  0.9788 -2.6048  0.3928
16928TIP3    H272200   3.934   2.498  11.584  0.6234 -1.6168  0.3582
16929TIP3   OH272201   3.853   3.693  11.994 -0.0142 -0.8243  0.1328
16929TIP3    H172202   3.899   3.714  11.912  0.4062 -0.6264  0.4141
16929TIP3    H272203   3.815   3.607  11.979 -1.4526 -0.0455 -0.9081
16930TIP3   OH272204   2.656   4.707  11.977  0.2717  0.2532  0.2953
16930TIP3    H172205   2.621   4.686  11.891  0.5804 -0.3588  0.3079
16930TIP3    H272206   2.730   4.646  11.988  0.9951  1.1479  0.4874
16931TIP3   OH272207   2.821   1.199  16.983 -0.2584  0.4035 -0.3890
16931TIP3    H172208   2.743   1.183  17.036  0.9848 -1.8317  0.8958
16931TIP3    H272209   2.848   1.288  17.007 -3.1080  1.8381 -1.9333
16932TIP3   OH272210   1.891   5.208   2.136  0.4255 -0.2337  0.0516
16932TIP3    H172211   1.882   5.299   2.164 -0.1826 -0.5685  0.9932
16932TIP3    H272212   1.972   5.177   2.177 -0.2500 -0.5998  1.1774
16933TIP3   OH272213   0.043   2.721  13.286 -0.1683 -0.2387 -0.4440
16933TIP3    H172214   0.114   2.672  13.245  0.2567  0.3082 -0.3745
16933TIP3    H272215   0.031   2.681  13.372  0.9064  0.4538  0.0473
16934TIP3   OH272216   0.731   2.662  16.476  0.6355  0.0766  0.3051
16934TIP3    H172217   0.783   2.717  16.417  0.3830  2.1395  1.8913
16934TIP3    H272218   0.678   2.724  16.527 -1.9207 -1.7962  0.1796
16935TIP3   OH272219   4.313   1.242   3.115 -0.1747  0.6502  0.3182
16935TIP3    H172220   4.396   1.288   3.126  0.0318  0.2446  0.5002
16935TIP3    H272221   4.313   1.213   3.024 -0.5739  1.5087  0.0309
16936TIP3   OH272222   3.446   5.048   4.884 -0.5409 -0.4611  0.5460
16936TIP3    H172223   3.377   5.018   4.943 -1.2284 -1.5583 -0.7788
16936TIP3    H272224   3.400   5.075   4.804  0.5447 -1.1733 -0.3525
16937TIP3   OH272225   1.334   1.788   3.363  0.5723 -0.6086  0.4050
16937TIP3    H172226   1.398   1.859   3.374 -0.4950  0.6001 -0.7191
16937TIP3    H272227   1.382   1.719   3.318  0.9915  0.5183 -0.9806
16938TIP3   OH272228   3.773   4.755   4.686  0.2035 -0.1603  0.2992
16938TIP3    H172229   3.769   4.722   4.776  1.0378 -0.6933  0.1536
16938TIP3    H272230   3.858   4.724   4.653  0.6923  1.4994 -0.0896
16939TIP3   OH272231   0.586   0.561   1.376  0.0315  0.3604  0.3341
16939TIP3    H172232   0.552   0.651   1.380  1.7850  1.0375  3.2257
16939TIP3    H272233   0.663   0.567   1.320 -0.6420  0.3122 -0.6222
16940TIP3   OH272234   0.485   1.038  14.020 -0.3455 -0.0409 -0.3159
16940TIP3    H172235   0.393   1.044  13.996 -0.5971 -1.3678  0.1853
16940TIP3    H272236   0.503   1.119  14.067 -1.0062  0.6320 -1.2089
16941TIP3   OH272237   1.227   1.395  17.253 -0.0316 -0.0541 -0.2648
16941TIP3    H172238   1.320   1.409  17.232 -0.2102 -0.9852 -1.8981
16941TIP3    H272239   1.180   1.435  17.180 -0.8012 -1.5941 -0.6737
16942TIP3   OH272240   2.216   6.536  13.983  0.3624  0.4371  0.3634
16942TIP3    H172241   2.272   6.540  14.061  1.4599  2.9285 -0.4517
16942TIP3    H272242   2.276   6.515  13.912 -0.2030  0.5737 -0.1606
16943TIP3   OH272243   3.315   6.573  15.510 -0.5015 -0.2065 -0.2174
16943TIP3    H172244   3.401   6.578  15.468 -0.0015 -0.3401  0.7835
16943TIP3    H272245   3.333   6.549  15.601 -1.6918 -1.6974 -0.3414
16944TIP3   OH272246   2.630   3.812   0.097 -0.5338 -0.1978  0.5411
16944TIP3    H172247   2.594   3.810   0.185  0.0695 -0.2647  0.7876
16944TIP3    H272248   2.581   3.882   0.053 -1.1492 -0.4600  0.7844
16945TIP3   OH272249   4.808   6.569  15.153  0.0212 -0.3155  0.2243
16945TIP3    H172250   4.884   6.585  15.098  0.4669  2.9431  1.5755
16945TIP3    H272251   4.835   6.598  15.240 -2.4093 -0.0376  0.9520
16946TIP3   OH272252   2.255   6.412   0.874  0.0923 -0.4505 -0.0544
16946TIP3    H172253   2.273   6.438   0.784  1.1788  1.3620  0.6508
16946TIP3    H272254   2.164   6.380   0.872  0.2735 -0.9454 -1.8590
16947TIP3   OH272255   4.867   2.370  11.982 -0.4332 -0.2998  0.0728
16947TIP3    H172256   4.953   2.406  12.006 -0.6307  0.2340 -0.0111
16947TIP3    H272257   4.877   2.343  11.891  0.0680 -1.5554  0.4863
16948TIP3   OH272258   2.459   0.297  12.338 -0.0388  0.1154 -0.4225
16948TIP3    H172259   2.382   0.283  12.392 -2.1434  0.9517 -2.9696
16948TIP3    H272260   2.472   0.215  12.291  1.5571 -0.4938  0.9848
16949TIP3   OH272261   2.845   3.968   0.599  0.6763 -0.2792 -0.1225
16949TIP3    H172262   2.808   4.051   0.569 -0.0962  0.3079  2.2276
16949TIP3    H272263   2.911   3.994   0.664  1.3519 -1.4827 -0.3085
16950TIP3   OH272264   6.017   3.002   1.342  0.2495  0.0169  0.1596
16950TIP3    H172265   5.982   2.937   1.280 -0.7410 -0.0759  0.7986
16950TIP3    H272266   6.112   2.996   1.331  0.1314 -0.7537 -0.5887
16951TIP3   OH272267   2.236   4.549   1.168 -0.1540  0.1378 -0.0639
16951TIP3    H172268   2.191   4.529   1.250 -0.7789 -0.9330 -0.6293
16951TIP3    H272269   2.313   4.599   1.193  1.9302 -3.5342  1.6559
16952TIP3   OH272270   5.798   3.976   3.277  0.7262 -0.5084  0.2464
16952TIP3    H172271   5.879   4.007   3.317  1.1760 -0.2366 -0.8493
16952TIP3    H272272   5.734   3.978   3.348  0.3471  4.1961  0.1097
16953TIP3   OH272273   5.400   1.881  11.163  0.4444  0.6652  0.0877
16953TIP3    H172274   5.409   1.976  11.174  3.1372  0.8816 -2.6969
16953TIP3    H272275   5.472   1.844  11.215 -0.7087  0.0531  1.3188
16954TIP3   OH272276   2.745   5.788  12.934 -0.3717 -0.2558 -0.0629
16954TIP3    H172277   2.725   5.699  12.903 -3.1202 -0.2282  1.3498
16954TIP3    H272278   2.806   5.774  13.007 -0.3596 -0.9336 -0.1901
16955TIP3   OH272279   4.976   2.701   1.340 -0.1081 -0.5204  0.1079
16955TIP3    H172280   4.927   2.696   1.423 -0.3430  0.2326  0.0222
16955TIP3    H272281   4.977   2.794   1.319 -0.3109 -0.7344 -0.8931
16956TIP3   OH272282   5.367   3.695   3.015 -0.3695 -0.2656 -0.2232
16956TIP3    H172283   5.290   3.719   3.066 -0.4118 -2.1738  0.6902
16956TIP3    H272284   5.395   3.611   3.051 -0.1758 -1.5621 -3.1068
16957TIP3   OH272285   4.739   1.319   0.387  0.9211 -0.0819 -0.4712
16957TIP3    H172286   4.773   1.355   0.469 -2.9746  0.0906  1.3163
16957TIP3    H272287   4.746   1.391   0.325  1.4482  0.7280  0.4932
16958TIP3   OH272288   4.800   2.437  15.383  0.7185  0.0254 -0.3022
16958TIP3    H172289   4.758   2.461  15.467  0.1956 -0.8381 -0.3062
16958TIP3    H272290   4.864   2.370  15.407  1.9043  1.0932 -0.3500
16959TIP3   OH272291   5.436   6.186  13.128  0.1363 -0.3640  0.6568
16959TIP3    H172292   5.460   6.278  13.113  0.5933 -0.3514  1.4367
16959TIP3    H272293   5.519   6.139  13.128 -0.1926 -1.0524 -1.3694
16960TIP3   OH272294   4.437   5.680  11.360 -0.0460  0.0211  0.3875
16960TIP3    H172295   4.521   5.650  11.327  0.0388 -0.3005  0.8904
16960TIP3    H272296   4.374   5.613  11.331 -0.3609  0.9211 -1.1309
16961TIP3   OH272297   2.055   4.211   5.264 -0.3921 -0.0398 -0.3480
16961TIP3    H172298   2.029   4.303   5.273 -0.6569  0.2297 -3.0211
16961TIP3    H272299   2.150   4.214   5.254 -0.2697 -0.1809  0.7369
16962TIP3   OH272300   1.736   1.959  14.419  0.6292  0.0910 -0.1255
16962TIP3    H172301   1.723   1.888  14.356 -0.8918 -0.6130  0.9172
16962TIP3    H272302   1.664   2.020  14.401  0.7657  0.3740  0.2816
16963TIP3   OH272303   3.306   2.018   5.216  0.0427 -0.6337 -0.5447
16963TIP3    H172304   3.287   2.089   5.155  1.8881  1.9420  1.6019
16963TIP3    H272305   3.401   2.021   5.227 -0.0437 -2.1153  1.1250
16964TIP3   OH272306   0.386   4.575  11.209 -0.1707 -0.7049 -0.2843
16964TIP3    H172307   0.468   4.623  11.216  0.8801 -2.4700  0.3864
16964TIP3    H272308   0.409   4.486  11.237 -2.1799 -1.3945 -0.6936
16965TIP3   OH272309   1.160   5.142  15.943  0.2956  0.2599 -0.7571
16965TIP3    H172310   1.174   5.098  15.859 -0.7666  1.6169 -1.6829
16965TIP3    H272311   1.071   5.177  15.938  0.3436  0.6804  0.7896
16966TIP3   OH272312   6.686   3.984  16.765  0.0211 -0.8113 -0.2819
16966TIP3    H172313   6.661   4.070  16.731  0.3473 -0.2402  0.8630
16966TIP3    H272314   6.604   3.937  16.777 -0.1389 -0.7808 -1.2052
16967TIP3   OH272315   2.065   3.614  12.006 -0.6590  0.0869  0.5127
16967TIP3    H172316   2.126   3.652  12.069  0.0493  1.3439 -0.8468
16967TIP3    H272317   2.106   3.531  11.980 -0.5450 -0.0407  1.1018
16968TIP3   OH272318   3.617   3.836   1.818 -0.1346  0.5239  0.2866
16968TIP3    H172319   3.551   3.854   1.752  1.6761  1.5793 -1.3326
16968TIP3    H272320   3.674   3.913   1.817  1.9546 -0.9355  0.5422
16969TIP3   OH272321   2.272   5.791  13.269  0.7615  0.9368 -0.2856
16969TIP3    H172322   2.261   5.709  13.219  2.5622  0.2352  0.3981
16969TIP3    H272323   2.327   5.767  13.343 -0.0138  2.4558  0.8278
16970TIP3   OH272324   3.666   6.561   4.117 -0.4935  0.4483  0.0519
16970TIP3    H172325   3.710   6.477   4.103  0.3027  1.0200 -1.0063
16970TIP3    H272326   3.608   6.570   4.042 -1.1708  0.4859  0.5748
16971TIP3   OH272327   4.587   4.267   1.400  0.0593  0.0020  0.4518
16971TIP3    H172328   4.618   4.315   1.477 -2.1343 -1.5718  2.4428
16971TIP3    H272329   4.499   4.301   1.384 -0.9991 -2.3094  1.0581
16972TIP3   OH272330   2.163   4.101  16.764  0.2474  0.5034  0.2539
16972TIP3    H172331   2.174   4.007  16.753  0.6194  0.7095 -1.4536
16972TIP3    H272332   2.220   4.124  16.838 -1.7250 -0.9346  2.3422
16973TIP3   OH272333   5.506   2.853  11.444  0.4764  0.3612 -0.3473
16973TIP3    H172334   5.538   2.941  11.462  1.4670  0.1968 -1.2044
16973TIP3    H272335   5.578   2.810  11.397  0.2233 -1.0650  0.4948
16974TIP3   OH272336   3.595   3.741   2.547 -0.4727  0.1320 -0.3525
16974TIP3    H172337   3.635   3.672   2.494  0.4571  1.4881 -1.4978
16974TIP3    H272338   3.501   3.730   2.535 -0.2920 -0.0231 -1.7712
16975TIP3   OH272339   4.976   0.325  17.371 -0.1074 -0.2388  0.0464
16975TIP3    H172340   4.910   0.273  17.416 -0.0980 -0.1160  0.2048
16975TIP3    H272341   4.926   0.393  17.324 -0.2324 -1.2301 -1.3181
16976TIP3   OH272342   4.532   1.473   1.672  0.2778  0.3172  0.5929
16976TIP3    H172343   4.515   1.395   1.726  0.9389  0.5635  1.1722
16976TIP3    H272344   4.551   1.438   1.585 -0.4652 -0.1052  0.5922
16977TIP3   OH272345   6.315   4.473   1.307  0.0859  0.0727 -0.3076
16977TIP3    H172346   6.246   4.426   1.260 -0.5129  1.1932 -0.5622
16977TIP3    H272347   6.367   4.515   1.239  0.2502  0.2882 -0.0529
16978TIP3   OH272348   4.148   3.722   1.081  0.1868  0.3100 -0.3045
16978TIP3    H172349   4.161   3.628   1.091 -1.1420  0.0048 -1.3122
16978TIP3    H272350   4.154   3.756   1.171  1.6990 -0.5654 -0.0354
16979TIP3   OH272351   1.352   1.422  12.568 -0.0747  0.0281  0.3147
16979TIP3    H172352   1.340   1.512  12.597  1.0261 -0.0512  1.0708
16979TIP3    H272353   1.278   1.374  12.606  0.6727  0.1630  2.0124
16980TIP3   OH272354   0.462   1.385  10.449  0.5492 -0.7491  0.2421
16980TIP3    H172355   0.526   1.455  10.438 -0.0464 -0.2670 -0.1955
16980TIP3    H272356   0.506   1.321  10.505  0.2303  1.0702  2.7287
16981TIP3   OH272357   3.322   5.840  16.011  0.1437  0.1394  0.3020
16981TIP3    H172358   3.391   5.844  15.945 -0.0048  0.3976  0.1620
16981TIP3    H272359   3.364   5.797  16.086  1.1981  2.4202  1.1148
16982TIP3   OH272360   6.419   0.888   4.824  0.0687 -0.0564  0.1958
16982TIP3    H172361   6.336   0.867   4.868 -0.8360  2.4312 -0.1932
16982TIP3    H272362   6.428   0.982   4.833  2.4812 -0.1567 -0.5233
16983TIP3   OH272363   0.115   6.396  16.115 -0.3885 -0.0261  0.1211
16983TIP3    H172364   0.194   6.408  16.062  0.0797 -1.7634  0.3543
16983TIP3    H272365   0.115   6.303  16.136 -1.1660  0.4096  2.2402
16984TIP3   OH272366   0.044   2.277  16.477 -0.4126 -0.6306 -0.4685
16984TIP3    H172367   0.088   2.358  16.502 -0.8218 -0.7173  0.5970
16984TIP3    H272368   0.115   2.214  16.462 -0.1260 -0.3924 -0.1267
16985TIP3   OH272369   5.171   1.943  13.514  0.1411  0.1694  0.2466
16985TIP3    H172370   5.111   1.952  13.588 -1.4640  0.8478 -1.0994
16985TIP3    H272371   5.163   1.851  13.488  0.1141  0.1265  0.4038
16986TIP3   OH272372   1.635   0.920   5.550 -0.0237  0.0224 -0.3569
16986TIP3    H172373   1.663   0.832   5.527  0.4843  0.1583 -0.2537
16986TIP3    H272374   1.553   0.907   5.599 -0.0892 -0.3728 -0.5755
16987TIP3   OH272375   1.197   3.466   5.163 -0.4008 -0.6103  0.0688
16987TIP3    H172376   1.124   3.444   5.221 -0.5285 -1.4318 -0.3901
16987TIP3    H272377   1.240   3.541   5.206 -1.7391  0.1477  0.1312
16988TIP3   OH272378   3.146   4.950   6.705 -0.2545  0.0379 -0.0232
16988TIP3    H172379   3.231   4.965   6.745 -1.3823  0.9600  2.1859
16988TIP3    H272380   3.152   4.991   6.619  1.3452  0.5200  0.2903
16989TIP3   OH272381   5.585   4.480  15.978 -0.0590 -0.0624  0.0275
16989TIP3    H172382   5.680   4.472  15.980  0.3645  2.9336  3.1882
16989TIP3    H272383   5.566   4.536  15.903  1.0643  1.6862  0.9971
16990TIP3   OH272384   5.606   0.166   3.118 -0.0845 -0.2654  0.3381
16990TIP3    H172385   5.665   0.121   3.178 -0.6394  0.0432  1.1266
16990TIP3    H272386   5.614   0.259   3.142 -1.2784 -0.2711  0.8167
16991TIP3   OH272387   2.139   3.110   4.788 -0.1890 -0.0381  0.1187
16991TIP3    H172388   2.205   3.043   4.770 -0.6949 -0.3206 -0.7492
16991TIP3    H272389   2.186   3.193   4.777  0.1636 -0.2407  0.0687
16992TIP3   OH272390   6.092   2.596   1.881  0.1445 -0.8004  0.2078
16992TIP3    H172391   6.138   2.516   1.905  0.5546 -0.0869  1.9176
16992TIP3    H272392   6.161   2.660   1.864 -0.1432 -1.0089 -2.1739
16993TIP3   OH272393   3.732   5.329   3.134 -0.0628  0.0256 -0.0930
16993TIP3    H172394   3.751   5.239   3.161  1.8161  0.3589 -0.1587
16993TIP3    H272395   3.639   5.341   3.154 -0.0782 -1.5520  0.9684
16994TIP3   OH272396   2.991   5.483  10.462 -0.1285 -0.0217 -0.3832
16994TIP3    H172397   2.896   5.490  10.447 -0.0675 -0.4878 -1.0378
16994TIP3    H272398   3.012   5.392  10.440  0.6641  0.3874 -1.3754
16995TIP3   OH272399   5.317   2.033   5.833  0.1017  0.0262 -0.0829
16995TIP3    H172400   5.262   2.097   5.787  0.2549  1.2115  1.2997
16995TIP3    H272401   5.407   2.062   5.814  0.2137 -0.6083 -0.5575
16996TIP3   OH272402   5.995   1.413  11.200 -0.0607  0.0867 -0.5714
16996TIP3    H172403   5.963   1.444  11.115  0.4133  0.2019 -0.7131
16996TIP3    H272404   6.090   1.429  11.197 -0.2119  1.3205  0.4930
16997TIP3   OH272405   2.703   0.263   3.438  0.3767  0.2196 -0.1353
16997TIP3    H172406   2.724   0.341   3.491 -1.7638  0.1945  0.8512
16997TIP3    H272407   2.619   0.284   3.398 -0.7998 -1.9854  1.0397
16998TIP3   OH272408   2.186   2.594   1.477 -0.1425  0.2212 -0.0922
16998TIP3    H172409   2.165   2.640   1.396 -0.9503 -0.2225 -0.1424
16998TIP3    H272410   2.157   2.504   1.462  1.3030 -0.2970  0.0449
16999TIP3   OH272411   4.289   4.748   1.712  0.2140  0.0501  0.0028
16999TIP3    H172412   4.295   4.697   1.631  1.5791  1.1319 -0.6304
16999TIP3    H272413   4.259   4.686   1.778 -2.0682 -0.6024 -1.5449
17000TIP3   OH272414   3.386   3.925  15.469  0.0525 -0.1913  0.3589
17000TIP3    H172415   3.471   3.952  15.433  0.6567 -0.3800  1.5868
17000TIP3    H272416   3.397   3.833  15.491 -0.2545 -0.0564  1.1154
17001TIP3   OH272417   2.362   1.456  12.508 -0.3441 -0.0839  0.4485
17001TIP3    H172418   2.422   1.464  12.434 -0.1547 -0.5376  0.5512
17001TIP3    H272419   2.419   1.446  12.585 -0.5410  0.2025  0.6339
17002TIP3   OH272420   4.315   3.039  13.365  0.4140 -0.0297 -0.1000
17002TIP3    H172421   4.324   2.965  13.425 -0.3073 -0.3233 -0.3359
17002TIP3    H272422   4.388   3.097  13.386  0.1784 -0.1338  1.0518
17003TIP3   OH272423   0.386   1.524  15.880  0.0463 -0.3024  0.3152
17003TIP3    H172424   0.307   1.477  15.853 -0.0149 -0.1901  0.3013
17003TIP3    H272425   0.408   1.487  15.965 -0.1150 -0.2180  0.3949
17004TIP3   OH272426   2.126   5.284  13.908  0.8116 -0.7666  0.6996
17004TIP3    H172427   2.147   5.296  14.000 -1.2479  1.3071  0.9898
17004TIP3    H272428   2.155   5.365  13.866  1.1705 -1.4360 -0.3985
17005TIP3   OH272429   6.619   3.468  14.629 -0.1553  0.6283 -0.5022
17005TIP3    H172430   6.709   3.444  14.651 -0.6408 -0.6112  0.2131
17005TIP3    H272431   6.603   3.429  14.543 -0.1868  0.3769 -0.3821
17006TIP3   OH272432   3.061   1.356  12.105 -0.2918 -0.1773  0.0479
17006TIP3    H172433   3.065   1.444  12.068 -0.9068  0.4003  1.2867
17006TIP3    H272434   3.009   1.306  12.042 -0.7746  0.6018 -0.1856
17007TIP3   OH272435   6.023   1.439   0.059  0.7775  0.1264  0.1231
17007TIP3    H172436   6.117   1.444   0.046  0.5079  0.0422 -2.2775
17007TIP3    H272437   5.997   1.526   0.090  1.6272  0.1172  0.8868
17008TIP3   OH272438   6.341   2.589   4.363  0.5616  0.1470 -0.1254
17008TIP3    H172439   6.425   2.571   4.321  0.3809  1.4711 -1.1061
17008TIP3    H272440   6.323   2.510   4.414  2.0238 -0.4712 -0.4959
17009TIP3   OH272441   5.727   3.895  14.619  0.3183 -0.0007  0.0356
17009TIP3    H172442   5.654   3.847  14.659 -1.3927  2.3064 -0.1754
17009TIP3    H272443   5.700   3.910  14.529  0.5536  1.7771  0.2321
17010TIP3   OH272444   3.408   3.644   4.634  0.4304 -0.5508  0.3047
17010TIP3    H172445   3.475   3.594   4.586 -1.1182 -1.1876 -1.2965
17010TIP3    H272446   3.366   3.579   4.690  0.6641 -0.3056  0.7663
17011TIP3   OH272447   5.861   5.371  15.698  0.2080  0.3462 -0.3372
17011TIP3    H172448   5.821   5.440  15.751 -0.2194 -0.3325  0.2470
17011TIP3    H272449   5.865   5.407  15.610  0.4285  1.2968  0.0509
17012TIP3   OH272450   1.895   5.882   6.917 -0.0583 -0.4446  0.3319
17012TIP3    H172451   1.930   5.906   6.831  0.2178 -0.5853  0.4046
17012TIP3    H272452   1.844   5.958   6.944  0.5915 -0.0335  0.4378
17013TIP3   OH272453   6.160   0.018   1.979 -0.1510 -0.1302  0.2166
17013TIP3    H172454   6.205  -0.021   1.904 -0.2529 -0.6839  0.4407
17013TIP3    H272455   6.217   0.001   2.054 -0.4608 -0.3461  0.4097
17014TIP3   OH272456   0.446   6.147  13.785  0.3115  0.1484 -0.6193
17014TIP3    H172457   0.506   6.221  13.774  0.6451  0.1340  0.9076
17014TIP3    H272458   0.479   6.101  13.862 -1.2810 -0.2423 -0.1333
17015TIP3   OH272459   6.191   1.908  14.184 -0.2223 -0.6236  0.2871
17015TIP3    H172460   6.242   1.851  14.126  0.3680  0.2568 -0.0792
17015TIP3    H272461   6.183   1.990  14.136 -1.0572 -0.3862  0.8111
17016TIP3   OH272462   4.939   6.672  14.596 -0.2627 -0.2682 -0.2221
17016TIP3    H172463   4.985   6.610  14.652  0.9029  1.5668  0.9640
17016TIP3    H272464   4.983   6.666  14.511 -2.9847 -4.1648 -1.6888
17017TIP3   OH272465   3.812   2.930   0.210 -0.6984 -0.0510 -0.0529
17017TIP3    H172466   3.788   2.891   0.294 -0.5633 -2.6392 -1.1197
17017TIP3    H272467   3.729   2.952   0.168 -0.8796 -0.9937 -0.2027
17018TIP3   OH272468   0.668   2.279  14.962  0.2794 -0.1467 -0.1237
17018TIP3    H172469   0.720   2.243  14.890  1.3516 -0.2688  0.6849
17018TIP3    H272470   0.730   2.333  15.012 -1.1759  2.4848 -1.0281
17019TIP3   OH272471   3.450   1.237  14.520  0.0145 -0.1501  0.3037
17019TIP3    H172472   3.448   1.259  14.427 -1.4470 -0.6681  0.1826
17019TIP3    H272473   3.530   1.278  14.553 -0.4895  1.8078 -0.7513
17020TIP3   OH272474   4.054   4.018   0.570  0.2091  0.3434  0.8130
17020TIP3    H172475   4.067   4.086   0.636  1.6783  0.0281  0.8826
17020TIP3    H272476   4.105   3.944   0.601  2.0563  0.6273 -1.3014
17021TIP3   OH272477   5.339   4.743   1.448 -0.5708  0.1596  0.0396
17021TIP3    H172478   5.374   4.731   1.360  0.1209  1.4314  0.1185
17021TIP3    H272479   5.263   4.685   1.452 -0.6466  0.1295 -1.3979
17022TIP3   OH272480   1.688   4.244   0.052  0.3244  0.0371  0.3278
17022TIP3    H172481   1.682   4.224  -0.041 -0.5226  0.7293  0.2136
17022TIP3    H272482   1.755   4.185   0.085  0.5494 -0.3077 -0.6942
17023TIP3   OH272483   3.539   6.541  13.667  0.1643 -0.3341  0.1782
17023TIP3    H172484   3.482   6.574  13.597  2.9893 -0.9170 -2.6693
17023TIP3    H272485   3.594   6.616  13.690 -1.2268  0.0687  2.4788
17024TIP3   OH272486   4.257   2.650   6.601  0.2866 -0.4654 -0.5346
17024TIP3    H172487   4.298   2.734   6.626 -1.5863  0.6198 -0.9282
17024TIP3    H272488   4.187   2.675   6.541 -1.8625 -2.0711  1.1451
17025TIP3   OH272489   6.365   0.836   2.329 -0.3106 -0.3632  0.4887
17025TIP3    H172490   6.356   0.863   2.237 -0.2516 -1.7105  0.0650
17025TIP3    H272491   6.427   0.899   2.367  1.2915 -1.0203 -0.9340
17026TIP3   OH272492   2.938   4.321  13.883 -0.0818  0.4190  0.3464
17026TIP3    H172493   2.968   4.358  13.800 -0.3472 -0.0647  0.0320
17026TIP3    H272494   3.015   4.278  13.919  0.4102  1.7908  1.0252
17027TIP3   OH272495   3.863   4.289  14.862  0.4114  0.0979 -0.0509
17027TIP3    H172496   3.946   4.280  14.909  1.3283 -1.5832 -1.8443
17027TIP3    H272497   3.886   4.278  14.770 -1.7526  0.0119 -0.6437
17028TIP3   OH272498   3.813   4.641   5.647 -0.3320  0.4840  0.4337
17028TIP3    H172499   3.908   4.634   5.656 -0.5388 -1.4386  1.8292
17028TIP3    H272500   3.796   4.620   5.555  0.5021 -0.6818  0.5269
17029TIP3   OH272501   5.795   3.634   2.705  0.4980  0.2101 -0.2131
17029TIP3    H172502   5.781   3.539   2.698  1.3755 -0.0402  1.1342
17029TIP3    H272503   5.788   3.653   2.798  0.9223  1.3888 -0.4039
17030TIP3   OH272504   0.093   5.810  16.859 -0.3740 -0.3788  0.1315
17030TIP3    H172505   0.140   5.731  16.886 -0.0553  0.6564  2.9393
17030TIP3    H272506   0.162   5.873  16.838 -0.6242 -0.6329 -1.5818
17031TIP3   OH272507   6.555   4.398  11.777  0.3030 -0.2083 -0.0639
17031TIP3    H172508   6.543   4.423  11.868 -0.9633  1.4089 -0.6307
17031TIP3    H272509   6.576   4.304  11.780 -0.6392 -0.4010  1.8324
17032TIP3   OH272510   3.971   5.421   3.886  0.2484  0.3035  0.6763
17032TIP3    H172511   3.943   5.460   3.803 -1.1380 -2.7237 -0.4185
17032TIP3    H272512   3.889   5.398   3.930  0.9552 -1.6846  1.0267
17033TIP3   OH272513   4.220   2.932  12.303  0.8975  0.8408  0.4986
17033TIP3    H172514   4.173   3.012  12.328  0.7476  0.9788 -0.2169
17033TIP3    H272515   4.196   2.868  12.370 -3.2228 -0.2392 -1.6555
17034TIP3   OH272516   5.607   6.472   1.609 -0.0270 -0.1190 -0.0417
17034TIP3    H172517   5.621   6.554   1.562 -0.2000  1.0928  1.9317
17034TIP3    H272518   5.696   6.441   1.629  0.0412  0.9759  1.4701
17035TIP3   OH272519   4.964   1.919  13.697 -0.2384  0.1188 -0.6852
17035TIP3    H172520   4.918   1.835  13.698 -0.7577  0.3343 -2.3914
17035TIP3    H272521   5.015   1.920  13.777  0.3534 -2.1543 -0.9696
17036TIP3   OH272522   2.879   5.776   4.597  0.0103 -0.0794 -0.7895
17036TIP3    H172523   2.856   5.693   4.640  1.7482 -0.5242 -0.6445
17036TIP3    H272524   2.795   5.818   4.580 -0.8661 -1.3994  0.0751
17037TIP3   OH272525   4.201   0.144  11.198  0.0246 -0.3230  0.0706
17037TIP3    H172526   4.194   0.225  11.248 -0.5146 -0.2398 -0.1324
17037TIP3    H272527   4.158   0.164  11.115  0.9378 -0.4457 -0.4524
17038TIP3   OH272528   5.094   2.260   3.568 -0.7873 -0.2335 -0.2471
17038TIP3    H172529   5.136   2.180   3.539 -0.1874  0.0116 -0.0743
17038TIP3    H272530   5.070   2.306   3.488 -1.2388 -0.6342 -0.3457
17039TIP3   OH272531   6.312   3.355   0.634  0.0244  0.7019  0.1481
17039TIP3    H172532   6.387   3.414   0.646  0.2546  0.2874  0.7737
17039TIP3    H272533   6.237   3.414   0.628  0.3061  1.0846  0.2934
17040TIP3   OH272534   5.137   4.572   2.047  0.0267  0.1397  0.1651
17040TIP3    H172535   5.062   4.558   1.990  0.3981 -0.8838 -0.0977
17040TIP3    H272536   5.203   4.613   1.992 -0.2714  0.9041  0.3591
17041TIP3   OH272537   0.631   4.302   3.073  0.7423 -0.1092 -0.3590
17041TIP3    H172538   0.585   4.381   3.044 -0.0612 -0.1101  0.8281
17041TIP3    H272539   0.724   4.325   3.070  0.4748  1.4732  1.5209
17042TIP3   OH272540   5.929   6.183   2.924  0.1562 -0.1906  0.1145
17042TIP3    H172541   5.978   6.101   2.936 -0.5898 -0.6864 -0.1550
17042TIP3    H272542   5.862   6.161   2.859 -0.0420  0.6451  0.0281
17043TIP3   OH272543   2.500   2.664   1.419  0.7093  0.3642 -0.1265
17043TIP3    H172544   2.516   2.694   1.330 -0.1952 -0.5780 -0.6268
17043TIP3    H272545   2.440   2.590   1.409  0.1738  0.5825  1.3047
17044TIP3   OH272546   2.844   4.974   1.927 -0.5228 -0.2646 -0.1871
17044TIP3    H172547   2.837   4.996   1.834  0.6065  1.1746  0.0261
17044TIP3    H272548   2.794   5.043   1.972  1.8830  1.2265  0.4201
17045TIP3   OH272549   2.760   5.896   1.501  0.3548 -0.0478  0.0445
17045TIP3    H172550   2.783   5.953   1.574 -0.0198  0.5737 -0.3114
17045TIP3    H272551   2.836   5.900   1.443 -0.3827  1.6502 -0.9125
17046TIP3   OH272552   4.421   0.363  12.712 -0.3039 -0.4569  0.2769
17046TIP3    H172553   4.513   0.371  12.734 -0.0939 -3.5198  0.9484
17046TIP3    H272554   4.395   0.277  12.746 -2.6260 -1.0252 -2.5348
17047TIP3   OH272555   4.124   3.801  15.956  0.3959  0.1600 -0.3907
17047TIP3    H172556   4.085   3.888  15.948 -0.3241  0.0513  1.5093
17047TIP3    H272557   4.192   3.799  15.889  2.3189  3.2104  1.2825
17048TIP3   OH272558   5.687   5.704   4.541  0.3068  0.4501  1.2471
17048TIP3    H172559   5.600   5.738   4.521 -0.2375 -1.4114  0.2092
17048TIP3    H272560   5.745   5.751   4.481 -0.2022  0.5448  0.8234
17049TIP3   OH272561   6.596   4.560   0.841 -0.5389 -0.0673  0.0380
17049TIP3    H172562   6.592   4.547   0.936  2.0969 -0.3053  0.2171
17049TIP3    H272563   6.546   4.487   0.805 -0.2702 -0.8975  1.2588
17050TIP3   OH272564   0.460   4.494  14.935 -0.0172  0.2069 -0.0996
17050TIP3    H172565   0.548   4.528  14.927  0.3147 -0.6265 -0.1609
17050TIP3    H272566   0.469   4.400  14.918 -0.9398  0.1399 -0.3011
17051TIP3   OH272567   4.587   0.450  15.075  0.0364 -0.8824  0.1366
17051TIP3    H172568   4.583   0.376  15.014 -1.7837 -0.2353 -0.6201
17051TIP3    H272569   4.496   0.479  15.083  0.6731  1.1836  0.5134
17052TIP3   OH272570   1.812   2.650  12.906 -0.2838 -0.0329  0.1174
17052TIP3    H172571   1.856   2.585  12.961 -0.1808 -1.2041 -1.2670
17052TIP3    H272572   1.824   2.617  12.817 -2.8369  0.2751 -0.4234
17053TIP3   OH272573   3.799   6.741  16.012 -0.3108  0.1377  1.0280
17053TIP3    H172574   3.890   6.726  15.985 -0.4520 -1.1005  1.2022
17053TIP3    H272575   3.792   6.836  16.017  0.3125  0.3552 -1.2103
17054TIP3   OH272576   1.626   6.500   3.484 -0.2498  0.0053  0.4937
17054TIP3    H172577   1.642   6.494   3.390 -1.8067 -0.7484  0.2422
17054TIP3    H272578   1.603   6.591   3.499 -1.1341 -0.1188 -0.0648
17055TIP3   OH272579   1.638   5.240  16.351  0.1714 -0.0139  0.0461
17055TIP3    H172580   1.711   5.237  16.290  0.9853  0.4819  0.9687
17055TIP3    H272581   1.657   5.315  16.407  0.5479 -1.6539  2.2375
17056TIP3   OH272582   3.680   6.554  13.215 -0.2964  0.0339 -0.4390
17056TIP3    H172583   3.722   6.554  13.301 -1.2164 -2.2606  0.0860
17056TIP3    H272584   3.734   6.496  13.162 -0.3297  0.6033 -1.1173
17057TIP3   OH272585   1.296   2.772  12.854 -0.1259  0.7428  0.0955
17057TIP3    H172586   1.314   2.681  12.830 -0.7240  0.3514  1.0636
17057TIP3    H272587   1.274   2.815  12.771 -1.7901 -0.4844 -0.1639
17058TIP3   OH272588   6.405   4.456   3.701  0.3366  0.3008  0.2455
17058TIP3    H172589   6.494   4.484   3.719  1.1364 -1.2783 -0.9550
17058TIP3    H272590   6.356   4.477   3.780  2.1431 -0.3110  1.5886
17059TIP3   OH272591   5.999   2.681   3.017 -0.0837 -0.2009  0.6132
17059TIP3    H172592   5.931   2.664   3.082  1.0771 -1.0016  1.6711
17059TIP3    H272593   5.953   2.718   2.942 -1.8283 -1.8387  0.8229
17060TIP3   OH272594   1.106   0.885   2.496  0.1641 -0.0978 -0.6079
17060TIP3    H172595   1.155   0.806   2.523  5.4892  2.2914 -1.8664
17060TIP3    H272596   1.123   0.948   2.566 -0.6788  1.0514 -1.4076
17061TIP3   OH272597   0.571   3.460  13.187  0.4597  0.4430  0.5227
17061TIP3    H172598   0.515   3.530  13.221 -0.2848  1.0312 -1.6916
17061TIP3    H272599   0.553   3.385  13.243 -1.6742  0.9625  0.6335
17062TIP3   OH272600   5.927   3.016   5.295  0.6104 -0.3849 -0.4449
17062TIP3    H172601   5.863   3.066   5.244  1.1369 -0.9345 -1.7076
17062TIP3    H272602   6.012   3.053   5.267  0.9107 -0.7196  0.0232
17063TIP3   OH272603   4.318   2.577  16.112 -0.3499 -0.1772  0.0741
17063TIP3    H172604   4.371   2.613  16.183  0.9906  2.3769 -2.0339
17063TIP3    H272605   4.234   2.623  16.119 -0.6671 -0.8199  0.6608
17064TIP3   OH272606   3.833   5.543  13.111  0.4541  0.5848 -0.2600
17064TIP3    H172607   3.879   5.569  13.191 -0.8219 -0.2133  0.7693
17064TIP3    H272608   3.831   5.448  13.115 -0.9769  0.5959 -0.4481
17065TIP3   OH272609   0.555   2.290   5.227 -0.0562 -0.2847  0.2111
17065TIP3    H172610   0.553   2.294   5.323  1.1399 -1.0081  0.2933
17065TIP3    H272611   0.635   2.337   5.203  1.5890 -3.0233 -0.1556
17066TIP3   OH272612   5.143   1.333  16.227 -0.0749  0.0680  0.1016
17066TIP3    H172613   5.170   1.242  16.241  0.8267  0.1902 -0.7473
17066TIP3    H272614   5.199   1.384  16.286  0.9634  0.2380 -0.9816
17067TIP3   OH272615   4.440   6.136   1.969  0.3143  0.2206  0.3708
17067TIP3    H172616   4.378   6.087   2.024  1.2747  0.6513  1.8951
17067TIP3    H272617   4.489   6.190   2.031  2.5104 -0.3954 -0.7296
17068TIP3   OH272618   6.177   5.840  11.388  0.6881 -0.0926  0.4465
17068TIP3    H172619   6.234   5.857  11.313  1.1483 -2.6569  0.1182
17068TIP3    H272620   6.098   5.802  11.350  0.4758 -0.3907  1.1677
17069TIP3   OH272621   0.214   6.289  12.288 -0.3022 -0.3182  0.3723
17069TIP3    H172622   0.210   6.275  12.383 -0.4121 -0.7568  0.3044
17069TIP3    H272623   0.300   6.328  12.273 -0.2254 -0.3840  0.6378
17070TIP3   OH272624   4.533   5.508  13.949 -0.1942 -0.0816  0.5324
17070TIP3    H172625   4.463   5.567  13.920 -0.0866 -0.5627 -0.7393
17070TIP3    H272626   4.565   5.548  14.030 -1.5457  0.4542  0.8280
17071TIP3   OH272627   4.925   3.181  11.453  0.7320  0.2209  0.2703
17071TIP3    H172628   4.895   3.234  11.379  3.0056  0.9508 -0.2112
17071TIP3    H272629   4.919   3.240  11.528  0.4245  0.1804  0.2765
17072TIP3   OH272630   0.645   0.799   2.980 -0.7891 -0.0397 -0.1384
17072TIP3    H172631   0.618   0.765   3.066 -0.1967  0.3915  0.2250
17072TIP3    H272632   0.696   0.877   3.001 -1.9099  0.9492 -0.9404
17073TIP3   OH272633   3.411   0.323  13.811 -0.7129 -0.2780  0.5352
17073TIP3    H172634   3.445   0.413  13.809 -0.8749 -0.2167 -1.2876
17073TIP3    H272635   3.326   0.329  13.768 -0.1212 -1.5189 -0.8788
17074TIP3   OH272636   5.713   1.011  15.572  0.1289 -0.0048 -0.2050
17074TIP3    H172637   5.626   1.049  15.556 -0.1851 -0.6161  0.0351
17074TIP3    H272638   5.763   1.035  15.494  0.6279  2.7746  0.8432
17075TIP3   OH272639   0.481   1.784  14.602 -0.3545 -0.7699 -0.3322
17075TIP3    H172640   0.399   1.825  14.629  1.0178  2.5817 -0.7424
17075TIP3    H272641   0.519   1.751  14.684 -0.7728  0.3917  0.3692
17076TIP3   OH272642   5.159   2.925  12.013  0.3358  0.2606  0.3979
17076TIP3    H172643   5.231   2.888  12.064  2.2043 -0.4424 -2.5369
17076TIP3    H272644   5.094   2.855  12.010  0.7399 -0.1417  0.7740
17077TIP3   OH272645   5.041   1.094   5.450  0.0317 -0.3220  0.8273
17077TIP3    H172646   5.013   1.107   5.359  0.3542 -1.2718  0.5802
17077TIP3    H272647   4.977   1.144   5.502  1.1105  2.0504 -0.0006
17078TIP3   OH272648   6.497   2.873   2.443 -0.4637 -0.1771  0.1004
17078TIP3    H172649   6.496   2.898   2.535  0.3420  1.3298 -0.2689
17078TIP3    H272650   6.567   2.926   2.404 -0.7041 -0.8687 -1.3518
17079TIP3   OH272651   3.917   4.956  10.874 -0.0676 -0.3087 -0.3943
17079TIP3    H172652   3.822   4.945  10.879 -0.1257  0.2987  0.0131
17079TIP3    H272653   3.931   5.051  10.881  0.6293 -0.4770  0.7588
17080TIP3   OH272654   2.657   0.733  14.755 -0.2820  0.0772 -0.5486
17080TIP3    H172655   2.685   0.751  14.666  0.0224  1.2471 -0.2342
17080TIP3    H272656   2.621   0.644  14.752 -1.1702  0.4644 -2.0428
17081TIP3   OH272657   3.725   3.775   5.492 -0.1256  0.9783  0.2299
17081TIP3    H172658   3.782   3.766   5.568 -1.5628  1.0452  1.3666
17081TIP3    H272659   3.717   3.686   5.458 -0.3682  0.7590  0.8492
17082TIP3   OH272660   1.550   4.908   3.827  0.5067  0.3589  0.2058
17082TIP3    H172661   1.554   4.832   3.885  2.3350  0.2074 -0.0434
17082TIP3    H272662   1.497   4.880   3.753 -0.6121  0.0605  1.0858
17083TIP3   OH272663   3.797   0.903  12.896 -0.3686  0.3116  0.6632
17083TIP3    H172664   3.808   0.810  12.916 -0.3693  0.3926  1.0620
17083TIP3    H272665   3.793   0.945  12.982 -1.5579  0.5486  0.5049
17084TIP3   OH272666   5.784   0.995   6.705 -0.3378  0.4217 -0.1058
17084TIP3    H172667   5.839   1.073   6.712  0.4817 -0.0795 -0.8782
17084TIP3    H272668   5.792   0.953   6.791  2.0918 -0.6838 -0.8101
17085TIP3   OH272669   4.040   1.075  15.936 -0.4256 -0.2862  0.3049
17085TIP3    H172670   3.969   1.082  15.871 -1.9440  1.5114  2.0055
17085TIP3    H272671   4.000   1.029  16.009  0.6343 -0.4933  0.7625
17086TIP3   OH272672   3.764   4.612  17.004 -0.6388  0.5551  0.5424
17086TIP3    H172673   3.753   4.605  17.099 -0.4322 -0.6977  0.4921
17086TIP3    H272674   3.714   4.538  16.969  0.9966 -0.2688 -0.1796
17087TIP3   OH272675   4.777   4.579  11.985  0.4179  0.5317  0.3364
17087TIP3    H172676   4.814   4.666  12.002  2.9148 -0.0417 -1.5810
17087TIP3    H272677   4.808   4.526  12.059 -0.8710  1.1517  1.3607
17088TIP3   OH272678   6.430   6.429  16.388 -0.4620 -0.6698 -0.3603
17088TIP3    H172679   6.386   6.508  16.357  1.9639  0.1317 -2.0023
17088TIP3    H272680   6.432   6.371  16.312  2.9789  0.1480 -1.0648
17089TIP3   OH272681   2.610   2.298  15.337  0.3980 -0.2771 -0.0527
17089TIP3    H172682   2.643   2.210  15.358 -0.5010 -0.6951 -0.3245
17089TIP3    H272683   2.671   2.331  15.272  0.2662 -1.0540 -0.5885
17090TIP3   OH272684   6.683   5.011  13.345 -0.1210 -0.1458 -0.0420
17090TIP3    H172685   6.771   4.983  13.368 -0.2634  0.7072  1.6998
17090TIP3    H272686   6.662   4.964  13.264  2.0920 -0.0088 -0.7423
17091TIP3   OH272687   3.045   1.528   5.951 -0.3460  0.2828  0.4847
17091TIP3    H172688   2.993   1.545   5.872 -0.7087  2.2704  1.0914
17091TIP3    H272689   3.131   1.566   5.931 -0.0564 -0.2831  0.6220
17092TIP3   OH272690   1.194   1.091  13.061  0.1817  0.2607 -0.8738
17092TIP3    H172691   1.101   1.089  13.038 -0.7746 -3.3735  2.2890
17092TIP3    H272692   1.198   1.147  13.139  0.2051 -1.2330  0.2295
17093TIP3   OH272693   5.444   4.761   0.202 -0.0775  0.3380  0.0099
17093TIP3    H172694   5.406   4.837   0.159 -1.0491 -0.9891 -1.5721
17093TIP3    H272695   5.508   4.727   0.139 -0.9107 -1.1405 -0.0961
17094TIP3   OH272696   3.545   4.163  14.812  0.0428 -0.5048  0.5648
17094TIP3    H172697   3.590   4.247  14.819  1.0135 -0.9814  0.1852
17094TIP3    H272698   3.609   4.099  14.841 -0.9518 -1.0652  1.6028
17095TIP3   OH272699   1.219   5.016  11.759 -0.2840 -0.2608  0.5268
17095TIP3    H172700   1.259   4.931  11.777 -0.0345 -0.8349 -2.2604
17095TIP3    H272701   1.214   5.059  11.845  1.3086 -2.3126  1.7463
17096TIP3   OH272702   2.210   3.766   5.111  0.0281 -0.1377 -0.1853
17096TIP3    H172703   2.302   3.774   5.087  0.5441  1.2193  1.9944
17096TIP3    H272704   2.211   3.740   5.203 -1.6038  4.2100  1.2910
17097TIP3   OH272705   5.576   0.762  11.931 -0.3610 -0.5396 -0.5042
17097TIP3    H172706   5.561   0.782  11.839 -0.5359 -1.8400 -0.7768
17097TIP3    H272707   5.582   0.848  11.974  1.4945  0.1407 -1.9916
17098TIP3   OH272708   0.032   1.767   0.149  0.1072 -0.2339  0.5151
17098TIP3    H172709   0.110   1.724   0.116  0.6618  0.2466  1.1493
17098TIP3    H272710   0.053   1.861   0.146 -1.2233  0.0612 -1.2275
17099TIP3   OH272711   0.296   2.968  12.525 -0.4537  0.0181  0.2718
17099TIP3    H172712   0.262   2.965  12.435 -2.6848 -1.6429  1.0491
17099TIP3    H272713   0.256   2.891  12.567  2.3767 -0.5994  2.0766
17100TIP3   OH272714   1.375   5.697  15.561 -0.2730 -0.3655 -0.1775
17100TIP3    H172715   1.332   5.765  15.510 -0.1402  0.1289  0.3607
17100TIP3    H272716   1.318   5.683  15.636 -0.0839 -0.5388 -0.0665
17101TIP3   OH272717   3.902   0.399   0.544 -0.2845 -0.4997 -0.4897
17101TIP3    H172718   3.818   0.355   0.532 -0.3949 -0.0094 -1.5852
17101TIP3    H272719   3.902   0.469   0.479  1.1577 -0.7732 -0.8085
17102TIP3   OH272720   3.573   2.805   0.559 -0.0415  0.1513 -0.2296
17102TIP3    H172721   3.493   2.827   0.510 -1.4184 -2.7016  0.5481
17102TIP3    H272722   3.544   2.743   0.625  2.7784 -0.6491  0.3773
17103TIP3   OH272723   4.857   2.327  10.759 -0.1921  0.3173  0.4073
17103TIP3    H172724   4.834   2.275  10.682  0.1108  0.0652  0.4848
17103TIP3    H272725   4.774   2.365  10.788 -0.9155 -2.1254  1.8358
17104TIP3   OH272726   4.716   6.543   1.536 -0.3599 -0.5536  0.0715
17104TIP3    H172727   4.720   6.453   1.505  0.2624 -0.0517 -1.4518
17104TIP3    H272728   4.629   6.553   1.573 -0.3047 -1.8698  0.5809
17105TIP3   OH272729   4.647   1.614   4.601 -0.7451 -0.0227 -0.4791
17105TIP3    H172730   4.730   1.654   4.626 -1.6499  1.6667  0.0122
17105TIP3    H272731   4.636   1.542   4.664  1.2816 -1.6771 -1.8695
17106TIP3   OH272732   5.846   3.754  12.158  0.5206  0.5667 -0.6994
17106TIP3    H172733   5.802   3.763  12.074  0.0433 -4.4715 -1.2551
17106TIP3    H272734   5.935   3.727  12.136  0.3411 -0.9741  0.3233
17107TIP3   OH272735   0.534   5.338  14.581 -0.1640  0.0666 -0.2352
17107TIP3    H172736   0.540   5.242  14.586  0.2560  0.0222 -1.2552
17107TIP3    H272737   0.440   5.356  14.581 -0.2451 -0.3386  0.0869
17108TIP3   OH272738   4.354   3.030  17.147 -0.0439 -0.9989  0.2291
17108TIP3    H172739   4.369   3.001  17.057 -2.1153  0.7278 -0.7928
17108TIP3    H272740   4.267   2.997  17.169 -0.2039 -0.1201  1.0101
17109TIP3   OH272741   0.299   5.050   3.827 -0.3503  0.4660 -0.0374
17109TIP3    H172742   0.295   5.144   3.812  0.5597  0.4776 -0.2806
17109TIP3    H272743   0.351   5.041   3.908 -1.1906  0.2057  0.4838
17110TIP3   OH272744   4.952   2.668   0.703 -0.0187 -0.1219  0.1204
17110TIP3    H172745   4.908   2.747   0.734  0.7329  0.3307  0.0641
17110TIP3    H272746   4.942   2.671   0.608  1.4034  0.7951 -0.0437
17111TIP3   OH272747   2.066   4.075  14.670 -0.1787  0.2453 -0.3360
17111TIP3    H172748   2.034   4.004  14.614 -1.3567  0.2449  0.3067
17111TIP3    H272749   1.989   4.128  14.688  0.0544 -0.0771  1.7633
17112TIP3   OH272750   3.485   5.399   4.241  0.6179 -0.5040 -0.8017
17112TIP3    H172751   3.435   5.471   4.202 -0.0527 -1.5410 -1.9306
17112TIP3    H272752   3.566   5.440   4.273 -0.2753  0.9470 -0.3019
17113TIP3   OH272753   6.669   3.952   3.131 -0.2479 -0.1840  0.2343
17113TIP3    H172754   6.587   3.958   3.180 -0.0676  1.4564  0.4050
17113TIP3    H272755   6.659   4.017   3.061  1.0782  0.3627  0.5289
17114TIP3   OH272756   3.946   1.690   1.804  0.4648 -0.0821  0.5471
17114TIP3    H172757   4.026   1.641   1.784  2.0624  2.0948  1.2765
17114TIP3    H272758   3.977   1.774   1.837 -2.0764 -0.1198  3.4632
17115TIP3   OH272759   1.171   5.083   4.382 -0.4606  0.5417  0.1476
17115TIP3    H172760   1.096   5.142   4.373  0.0437  1.2953  0.7422
17115TIP3    H272761   1.133   5.000   4.409 -1.1483  0.7159 -0.2697
17116TIP3   OH272762   5.467   1.708  14.894 -0.4955 -0.0300  0.1812
17116TIP3    H172763   5.523   1.763  14.840  2.8067  0.4590  3.6920
17116TIP3    H272764   5.480   1.620  14.860  0.5761  0.3791 -0.5039
17117TIP3   OH272765   3.908   2.161  17.068  0.3366 -0.0414  0.1086
17117TIP3    H172766   3.870   2.158  17.155 -2.4010 -0.6343 -1.0047
17117TIP3    H272767   3.931   2.070  17.049 -1.3636 -0.3638 -0.6380
17118TIP3   OH272768   4.513   0.533  12.979 -0.2817 -0.7708 -0.1894
17118TIP3    H172769   4.584   0.469  12.976  1.2453  0.7473  1.4183
17118TIP3    H272770   4.516   0.577  12.894  0.8539 -0.5677 -0.0518
17119TIP3   OH272771   4.098   3.971   1.605 -0.9180  0.3482 -0.0441
17119TIP3    H172772   4.057   3.997   1.522 -3.0733 -1.0830  0.5128
17119TIP3    H272773   4.124   3.880   1.591 -3.7416 -0.8308  1.6216
17120TIP3   OH272774   5.166   3.063   3.563 -0.4006 -0.3005  0.1417
17120TIP3    H172775   5.093   3.032   3.617 -0.2593 -1.7111 -0.4353
17120TIP3    H272776   5.163   3.158   3.571 -2.1435 -0.3415  0.3558
17121TIP3   OH272777   4.253   6.119   2.436 -0.5402 -0.1619  0.5836
17121TIP3    H172778   4.282   6.203   2.471 -0.6424  0.6041 -1.0572
17121TIP3    H272779   4.158   6.129   2.424 -0.5364 -0.4640  0.2796
17122TIP3   OH272780   1.618   2.599  15.259  0.6083 -0.3635  0.7844
17122TIP3    H172781   1.584   2.514  15.231  0.2318  0.3443 -1.0864
17122TIP3    H272782   1.603   2.602  15.353 -0.7168 -1.7763  0.6508
17123TIP3   OH272783   1.104   4.497  13.145 -0.0201  0.6665 -0.5761
17123TIP3    H172784   1.104   4.442  13.066 -2.9123 -0.5185  0.0920
17123TIP3    H272785   1.196   4.509  13.167  0.7893 -1.7526 -2.2689
17124TIP3   OH272786   6.678   4.748   3.636 -0.1463  0.5001  0.0417
17124TIP3    H172787   6.631   4.737   3.553  1.0043 -1.0305 -0.4711
17124TIP3    H272788   6.636   4.822   3.678 -0.9451  1.1481 -1.7921
17125TIP3   OH272789   1.337   3.075  14.532  0.0518 -0.5327  0.0975
17125TIP3    H172790   1.426   3.103  14.509 -0.7744  1.6798 -0.6770
17125TIP3    H272791   1.322   2.998  14.478  0.7660  0.3094 -1.3674
17126TIP3   OH272792   0.452   0.795   5.289  1.0615  0.6794 -0.4802
17126TIP3    H172793   0.366   0.786   5.248  1.3825  1.0503 -1.2565
17126TIP3    H272794   0.433   0.817   5.380  0.3245 -0.9099 -0.2052
17127TIP3   OH272795   1.977   3.504  16.331 -0.3248 -0.1101 -0.4348
17127TIP3    H172796   2.018   3.529  16.249  0.8839  1.2021  0.5179
17127TIP3    H272797   2.045   3.457  16.379 -0.5340  0.3921  0.3903
17128TIP3   OH272798   3.093   5.716   4.471 -0.1884  0.4751 -0.0507
17128TIP3    H172799   3.060   5.644   4.418  0.1618 -0.9642  1.5929
17128TIP3    H272800   3.022   5.736   4.532  0.3495  0.2815  0.6670
17129TIP3   OH272801   2.695   3.635   3.925 -0.4856 -0.3582 -0.3795
17129TIP3    H172802   2.670   3.596   4.008  1.6479 -0.2396  0.3624
17129TIP3    H272803   2.611   3.656   3.882 -1.6217 -0.8762  1.4892
17130TIP3   OH272804   4.736   1.633   0.804  0.0805 -0.2002  0.0701
17130TIP3    H172805   4.655   1.650   0.853  0.3331  0.5460  0.2342
17130TIP3    H272806   4.801   1.612   0.871  0.3835  0.6530  0.0501
17131TIP3   OH272807   5.889   3.105  13.977  0.0607  0.0037  0.6908
17131TIP3    H172808   5.799   3.130  13.960 -0.4186 -1.4298  0.9829
17131TIP3    H272809   5.942   3.171  13.932 -1.1318 -0.0918 -0.9110
17132TIP3   OH272810   6.023   6.457  12.015  0.5281  0.2877 -1.2291
17132TIP3    H172811   5.945   6.504  12.047 -0.4066  2.0554 -5.4833
17132TIP3    H272812   5.993   6.368  12.001 -0.5496  0.7779 -2.1375
17133TIP3   OH272813   0.215   1.772   5.073 -0.2579 -0.1224 -0.6171
17133TIP3    H172814   0.261   1.688   5.064 -0.8071 -0.4469 -0.4230
17133TIP3    H272815   0.216   1.809   4.985  0.0916 -0.2752 -0.6811
17134TIP3   OH272816   1.153   2.548  16.410  0.3498 -0.2676 -0.4897
17134TIP3    H172817   1.065   2.520  16.433  0.5890  0.8951  2.1474
17134TIP3    H272818   1.164   2.633  16.452  2.2217  0.3308 -2.0245
17135TIP3   OH272819   4.565   4.825  15.713 -0.4112 -0.0593 -0.0771
17135TIP3    H172820   4.548   4.880  15.636 -3.1401  0.6207  0.8956
17135TIP3    H272821   4.578   4.887  15.784  2.6405 -0.6727  0.0249
17136TIP3   OH272822   1.510   1.038  13.915 -0.0277 -0.2474 -0.2564
17136TIP3    H172823   1.518   0.996  14.001 -0.0722  0.3231  0.0300
17136TIP3    H272824   1.563   1.117  13.922 -0.6570  0.2013 -0.5061
17137TIP3   OH272825   4.220   4.617   5.383 -0.5993  0.5626  0.4072
17137TIP3    H172826   4.186   4.573   5.305 -0.4434  0.7675  0.2193
17137TIP3    H272827   4.314   4.596   5.382 -0.3674  1.5581 -0.1383
17138TIP3   OH272828   3.944   1.385   3.302  0.1353 -0.0861  0.4326
17138TIP3    H172829   3.940   1.410   3.209  1.2654 -0.3045  0.3058
17138TIP3    H272830   4.030   1.416   3.331  0.2231 -0.9503  1.1331
17139TIP3   OH272831   2.468   2.812   1.668  0.4096  0.0867 -0.3774
17139TIP3    H172832   2.492   2.781   1.581  0.3430 -1.6650  0.1959
17139TIP3    H272833   2.549   2.810   1.719  0.0357 -1.0824  0.2036
17140TIP3   OH272834   4.802   1.805   2.108 -0.8380 -0.0767  0.0171
17140TIP3    H172835   4.731   1.841   2.055 -0.6290  1.1936  0.5630
17140TIP3    H272836   4.770   1.810   2.198 -0.0792  0.4751  0.2651
17141TIP3   OH272837   3.040   5.754   3.675  0.7686  0.1176  1.0566
17141TIP3    H172838   3.000   5.805   3.746 -2.0355  1.0293 -0.9896
17141TIP3    H272839   3.020   5.663   3.698 -0.8248  0.4457  1.1390
17142TIP3   OH272840   6.553   1.703  15.437 -0.2332 -0.1777  0.3913
17142TIP3    H172841   6.610   1.739  15.505  1.4845  0.9810 -1.5230
17142TIP3    H272842   6.562   1.608  15.446  1.2836 -0.0312  0.7589
17143TIP3   OH272843   1.794   6.221   1.962  0.4889  0.1306 -0.2778
17143TIP3    H172844   1.769   6.207   2.054 -0.3086 -0.9652 -0.6438
17143TIP3    H272845   1.874   6.274   1.967  0.3414  0.2643  1.0390
17144TIP3   OH272846   5.733   1.683  16.471  0.4137 -0.7473  0.2366
17144TIP3    H172847   5.658   1.684  16.411  0.6847  0.7277 -0.1293
17144TIP3    H272848   5.806   1.715  16.418  0.6501  0.6743  1.3357
17145TIP3   OH272849   5.696   6.137  12.273 -0.2520  0.3355 -0.4792
17145TIP3    H172850   5.706   6.231  12.260 -0.0954  0.2898 -0.6943
17145TIP3    H272851   5.620   6.128  12.331  0.3661  0.6407  0.3904
17146TIP3   OH272852   4.322   5.467   1.499  0.3082  0.0201 -0.5022
17146TIP3    H172853   4.374   5.544   1.521  0.9618  0.1692 -2.3586
17146TIP3    H272854   4.329   5.410   1.575  1.2499  1.0653  0.2135
17147TIP3   OH272855   2.721   4.715   3.521 -0.5165  0.2610  0.1397
17147TIP3    H172856   2.634   4.749   3.540  0.4630  2.9931  0.1293
17147TIP3    H272857   2.780   4.788   3.537  1.6431 -1.0080 -1.4208
17148TIP3   OH272858   2.586   2.478  11.526 -0.1235 -0.0603 -0.6936
17148TIP3    H172859   2.581   2.384  11.541  1.3103  0.1520  1.7121
17148TIP3    H272860   2.645   2.488  11.451  0.1487 -1.0618 -0.6226
17149TIP3   OH272861   6.703   6.548   5.778  0.1183  0.0953 -0.3038
17149TIP3    H172862   6.708   6.525   5.871  1.6849  0.1256 -0.3401
17149TIP3    H272863   6.753   6.478   5.734  0.9801  1.0580 -0.9085
17150TIP3   OH272864   5.079   4.113   2.352  0.4065  0.2567  0.0113
17150TIP3    H172865   5.111   4.182   2.294  0.6825 -0.2822 -0.4835
17150TIP3    H272866   5.156   4.084   2.401  0.1941  0.6425  0.5851
17151TIP3   OH272867   1.855   0.629  14.636  0.2697  0.0587  0.0083
17151TIP3    H172868   1.761   0.646  14.640  0.2405  0.2279 -1.0143
17151TIP3    H272869   1.893   0.682  14.705 -0.3162  0.5483 -0.0425
17152TIP3   OH272870   6.731   2.951   2.272  0.6364 -0.6495 -0.3778
17152TIP3    H172871   6.653   2.943   2.216 -1.2734  0.2855  2.0047
17152TIP3    H272872   6.762   3.041   2.257 -0.1604 -0.2379  0.3831
17153TIP3   OH272873   2.606   6.043   2.180 -0.1276  0.4812 -0.2776
17153TIP3    H172874   2.628   5.952   2.198  0.1047  0.0393 -2.5261
17153TIP3    H272875   2.565   6.042   2.094  0.6030  2.6147 -0.7222
17154TIP3   OH272876   3.230   6.350  17.043 -0.6070  0.4483  0.2383
17154TIP3    H172877   3.245   6.279  17.106 -0.4924  1.4865  1.4119
17154TIP3    H272878   3.226   6.429  17.096 -0.6334  1.3510 -1.0597
17155TIP3   OH272879   4.286   5.192   6.313  0.7565  0.0969 -0.1880
17155TIP3    H172880   4.261   5.136   6.240 -1.2478 -0.2133  0.6628
17155TIP3    H272881   4.342   5.136   6.368  0.3245 -0.4489 -0.2967
17156TIP3   OH272882   5.638   1.266  12.944 -0.2791 -0.0984  0.0235
17156TIP3    H172883   5.665   1.343  12.996  0.3924 -0.6427  0.4998
17156TIP3    H272884   5.543   1.262  12.955 -0.0971 -0.5736  1.7740
17157TIP3   OH272885   1.141   5.033  15.403  0.0114 -0.4533 -0.1250
17157TIP3    H172886   1.201   4.971  15.444  1.5167 -0.3119 -1.9875
17157TIP3    H272887   1.089   5.067  15.476  0.9510 -1.9035  1.3104
17158TIP3   OH272888   4.759   6.542   5.847  0.3156 -0.0297 -0.8062
17158TIP3    H172889   4.790   6.498   5.768  2.0378 -2.2501  0.9642
17158TIP3    H272890   4.839   6.563   5.895 -0.7067 -0.4323  1.1816
17159TIP3   OH272891   1.981   3.182   2.791  0.6434  0.3390  0.1730
17159TIP3    H172892   1.994   3.195   2.885 -0.2639  1.2625  0.1878
17159TIP3    H272893   1.894   3.218   2.774  0.8071  0.1977 -1.0271
17160TIP3   OH272894   0.421   5.010   3.583  0.1716  0.0492  0.4319
17160TIP3    H172895   0.516   4.999   3.583  0.1857  0.1743  0.5044
17160TIP3    H272896   0.393   4.984   3.670  0.2508  0.9762  0.7467
17161TIP3   OH272897   2.141   3.526  13.548 -0.5107  0.5462  0.1097
17161TIP3    H172898   2.080   3.564  13.612  0.4257  1.2802  0.5977
17161TIP3    H272899   2.227   3.559  13.575 -0.0636  0.6942 -1.4158
17162TIP3   OH272900   3.958   4.652   2.961  0.2571  0.4621 -0.2756
17162TIP3    H172901   4.019   4.578   2.970  3.1690  2.6089 -1.0608
17162TIP3    H272902   3.986   4.696   2.881 -2.9953  1.1130 -1.1999
17163TIP3   OH272903   0.339   5.927  12.293  0.4596 -0.2727  0.9214
17163TIP3    H172904   0.286   5.851  12.315 -0.2290  0.0262  0.3466
17163TIP3    H272905   0.279   5.986  12.246  0.9658  0.6358  1.3808
17164TIP3   OH272906   3.370   3.663  15.254 -0.3565 -0.2222  0.4508
17164TIP3    H172907   3.294   3.714  15.225 -0.5082 -0.6971 -0.0270
17164TIP3    H272908   3.381   3.597  15.185 -0.2630 -0.9276  1.1268
17165TIP3   OH272909   4.530   1.541  13.260  0.3315 -1.0946  0.5128
17165TIP3    H172910   4.531   1.507  13.349 -0.7025 -1.2403  0.4733
17165TIP3    H272911   4.507   1.465  13.206 -3.0067 -0.2095  0.5141
17166TIP3   OH272912   3.424   3.914   5.455  0.2204  1.0718  0.2993
17166TIP3    H172913   3.406   3.820   5.455 -1.3487  1.3458  1.0318
17166TIP3    H272914   3.514   3.921   5.424 -0.2595 -0.5418 -1.6579
17167TIP3   OH272915   2.559   2.589   2.159 -0.0043 -0.4714 -0.3228
17167TIP3    H172916   2.605   2.544   2.088 -1.9949 -1.6417 -0.9561
17167TIP3    H272917   2.571   2.682   2.141  2.3633 -0.7049 -0.2381
17168TIP3   OH272918   0.158   5.065  15.410  0.2142  0.2427  0.1400
17168TIP3    H172919   0.193   5.125  15.344  0.8883 -0.9812 -0.6462
17168TIP3    H272920   0.152   4.981  15.365 -1.4710 -0.1334  0.9842
17169TIP3   OH272921   4.840   6.200   1.142  0.3627  0.4382  0.1882
17169TIP3    H172922   4.837   6.289   1.178 -0.1517  0.8288 -0.7826
17169TIP3    H272923   4.929   6.170   1.159  1.2920  2.0380 -1.5469
17170TIP3   OH272924   3.721   5.955  12.172 -0.0771  0.1455  0.5684
17170TIP3    H172925   3.789   5.893  12.195  0.2900  0.7233  1.0791
17170TIP3    H272926   3.645   5.901  12.151  0.3297 -0.4788  0.6917
17171TIP3   OH272927   3.874   5.290  16.356 -0.4346  0.4830 -0.1191
17171TIP3    H172928   3.859   5.200  16.325 -1.1042  0.7830 -0.7143
17171TIP3    H272929   3.837   5.291  16.444  0.6417 -0.1359  0.3480
17172TIP3   OH272930   1.515   6.304  14.497 -0.4130 -0.1338 -0.0869
17172TIP3    H172931   1.459   6.228  14.479 -0.8679  0.2139 -0.1776
17172TIP3    H272932   1.466   6.356  14.561  0.8651 -0.9873  1.6681
17173TIP3   OH272933   4.740   5.087  12.320  0.2061 -0.2017  0.8699
17173TIP3    H172934   4.648   5.085  12.346  0.2406  1.7667  1.3686
17173TIP3    H272935   4.771   4.998  12.332 -1.3502 -0.6578  1.7801
17174TIP3   OH272936   4.442   0.807   4.837  0.1884  0.6189 -0.5383
17174TIP3    H172937   4.476   0.791   4.925 -0.2907  0.0815 -0.4434
17174TIP3    H272938   4.392   0.888   4.845 -1.4978 -0.4278  0.1748
17175TIP3   OH272939   2.925   1.044   0.257 -0.6497 -0.1325  0.5616
17175TIP3    H172940   2.861   1.040   0.328 -0.2292  1.2057  1.0565
17175TIP3    H272941   2.874   1.061   0.179 -0.9579  0.4771  0.8843
17176TIP3   OH272942   0.955   6.631   1.668  0.7165  0.9932 -0.0314
17176TIP3    H172943   1.027   6.689   1.694 -0.4224  2.8243 -0.7263
17176TIP3    H272944   0.880   6.661   1.719 -0.1474  0.8006 -1.1389
17177TIP3   OH272945   0.110   4.517   4.135  0.2924 -0.0611  0.1696
17177TIP3    H172946   0.181   4.556   4.084  0.2984  1.7726  1.4614
17177TIP3    H272947   0.117   4.559   4.221 -1.4814 -0.9058  0.7725
17178TIP3   OH272948   0.542   0.830  14.756  0.1314  0.2061  0.0298
17178TIP3    H172949   0.601   0.807  14.828  1.2129  0.4646 -0.7612
17178TIP3    H272950   0.578   0.785  14.680 -1.7167 -1.1122 -0.1410
17179TIP3   OH272951   3.763   3.029  14.420  0.0822 -0.1747  0.5291
17179TIP3    H172952   3.755   3.115  14.459 -1.3570 -0.2155  0.3846
17179TIP3    H272953   3.716   3.036  14.336 -0.0753 -1.0882  0.5286
17180TIP3   OH272954   3.840   4.248  13.551 -0.1132 -0.1813  0.2946
17180TIP3    H172955   3.807   4.333  13.523  0.0328 -0.0866  0.4106
17180TIP3    H272956   3.912   4.268  13.612  0.7355 -0.3669 -0.6120
17181TIP3   OH272957   6.100   4.102   0.452  0.1102  0.4871  0.3710
17181TIP3    H172958   6.098   4.115   0.357  0.0901  0.4529  0.3666
17181TIP3    H272959   6.114   4.190   0.488  1.0771  0.3681  0.3045
17182TIP3   OH272960   6.660   4.947  15.429 -0.0754 -0.2002 -0.1548
17182TIP3    H172961   6.654   5.028  15.377 -0.0520 -0.1917 -0.1445
17182TIP3    H272962   6.732   4.964  15.490 -0.4698  0.0078  0.2586
17183TIP3   OH272963   0.153   2.758  13.628 -0.0704  0.4583 -0.3884
17183TIP3    H172964   0.219   2.694  13.599 -0.1569 -0.1572  0.7169
17183TIP3    H272965   0.159   2.829  13.565 -0.6128 -1.0448 -2.2181
17184TIP3   OH272966   0.947   3.139  15.417 -0.5210  0.5798 -0.0523
17184TIP3    H172967   1.009   3.163  15.349  0.3174  1.0720  0.8521
17184TIP3    H272968   0.898   3.065  15.381  0.0909  0.6567 -1.0644
17185TIP3   OH272969   0.844   2.260   4.373 -0.0771 -0.8206  0.2527
17185TIP3    H172970   0.765   2.315   4.366  1.2201  1.1728  0.4413
17185TIP3    H272971   0.811   2.171   4.365 -2.1746 -0.0043 -1.3667
17186TIP3   OH272972   1.776   2.799  11.579 -0.0554  0.0713  0.0129
17186TIP3    H172973   1.854   2.778  11.629  0.1514  0.7732 -0.0045
17186TIP3    H272974   1.804   2.800  11.488 -0.3979 -1.0510 -0.1236
17187TIP3   OH272975   1.965   2.864   3.600  0.5454  0.2918  0.2060
17187TIP3    H172976   1.995   2.918   3.674  0.1328  0.0883  0.5268
17187TIP3    H272977   1.887   2.908   3.568  0.2609 -0.0622  0.4081
17188TIP3   OH272978   4.330   5.226  14.449 -0.6517  0.8824 -0.2591
17188TIP3    H172979   4.364   5.137  14.440 -1.1756  0.7842 -1.4114
17188TIP3    H272980   4.250   5.217  14.500 -0.9823  0.6202 -0.8211
17189TIP3   OH272981   5.884   5.502  13.324 -0.2348  0.4795 -0.3001
17189TIP3    H172982   5.820   5.443  13.286 -0.3105 -0.8231  1.6816
17189TIP3    H272983   5.838   5.541  13.399  0.9599  0.2775  0.5601
17190TIP3   OH272984   1.943   6.233   3.407  0.3351 -0.4852  0.0601
17190TIP3    H172985   1.977   6.309   3.360 -1.5262  0.8420  0.7138
17190TIP3    H272986   1.910   6.175   3.339  2.4703 -1.1387 -0.4969
17191TIP3   OH272987   6.237   5.572  11.048 -0.2619 -0.3643  0.7389
17191TIP3    H172988   6.271   5.661  11.060 -1.2395  0.0487  0.5589
17191TIP3    H272989   6.287   5.519  11.109 -0.2327  0.4604  1.4556
17192TIP3   OH272990   6.268   1.776   2.100 -0.2416 -0.0675  0.0322
17192TIP3    H172991   6.324   1.778   2.178 -1.6006 -4.2059  1.3956
17192TIP3    H272992   6.184   1.810   2.129 -0.1208  0.5128 -0.2923
17193TIP3   OH272993   2.590   1.996  17.231  0.4657  0.6924  0.5057
17193TIP3    H172994   2.496   1.993  17.210  0.3332 -1.0851  1.1386
17193TIP3    H272995   2.625   2.062  17.172 -0.9892  0.5438 -0.6050
17194TIP3   OH272996   4.698   3.749   2.770  0.3925  0.0873 -0.0288
17194TIP3    H172997   4.664   3.834   2.742  0.9577  1.2590  2.5610
17194TIP3    H272998   4.634   3.686   2.737 -0.8116  1.6375 -0.8171
17195TIP3   OH272999   4.161   6.601  14.046 -0.2998 -0.1712  0.0326
17195TIP3    H173000   4.248   6.579  14.012 -0.7286 -1.8906 -0.0599
17195TIP3    H273001   4.113   6.518  14.044 -0.7132 -0.1846  3.8027
17196TIP3   OH273002   3.529   3.362  14.888 -0.0606  0.1141  0.1800
17196TIP3    H173003   3.603   3.301  14.887 -1.3374 -1.5178 -0.4599
17196TIP3    H273004   3.485   3.347  14.804 -1.2948  0.8191  0.6776
17197TIP3   OH273005   1.149   6.487   4.240 -0.5890  0.0102  0.2967
17197TIP3    H173006   1.161   6.543   4.317 -2.0047  0.4570  0.2103
17197TIP3    H273007   1.125   6.402   4.277 -2.7385  0.5954  0.3640
17198TIP3   OH273008   0.266   5.185  16.384 -0.8536  0.0037 -0.2115
17198TIP3    H173009   0.220   5.141  16.313 -0.6413 -0.4457 -0.0739
17198TIP3    H273010   0.358   5.182  16.359 -0.8744  0.6951 -0.3765
17199TIP3   OH273011   0.370   3.006   4.104 -0.2146 -0.3511  0.1224
17199TIP3    H173012   0.350   3.041   4.191  0.0557 -0.0635  0.0707
17199TIP3    H273013   0.386   3.083   4.050  1.8412 -0.5668  0.3518
17200TIP3   OH273014   1.738   1.519   0.379  0.0587 -0.4368 -0.8687
17200TIP3    H173015   1.811   1.544   0.435 -0.2109 -0.3076 -0.5718
17200TIP3    H273016   1.660   1.552   0.425  0.0018  2.0570 -2.5632
17201TIP3   OH273017   6.317   0.768  16.136 -0.0338  0.6700  0.1397
17201TIP3    H173018   6.298   0.848  16.184  1.5330  1.5991 -0.6972
17201TIP3    H273019   6.264   0.775  16.056  0.9719  1.4920 -0.4881
17202TIP3   OH273020   2.079   3.527   3.916  0.7049  0.4926  0.5318
17202TIP3    H173021   2.137   3.550   3.988  0.8712  0.2063  0.4918
17202TIP3    H273022   2.130   3.466   3.863  1.2143  1.9760 -0.7578
17203TIP3   OH273023   2.487   5.896   3.281 -0.9200 -0.2606  0.1412
17203TIP3    H173024   2.558   5.960   3.287 -0.6241 -0.5485 -0.2731
17203TIP3    H273025   2.407   5.948   3.289 -0.6806  0.1542 -0.1287
17204TIP3   OH273026   2.759   1.124   2.547  0.7394  0.0341 -0.3264
17204TIP3    H173027   2.736   1.202   2.497  1.0338 -1.0916 -2.3497
17204TIP3    H273028   2.738   1.146   2.637 -1.3975  1.6080 -1.1172
17205TIP3   OH273029   0.903   3.495  13.129 -0.0130  0.1295  0.3727
17205TIP3    H173030   0.835   3.524  13.067 -1.3813 -0.5546  1.5020
17205TIP3    H273031   0.908   3.565  13.193  0.5063  0.2692  0.1812
17206TIP3   OH273032   6.117   3.888  16.293  0.4395 -0.1090  0.0803
17206TIP3    H173033   6.168   3.918  16.218 -0.9408  0.8719 -0.4993
17206TIP3    H273034   6.174   3.905  16.368  1.9256 -1.2989 -0.7228
17207TIP3   OH273035   6.106   5.769   4.002  0.2083  0.1587 -0.0911
17207TIP3    H173036   6.133   5.840   3.943  0.9016 -1.0112 -1.2505
17207TIP3    H273037   6.014   5.755   3.981 -0.3407  1.6489  1.1784
17208TIP3   OH273038   6.517   2.961   3.522 -0.1995  0.1332  0.2755
17208TIP3    H173039   6.482   2.880   3.485 -2.7780  1.2995 -0.0918
17208TIP3    H273040   6.450   2.989   3.584 -0.8961  3.4150 -1.7123
17209TIP3   OH273041   2.984   1.695  17.255 -0.2651  0.6294 -0.1402
17209TIP3    H173042   2.944   1.782  17.247 -0.0291  1.1380  2.8662
17209TIP3    H273043   3.078   1.712  17.247 -0.3034  0.3346 -1.3728
17210TIP3   OH273044   4.843   0.970  14.663  0.2215 -0.0114 -0.0562
17210TIP3    H173045   4.875   0.880  14.663  1.5347  0.4140  1.3771
17210TIP3    H273046   4.904   1.017  14.720 -1.0851  1.5538  0.1120
17211TIP3   OH273047   1.139   5.870  14.726  0.1192 -0.1788  0.1227
17211TIP3    H173048   1.061   5.821  14.751 -0.1372  0.2118  0.0947
17211TIP3    H273049   1.208   5.837  14.784  0.0830 -0.9546 -0.2519
17212TIP3   OH273050   6.569   5.051   0.480 -0.1791  0.3076 -0.0878
17212TIP3    H173051   6.623   4.992   0.427  0.1426  0.5023  0.0253
17212TIP3    H273052   6.600   5.139   0.458  0.6399  0.3473  1.1767
17213TIP3   OH273053   2.661   4.789  14.045  0.2790  0.0377 -0.1022
17213TIP3    H173054   2.669   4.694  14.051 -2.3210 -0.1832  2.6585
17213TIP3    H273055   2.566   4.805  14.046  0.6447  2.6779  0.8255
17214TIP3   OH273056   5.813   6.272  11.942 -0.0772 -0.1521 -0.0207
17214TIP3    H173057   5.829   6.187  11.984  0.2782 -0.0750  0.0077
17214TIP3    H273058   5.828   6.255  11.849  1.2373  0.1501  0.1034
17215TIP3   OH273059   5.954   4.511   5.413  0.3688  0.0764  0.4634
17215TIP3    H173060   5.959   4.597   5.455  1.1580  0.5772 -0.6163
17215TIP3    H273061   6.034   4.466   5.441  0.1409 -0.1774  0.7202
17216TIP3   OH273062   4.287   1.279  16.555  0.0219 -0.3864  0.1783
17216TIP3    H173063   4.322   1.282  16.643  0.3602  3.3812  0.1026
17216TIP3    H273064   4.253   1.368  16.540  1.0076 -0.4825 -3.8484
17217TIP3   OH273065   1.750   0.358  11.245 -0.4329 -0.9767 -0.2516
17217TIP3    H173066   1.713   0.347  11.157  1.2494 -1.4538 -0.9354
17217TIP3    H273067   1.818   0.425  11.234  0.4312 -1.7069  0.4629
17218TIP3   OH273068   4.641   4.506  15.085 -0.1285 -0.3270 -0.1804
17218TIP3    H173069   4.572   4.572  15.087 -0.1946 -0.3914 -0.4341
17218TIP3    H273070   4.655   4.484  15.177 -0.4807 -0.3521 -0.1320
17219TIP3   OH273071   5.764   4.021   5.288  1.0036 -0.0577 -0.0935
17219TIP3    H173072   5.690   4.033   5.228 -0.1637 -2.2715  0.7956
17219TIP3    H273073   5.802   4.108   5.295 -0.6972  0.9042 -1.6229
17220TIP3   OH273074   2.589   0.505  16.351 -0.4091  0.0087 -0.0959
17220TIP3    H173075   2.604   0.519  16.258  1.1780 -1.3021 -0.0737
17220TIP3    H273076   2.515   0.444  16.355  0.9391 -1.7273 -0.6099
17221TIP3   OH273077   1.197   3.695   4.987  0.2914 -0.0472 -0.0380
17221TIP3    H173078   1.136   3.634   5.029 -0.7979 -0.2599 -1.7943
17221TIP3    H273079   1.228   3.648   4.909 -0.7333  1.6383 -1.5531
17222TIP3   OH273080   0.115   3.951   5.896 -0.0578  0.0671 -0.7029
17222TIP3    H173081   0.031   3.979   5.933  1.7766  3.7199  1.3071
17222TIP3    H273082   0.156   3.901   5.966  0.4159  0.4516 -0.7033
17223TIP3   OH273083   0.775   5.198   3.789  0.0462 -0.1746 -0.2373
17223TIP3    H173084   0.693   5.246   3.774  0.6171  0.6378 -0.8744
17223TIP3    H273085   0.792   5.208   3.883 -0.0234  0.6021 -0.3007
17224TIP3   OH273086   4.388   5.315   2.064 -0.2824  0.3218  0.5800
17224TIP3    H173087   4.329   5.255   2.017 -0.8508  0.4138  1.1587
17224TIP3    H273088   4.349   5.322   2.151 -0.1973  1.5127  0.5283
17225TIP3   OH273089   4.547   0.187  16.996 -0.4377  0.2288  0.1335
17225TIP3    H173090   4.582   0.273  16.974  0.5481 -0.3901 -0.7885
17225TIP3    H273091   4.457   0.204  17.024  0.6034  1.9098  2.9045
17226TIP3   OH273092   6.558   5.235   5.390  0.4353 -0.5657 -0.3348
17226TIP3    H173093   6.644   5.237   5.430 -0.4368 -0.0299  1.6223
17226TIP3    H273094   6.523   5.148   5.411 -0.2371 -0.0915  0.5631
17227TIP3   OH273095   5.120   3.658  14.925 -0.1464 -0.0370  1.4998
17227TIP3    H173096   5.174   3.637  14.849  1.0989  0.5187  2.1903
17227TIP3    H273097   5.048   3.595  14.923  0.1187 -0.3111  0.1227
17228TIP3   OH273098   2.237   2.577   3.635  0.6919 -0.2566  0.0774
17228TIP3    H173099   2.265   2.587   3.726 -0.6883  1.4709  0.3689
17228TIP3    H273100   2.142   2.579   3.639  0.5602  2.7256 -1.5957
17229TIP3   OH273101   5.891   0.220   2.972  0.0174 -0.1267  0.6658
17229TIP3    H173102   5.815   0.245   2.919  0.0389  1.4665  1.3272
17229TIP3    H273103   5.966   0.240   2.916 -0.0089 -0.2080  0.6008
17230TIP3   OH273104   1.904   4.038  13.293  0.1514  0.5586 -0.5395
17230TIP3    H173105   1.840   4.106  13.272  0.3670  0.9560  0.0567
17230TIP3    H273106   1.978   4.086  13.331  0.6761  0.0746 -0.9368
17231TIP3   OH273107   6.235   1.559   1.925 -0.6297  0.0027 -0.2680
17231TIP3    H173108   6.269   1.624   1.987 -1.4105 -0.3818  0.5916
17231TIP3    H273109   6.161   1.603   1.883 -1.5799 -0.5327  0.7982
17232TIP3   OH273110   0.178   5.995   5.432  0.2569 -0.1071 -0.0799
17232TIP3    H173111   0.103   5.990   5.491  0.7114 -0.9605  0.4425
17232TIP3    H273112   0.221   5.910   5.441  2.4199  1.0226  1.1365
17233TIP3   OH273113   4.791   6.714   3.269 -0.0213  0.5058  0.2602
17233TIP3    H173114   4.808   6.782   3.334  0.6483  0.4442  0.1597
17233TIP3    H273115   4.698   6.722   3.249 -0.0168  1.1735  0.4933
17234TIP3   OH273116   6.580   1.847   4.016  0.3880 -0.2146  0.2855
17234TIP3    H173117   6.557   1.924   3.964  1.6353  1.2785  1.8115
17234TIP3    H273118   6.579   1.774   3.954 -0.2353  1.1244 -1.3425
17235TIP3   OH273119   2.539   6.423  16.271 -0.0500 -0.0297  0.1512
17235TIP3    H173120   2.451   6.410  16.234  0.3044 -1.9545 -0.1593
17235TIP3    H273121   2.532   6.387  16.360 -0.0935  1.7432  0.8913
17236TIP3   OH273122   2.797   5.807  16.263 -0.2319  0.6388  0.8222
17236TIP3    H173123   2.813   5.801  16.169  0.3636 -1.1756  1.0094
17236TIP3    H273124   2.711   5.849  16.270 -0.8265 -0.2804 -0.5532
17237TIP3   OH273125   3.525   3.317   4.404  0.2567 -0.4106 -0.2289
17237TIP3    H173126   3.505   3.267   4.483  0.3078 -0.2297 -0.0995
17237TIP3    H273127   3.564   3.398   4.437 -1.9567  0.7518 -0.3363
17238TIP3   OH273128   6.713   0.971  14.563 -0.7711  0.3153  0.5737
17238TIP3    H173129   6.668   0.908  14.619 -0.3948 -0.8662 -0.4134
17238TIP3    H273130   6.662   0.972  14.482  1.6449 -2.1836 -1.1671
17239TIP3   OH273131   1.595   0.306   0.437 -0.0364 -0.2479  0.0846
17239TIP3    H173132   1.511   0.260   0.433 -0.7350  0.7167  2.3810
17239TIP3    H273133   1.653   0.253   0.383 -1.8095 -1.5842 -0.6276
17240TIP3   OH273134   2.675   6.707   6.664 -0.4740 -0.2660  0.0737
17240TIP3    H173135   2.640   6.674   6.581 -1.0196 -0.7294  0.4811
17240TIP3    H273136   2.663   6.635   6.725  2.2450 -0.8876 -0.0096
17241TIP3   OH273137   1.735   6.255   0.925 -0.4663  0.0289  0.2528
17241TIP3    H173138   1.735   6.278   1.018 -0.9750 -1.5364  0.6786
17241TIP3    H273139   1.642   6.240   0.904 -0.2289 -1.0770 -0.0930
17242TIP3   OH273140   5.112   5.965   2.022 -0.0756  0.2134 -0.3223
17242TIP3    H173141   5.019   5.953   2.002 -0.6501  1.6540  1.1935
17242TIP3    H273142   5.135   6.048   1.980  0.2618  0.3280  0.0796
17243TIP3   OH273143   3.873   1.340   4.657  0.0756 -0.7324 -0.2741
17243TIP3    H173144   3.844   1.419   4.612  0.0483 -0.9779 -0.6868
17243TIP3    H273145   3.806   1.323   4.723 -0.3834 -0.9272 -0.7878
17244TIP3   OH273146   3.515   1.591   5.613 -0.4458 -0.3902  0.0691
17244TIP3    H173147   3.514   1.680   5.579 -2.2211 -0.7904 -1.0690
17244TIP3    H273148   3.509   1.536   5.536  1.4120 -1.5490  0.7060
17245TIP3   OH273149   3.466   4.481   0.812  0.2033 -0.1813  0.3116
17245TIP3    H173150   3.429   4.569   0.822 -1.8818 -0.5241 -2.8547
17245TIP3    H273151   3.404   4.423   0.855 -0.7090 -0.3744 -1.1803
17246TIP3   OH273152   0.271   5.135  13.552  0.1630  0.5882 -0.9727
17246TIP3    H173153   0.320   5.206  13.593  1.3381 -1.0303  0.6040
17246TIP3    H273154   0.185   5.138  13.592  0.5788  0.4356 -0.0397
17247TIP3   OH273155   4.975   4.212  11.102  0.0008 -0.0914 -0.2356
17247TIP3    H173156   4.914   4.283  11.080  0.3468  1.1143  2.3479
17247TIP3    H273157   5.061   4.248  11.083  0.0985 -0.6026 -0.8052
17248TIP3   OH273158   4.886   5.349   3.973  0.1017 -0.4180  1.0567
17248TIP3    H173159   4.960   5.301   4.011  2.4910  1.6046 -0.6334
17248TIP3    H273160   4.892   5.331   3.879  1.2525  3.1094  0.3019
17249TIP3   OH273161   4.904   5.993   4.399  0.1260  0.0360 -0.5590
17249TIP3    H173162   4.872   6.056   4.334 -1.9516  0.4470  0.7601
17249TIP3    H273163   4.995   5.978   4.375 -0.3096  0.8164 -3.0481
17250TIP3   OH273164   2.671   1.972   3.785 -0.2549  0.4504  0.1798
17250TIP3    H173165   2.713   1.941   3.866  1.5262  0.6649 -0.6151
17250TIP3    H273166   2.706   2.061   3.773  1.4097 -0.4243 -2.0506
17251TIP3   OH273167   6.594   1.144   2.917  0.5086  1.0147  0.3881
17251TIP3    H173168   6.559   1.058   2.941 -1.6462  1.8673  0.5028
17251TIP3    H273169   6.569   1.155   2.825  2.4327  0.7622 -0.1949
17252TIP3   OH273170   3.572   5.008  15.060 -0.1925 -0.4818  0.4059
17252TIP3    H173171   3.655   5.054  15.075  0.0182 -0.9834  0.7870
17252TIP3    H273172   3.537   4.993  15.148 -0.7158 -0.2300  0.2449
17253TIP3   OH273173   2.756   3.582   1.129  0.4528  0.0823 -0.2596
17253TIP3    H173174   2.772   3.668   1.168  0.3754  0.3503 -0.8133
17253TIP3    H273175   2.753   3.598   1.035 -0.0527 -0.4508 -0.3397
17254TIP3   OH273176   2.492   3.022  11.465 -0.5131 -0.4241 -0.0607
17254TIP3    H173177   2.517   3.045  11.375  1.0233 -0.2279  0.3965
17254TIP3    H273178   2.397   3.029  11.465 -0.4214  1.9951 -1.0420
17255TIP3   OH273179   6.645   0.357  10.636 -0.3889 -0.2946  0.5764
17255TIP3    H173180   6.579   0.423  10.612  0.5603  0.7710  0.8350
17255TIP3    H273181   6.715   0.369  10.571  0.3633 -0.1709  1.3995
17256TIP3   OH273182   5.485   5.077   4.040 -0.0307  0.1041 -0.1460
17256TIP3    H173183   5.577   5.092   4.017 -0.4846  0.4584 -1.8258
17256TIP3    H273184   5.443   5.161   4.023 -0.5996  0.1042  1.1277
17257TIP3   OH273185   3.137   4.347   6.625  0.0905 -0.1064  0.6009
17257TIP3    H173186   3.196   4.275   6.601 -1.0304 -1.1054  0.7831
17257TIP3    H273187   3.088   4.314   6.700  0.1823  1.2008  1.2726
17258TIP3   OH273188   0.469   2.124   1.622  0.2455 -0.3065 -0.7643
17258TIP3    H173189   0.533   2.195   1.632  0.6035 -0.4738 -1.8366
17258TIP3    H273190   0.522   2.044   1.620 -0.2589 -0.9226  2.8040
17259TIP3   OH273191   4.094   6.265  11.969  0.1936 -0.5145  0.1713
17259TIP3    H173192   4.063   6.350  12.001 -1.9929 -0.7473 -1.1396
17259TIP3    H273193   4.015   6.213  11.958  0.8550 -1.0293 -3.7984
17260TIP3   OH273194   4.264   2.482   2.571  0.3959 -0.2553 -0.0647
17260TIP3    H173195   4.326   2.458   2.502 -2.2291  1.0788 -3.1236
17260TIP3    H273196   4.279   2.576   2.585  0.8901 -0.5028  1.2898
17261TIP3   OH273197   5.375   3.660  13.007  0.1428 -0.2107  0.1274
17261TIP3    H173198   5.285   3.630  13.016 -0.0328  0.6249  1.2914
17261TIP3    H273199   5.426   3.579  12.996 -0.4953 -0.8461  1.6132
17262TIP3   OH273200   5.023   0.305  16.084  0.0321 -0.2507 -0.4790
17262TIP3    H173201   4.980   0.379  16.041 -1.4666  0.2604  1.7862
17262TIP3    H273202   4.960   0.233  16.078  0.1936 -0.4413  0.0776
17263TIP3   OH273203   2.018   4.442   2.385 -0.2478 -0.0438 -0.2718
17263TIP3    H173204   1.929   4.416   2.408 -0.7531  1.4845 -0.3846
17263TIP3    H273205   2.009   4.489   2.302  0.4048  1.6021  0.5572
17264TIP3   OH273206   1.460   2.755   5.413  0.1465 -0.2966  0.2862
17264TIP3    H173207   1.453   2.659   5.408 -1.6953 -0.1594 -0.7520
17264TIP3    H273208   1.414   2.786   5.335  0.4343  1.4523  0.7804
17265TIP3   OH273209   2.917   1.876  13.939  0.1272 -0.6565  0.5626
17265TIP3    H173210   2.880   1.791  13.914  0.1460 -1.0464  1.7711
17265TIP3    H273211   2.854   1.912  14.002 -0.7085  1.0023 -1.1452
17266TIP3   OH273212   4.647   4.054  15.963 -0.0501  0.2108  0.2076
17266TIP3    H173213   4.740   4.041  15.945 -0.1708 -0.3505 -0.0527
17266TIP3    H273214   4.626   4.140  15.926  0.5417  0.7004  0.9881
17267TIP3   OH273215   4.814   0.011  12.581  0.4215  0.2139 -0.1557
17267TIP3    H173216   4.828   0.050  12.494  1.9575 -0.4109 -0.2260
17267TIP3    H273217   4.761  -0.067  12.564  1.3561 -0.3330 -0.6610
17268TIP3   OH273218   1.976   3.300   5.315 -0.1671  0.4591 -0.4366
17268TIP3    H173219   2.019   3.220   5.347  0.0138 -0.2167 -2.2469
17268TIP3    H273220   1.944   3.343   5.394  0.3410 -1.0576  0.6455
17269TIP3   OH273221   4.519   5.993   4.920  0.6365 -0.0819 -0.3406
17269TIP3    H173222   4.502   5.965   5.010  1.0912  0.5606 -0.0496
17269TIP3    H273223   4.507   5.913   4.868 -0.6597 -0.2268  0.1495
17270TIP3   OH273224   4.202   5.554   5.260 -0.1544 -0.6375 -0.1498
17270TIP3    H173225   4.163   5.506   5.333  0.3610 -0.1256  0.4735
17270TIP3    H273226   4.192   5.495   5.185 -2.0974 -0.5315 -0.0318
17271TIP3   OH273227   2.721   2.351  13.944  0.9364 -0.4027  0.0273
17271TIP3    H173228   2.685   2.403  14.016  0.2493 -1.0239  0.1510
17271TIP3    H273229   2.644   2.325  13.893  1.4133  0.0361 -0.9435
17272TIP3   OH273230   1.715   0.883   3.779 -0.0121  0.4800 -0.1004
17272TIP3    H173231   1.720   0.964   3.729 -1.2144  0.6730  0.0743
17272TIP3    H273232   1.752   0.907   3.865 -3.4187  1.8482  1.1386
17273TIP3   OH273233   2.129   3.498  12.513  1.0001 -0.4257  0.0269
17273TIP3    H173234   2.207   3.548  12.536  1.2529 -0.4058 -0.8465
17273TIP3    H273235   2.098   3.537  12.431  1.2210 -1.7073 -0.6963
17274TIP3   OH273236   3.510   4.864  17.175  0.3094  0.4620  0.0844
17274TIP3    H173237   3.485   4.779  17.139  1.6416  0.8081 -1.7866
17274TIP3    H273238   3.431   4.918  17.164  0.0766  0.0125 -0.5275
17275TIP3   OH273239   4.375   3.218   1.250  0.6636 -0.3731  0.3620
17275TIP3    H173240   4.325   3.141   1.222  1.4169 -0.3667 -1.0669
17275TIP3    H273241   4.466   3.198   1.228  0.7088  1.4703 -1.3852
17276TIP3   OH273242   1.408   2.589   2.376  0.1022  0.0520 -0.1638
17276TIP3    H173243   1.364   2.518   2.423  3.6924 -2.2109  0.2186
17276TIP3    H273244   1.364   2.593   2.291 -0.9881 -1.8544  0.2561
17277TIP3   OH273245   3.827   1.007  15.425  0.3503 -0.3515 -0.2903
17277TIP3    H173246   3.788   1.038  15.507 -1.1532  0.5096 -1.2953
17277TIP3    H273247   3.754   1.001  15.364  1.7806  1.5436 -2.3395
17278TIP3   OH273248   5.196   0.163   0.859 -0.8583 -0.2893 -0.0150
17278TIP3    H173249   5.283   0.124   0.854 -0.4932  0.3040  1.3621
17278TIP3    H273250   5.211   0.257   0.848 -1.1834 -0.0773  1.1991
17279TIP3   OH273251   4.721   2.897  12.497  0.1436 -0.8703  0.0746
17279TIP3    H173252   4.636   2.919  12.458  0.4070 -1.1294 -0.6695
17279TIP3    H273253   4.747   2.976  12.544 -0.3330 -0.6508 -0.0289
17280TIP3   OH273254   3.540   2.909  12.392 -0.2306 -0.3148  0.2992
17280TIP3    H173255   3.608   2.929  12.457  1.9754 -1.2596 -1.5919
17280TIP3    H273256   3.498   2.993  12.374 -0.7105  0.0257  2.6427
17281TIP3   OH273257   0.177   5.716  15.056  0.1538 -0.0288 -0.0354
17281TIP3    H173258   0.096   5.764  15.036  0.6798  1.9235  2.0808
17281TIP3    H273259   0.149   5.646  15.115 -0.5084 -2.0994 -2.5810
17282TIP3   OH273260   6.430   6.281   1.622  0.0836 -0.2505 -0.2567
17282TIP3    H173261   6.429   6.303   1.529  0.4050 -0.6114 -0.3472
17282TIP3    H273262   6.384   6.354   1.664  0.4130  0.1804 -0.6381
17283TIP3   OH273263   1.637   4.899   4.109  0.0878 -0.0726  0.1039
17283TIP3    H173264   1.596   4.834   4.166  1.0855 -0.0902  0.8445
17283TIP3    H273265   1.667   4.967   4.169  1.1764 -0.0933 -0.3900
17284TIP3   OH273266   3.798   4.233   3.541  0.4404 -0.4664 -0.7697
17284TIP3    H173267   3.731   4.180   3.498 -1.6734 -0.0159  1.7034
17284TIP3    H273268   3.754   4.316   3.561  2.7383  1.1273 -1.7861
17285TIP3   OH273269   5.879   5.430  11.498  0.1256 -0.3317  0.0338
17285TIP3    H173270   5.802   5.402  11.449 -1.2186 -0.5534  2.1393
17285TIP3    H273271   5.917   5.501  11.446 -1.6042 -0.1006 -0.9762
17286TIP3   OH273272   4.334   3.798   3.981 -0.4401  0.1010 -0.5781
17286TIP3    H173273   4.270   3.855   4.025  0.1573  0.0559  0.3682
17286TIP3    H273274   4.419   3.834   4.004 -0.0893  0.8267 -2.7357
17287TIP3   OH273275   4.082   3.401   0.925 -0.0776 -0.2384 -0.0393
17287TIP3    H173276   4.141   3.422   0.997 -1.7781  1.8108  0.8792
17287TIP3    H273277   4.015   3.345   0.964 -0.2925 -0.2073 -0.3555
17288TIP3   OH273278   3.912   2.922  16.020  0.3227  0.1997  0.2761
17288TIP3    H173279   3.988   2.946  15.967 -1.2784  2.6425 -1.0617
17288TIP3    H273280   3.841   2.909  15.957 -0.6813 -0.9366  1.5693
17289TIP3   OH273281   0.413   2.672   4.227 -0.1661  0.3312 -0.2864
17289TIP3    H173282   0.454   2.701   4.145 -0.5341  0.0528 -0.5684
17289TIP3    H273283   0.320   2.669   4.208 -0.4385  1.7985  0.6095
17290TIP3   OH273284   6.731   1.838   2.947 -0.0195 -0.0463  0.0798
17290TIP3    H173285   6.694   1.750   2.956 -2.8586  1.2560  3.2831
17290TIP3    H273286   6.782   1.850   3.026  1.6367  0.7368 -1.0515
17291TIP3   OH273287   6.704   1.152   3.674 -0.6375  0.4296  0.1195
17291TIP3    H173288   6.765   1.078   3.675 -1.9069 -0.6353  0.8818
17291TIP3    H273289   6.633   1.124   3.617 -0.8127  1.3502 -0.1320
17292TIP3   OH273290   6.596   2.573  17.283  0.0242  0.1054 -0.1719
17292TIP3    H173291   6.649   2.651  17.299 -2.1482  1.7847 -0.6639
17292TIP3    H273292   6.617   2.515  17.355  1.8064  1.0742  0.1518
17293TIP3   OH273293   3.377   1.137  13.979  0.3060 -0.2100 -0.6430
17293TIP3    H173294   3.348   1.207  14.037 -0.1907 -1.1048  0.2182
17293TIP3    H273295   3.467   1.159  13.956  0.4767  0.2030  0.4034
17294TIP3   OH273296   4.255   0.952   6.646 -0.1791 -0.3631 -0.0145
17294TIP3    H173297   4.244   1.033   6.595  0.9898 -0.6827 -0.8296
17294TIP3    H273298   4.301   0.979   6.725 -0.4433 -0.1108  0.0506
17295TIP3   OH273299   2.591   5.458   6.472 -0.0440  0.5318  0.3686
17295TIP3    H173300   2.635   5.533   6.432  1.9107 -0.9859 -0.4722
17295TIP3    H273301   2.630   5.449   6.559 -0.4505  0.6188  0.5652
17296TIP3   OH273302   3.037   4.201   0.257 -0.1812  0.1535 -0.4354
17296TIP3    H173303   3.094   4.184   0.182 -2.9001  0.4735 -2.7547
17296TIP3    H273304   3.024   4.296   0.257 -2.5444 -0.1013 -1.5318
17297TIP3   OH273305   6.302   0.763  14.983  0.2813  0.5013  0.4118
17297TIP3    H173306   6.248   0.723  15.051 -1.5974 -1.0783 -1.8291
17297TIP3    H273307   6.250   0.837  14.952  0.6401  0.5985  0.0372
17298TIP3   OH273308   3.185   1.397  15.289 -0.1025  0.7407  1.2469
17298TIP3    H173309   3.098   1.437  15.285 -0.0929  0.9249  2.4650
17298TIP3    H273310   3.239   1.451  15.233 -0.9680  0.0572 -0.3285
17299TIP3   OH273311   1.223   5.025  10.892 -0.1892  0.1017 -0.1080
17299TIP3    H173312   1.152   5.016  10.828 -0.2190 -0.9266  0.0546
17299TIP3    H273313   1.185   5.075  10.964  0.0025  1.7808 -1.1048
17300TIP3   OH273314   6.007   2.397   0.297  0.2364  0.7672 -0.2111
17300TIP3    H173315   5.999   2.315   0.346  0.6182  0.7728 -0.1350
17300TIP3    H273316   6.029   2.462   0.363  0.7130  0.7824 -0.3803
17301TIP3   OH273317   4.536   0.036  15.073 -0.0219  0.1803 -0.7938
17301TIP3    H173318   4.562   0.124  15.045 -0.2896  0.6287  0.2988
17301TIP3    H273319   4.525   0.044  15.168 -0.0289 -1.0440 -0.6796
17302TIP3   OH273320   2.350   5.577   6.472  0.1297 -0.2545 -0.4203
17302TIP3    H173321   2.367   5.616   6.387  0.4959 -1.5807 -0.9915
17302TIP3    H273322   2.436   5.555   6.506 -0.0852 -1.2620 -0.4843
17303TIP3   OH273323   2.393   1.379  13.244 -0.1207 -0.4619 -0.4017
17303TIP3    H173324   2.438   1.442  13.301 -0.0304  0.3005 -1.2971
17303TIP3    H273325   2.311   1.361  13.289  1.1068 -2.0351  1.3689
17304TIP3   OH273326   4.694   3.943   6.024 -0.7431  0.8689  0.4980
17304TIP3    H173327   4.617   3.894   5.996 -0.5779  0.9372 -0.1012
17304TIP3    H273328   4.666   3.990   6.102 -0.7800 -0.4871  1.3187
17305TIP3   OH273329   1.010   4.601  11.395 -0.7200  0.0495 -0.0642
17305TIP3    H173330   1.063   4.678  11.416 -2.1245  1.1097 -0.1890
17305TIP3    H273331   1.011   4.549  11.475 -0.2795  0.5338  0.2552
17306TIP3   OH273332   5.222   4.583   5.653  0.3032  0.6614  0.4078
17306TIP3    H173333   5.146   4.558   5.706 -0.8860  0.6454 -1.2224
17306TIP3    H273334   5.213   4.678   5.642  0.7700  0.7261  0.5858
17307TIP3   OH273335   1.058   6.130   1.228 -0.3874  0.8759 -0.1873
17307TIP3    H173336   1.136   6.076   1.242 -1.4329 -0.9636 -1.0877
17307TIP3    H273337   1.049   6.179   1.310  1.8119  1.3373 -0.1374
17308TIP3   OH273338   5.210   3.555  11.578 -0.3259 -0.4180 -0.5401
17308TIP3    H173339   5.175   3.487  11.520 -0.9495 -0.6432  0.0848
17308TIP3    H273340   5.304   3.538  11.581 -0.3184 -0.5417 -1.3017
17309TIP3   OH273341   5.100   5.307   5.583  0.3752 -0.2555  0.7861
17309TIP3    H173342   5.185   5.265   5.591  0.1892 -0.5168  1.4348
17309TIP3    H273343   5.080   5.304   5.489  1.5072  0.6653  0.4890
17310TIP3   OH273344   3.241   1.190  13.184  0.7304 -0.1573  0.3141
17310TIP3    H173345   3.315   1.250  13.182 -0.6265  1.5707 -0.9599
17310TIP3    H273346   3.242   1.148  13.098  0.7311 -0.8046  0.6231
17311TIP3   OH273347   4.751   6.685   6.136  0.3102  0.6064 -0.4307
17311TIP3    H173348   4.680   6.713   6.078  1.0707 -0.0071 -1.7004
17311TIP3    H273349   4.707   6.663   6.218 -1.6608 -3.4102 -2.2475
17312TIP3   OH273350   4.695   5.515   4.427  0.1375 -0.3307 -0.3517
17312TIP3    H173351   4.745   5.506   4.345  2.2895 -0.2776  0.8712
17312TIP3    H273352   4.691   5.609   4.442  0.3182 -0.3674 -0.0739
17313TIP3   OH273353   2.674   3.378  12.767  0.5180  0.3972 -0.2601
17313TIP3    H173354   2.716   3.438  12.705  1.5990  0.9495  0.9638
17313TIP3    H273355   2.672   3.294  12.722 -1.3391  1.3719 -2.1607
17314TIP3   OH273356   4.187   3.798  15.651 -0.2410 -0.0663 -0.1008
17314TIP3    H173357   4.268   3.781  15.698 -0.6934  0.1727  0.7809
17314TIP3    H273358   4.194   3.890  15.622 -0.9767  0.5640  1.6046
17315TIP3   OH273359   5.220   3.626  17.064  0.1320  0.2108 -0.0152
17315TIP3    H173360   5.203   3.646  16.972  0.6809  0.9883  0.0499
17315TIP3    H273361   5.234   3.531  17.065 -3.2297 -0.4373 -0.2235
17316TIP3   OH273362   1.107   5.374   0.026  0.7238 -0.3590 -0.3602
17316TIP3    H173363   1.197   5.343   0.032  0.7615  0.0203  1.6316
17316TIP3    H273364   1.058   5.298  -0.005  1.5008 -1.0566  0.0780
17317TIP3   OH273365   5.539   0.575  13.376  0.8076  0.4048 -0.3969
17317TIP3    H173366   5.481   0.530  13.438  1.4694 -0.2980 -0.2803
17317TIP3    H273367   5.582   0.505  13.327 -0.8610  0.9427 -2.7905
17318TIP3   OH273368   1.338   1.367  14.554 -0.7321  0.0482 -0.1052
17318TIP3    H173369   1.422   1.323  14.539 -0.5126  0.3296  0.2893
17318TIP3    H273370   1.292   1.360  14.471 -0.9714 -1.5154  0.1212
17319TIP3   OH273371   4.510   3.833  16.806  0.3823 -0.4352 -0.2541
17319TIP3    H173372   4.567   3.910  16.802 -1.1204  0.7524 -0.0543
17319TIP3    H273373   4.425   3.866  16.777 -0.0618 -2.3039 -1.2430
17320TIP3   OH273374   6.318   6.571   0.215 -0.7481 -0.9532 -0.3601
17320TIP3    H173375   6.300   6.509   0.285  0.9470  1.9568  2.9613
17320TIP3    H273376   6.250   6.553   0.149 -3.7332 -2.6725  2.8372
17321TIP3   OH273377   4.303   2.769   5.122 -0.0640  0.6464 -0.1680
17321TIP3    H173378   4.351   2.850   5.138  0.8970 -0.3308  2.3437
17321TIP3    H273379   4.322   2.714   5.198 -1.8254 -1.4133 -1.1085
17322TIP3   OH273380   6.379   5.971  12.472 -0.1469 -0.1130  0.5254
17322TIP3    H173381   6.340   6.024  12.402  0.0180 -1.1291 -0.3798
17322TIP3    H273382   6.467   6.006  12.483 -0.1549  0.0268  0.1738
17323TIP3   OH273383   5.848   0.685  12.457 -0.0342  0.3368 -0.3922
17323TIP3    H173384   5.841   0.696  12.362  1.2745  0.4922 -0.5011
17323TIP3    H273385   5.759   0.671  12.487 -0.4663  0.2811 -1.6515
17324TIP3   OH273386   4.746   6.624  13.306 -0.4672 -0.0963  0.1636
17324TIP3    H173387   4.823   6.620  13.249 -1.5369 -1.0956 -1.3251
17324TIP3    H273388   4.747   6.540  13.352  0.9180  1.0887  2.4489
17325TIP3   OH273389   2.637   4.123   0.142 -0.0632 -0.6322 -0.0267
17325TIP3    H173390   2.581   4.145   0.217  2.8681 -1.6312  2.6723
17325TIP3    H273391   2.685   4.203   0.123  0.9283 -1.0099  0.8211
17326TIP3   OH273392   1.058   3.301  14.308 -0.2982  0.0820 -0.0069
17326TIP3    H173393   1.073   3.221  14.257 -1.8040 -0.3158  0.1277
17326TIP3    H273394   0.972   3.332  14.279  1.5560  3.5479 -2.5068
17327TIP3   OH273395   6.695   2.178  12.551 -0.2405  0.3732 -0.4738
17327TIP3    H173396   6.721   2.161  12.641 -2.6581 -2.0029 -0.0952
17327TIP3    H273397   6.731   2.264  12.531  1.9634  0.1489  2.0848
17328TIP3   OH273398   3.996   1.192  15.555 -0.4083 -0.6163 -0.1731
17328TIP3    H173399   4.088   1.177  15.536 -0.4659 -1.6405  0.2664
17328TIP3    H273400   3.951   1.118  15.515 -1.2403  0.7240 -1.8452
17329TIP3   OH273401   4.850   2.423   5.867  0.3120 -0.2581  0.2940
17329TIP3    H173402   4.873   2.516   5.860  0.8138 -0.3910  0.1670
17329TIP3    H273403   4.823   2.412   5.958 -0.0409  0.0748  0.2360
17330TIP3   OH273404   6.035   1.211   3.957  0.5937 -0.2543  0.1554
17330TIP3    H173405   6.068   1.169   3.878  1.6583  1.1634 -0.1882
17330TIP3    H273406   5.962   1.265   3.926  0.4672 -0.3597  0.2725
17331TIP3   OH273407   4.989   1.334   3.347  0.9279  0.4496 -0.2292
17331TIP3    H173408   4.971   1.421   3.311  0.9692  1.0237  1.0801
17331TIP3    H273409   4.982   1.275   3.272  0.4138  1.5176 -1.0481
17332TIP3   OH273410   0.346   6.348   3.785 -0.2302 -0.1549 -0.7396
17332TIP3    H173411   0.376   6.397   3.862  2.0981 -1.4972 -0.7211
17332TIP3    H273412   0.341   6.414   3.716  0.0494  0.6292 -0.0332
17333TIP3   OH273413   6.708   0.681  16.454 -0.3425  0.5567 -0.1673
17333TIP3    H173414   6.700   0.669  16.359  1.3709  0.6977 -0.3538
17333TIP3    H273415   6.629   0.731  16.478  0.3950  2.7848 -1.9456
17334TIP3   OH273416   6.020   5.678   0.293 -0.0300  0.0659 -0.7259
17334TIP3    H173417   5.974   5.751   0.252 -1.6574 -0.5162 -0.0269
17334TIP3    H273418   6.059   5.630   0.220  0.1437  1.0173 -1.2759
17335TIP3   OH273419   3.195   2.327  12.459 -0.1320  0.0287  0.2844
17335TIP3    H173420   3.203   2.405  12.514 -1.2372  0.1137  0.3550
17335TIP3    H273421   3.100   2.315  12.449  0.0390 -0.8094 -0.4307
17336TIP3   OH273422   0.463   4.471   0.750  0.3850  0.1409  0.3368
17336TIP3    H173423   0.385   4.515   0.785  0.7532  1.8177 -0.8147
17336TIP3    H273424   0.536   4.512   0.798  0.7082  0.5210 -0.4602
17337TIP3   OH273425   0.311   4.050  17.336  0.2177  0.2875 -0.0430
17337TIP3    H173426   0.250   4.097  17.393 -0.2043 -0.3611  0.0419
17337TIP3    H273427   0.271   4.055  17.249 -0.2879 -0.6725  0.1176
17338TIP3   OH273428   3.206   4.645   3.347  0.2787 -0.2140  0.6750
17338TIP3    H173429   3.112   4.653   3.334  0.2117  0.9038  1.6851
17338TIP3    H273430   3.227   4.557   3.314 -1.1619 -0.6196  0.7526
17339TIP3   OH273431   0.107   0.070  12.909 -0.2574 -0.1025 -0.0741
17339TIP3    H173432   0.155   0.143  12.870 -0.3981 -0.6631 -1.3525
17339TIP3    H273433   0.115   0.083  13.003 -0.7879  1.8923 -0.2729
17340TIP3   OH273434   2.519   5.927   0.841 -0.2386 -0.2069  0.1072
17340TIP3    H173435   2.543   5.903   0.752  0.3238 -0.9307  0.4385
17340TIP3    H273436   2.493   6.019   0.835 -0.8467 -0.4334 -0.9108
17341TIP3   OH273437   5.804   4.697   5.748 -0.9389 -0.6244 -0.0936
17341TIP3    H173438   5.737   4.762   5.770 -0.3000  0.5158 -1.3779
17341TIP3    H273439   5.851   4.683   5.830 -2.1405 -0.7424  0.6030
17342TIP3   OH273440   2.461   1.804  16.716  0.1228 -0.0480  0.2452
17342TIP3    H173441   2.386   1.844  16.672  0.6065  1.2713  0.5622
17342TIP3    H273442   2.501   1.876  16.764  0.3785 -1.1669  1.7800
17343TIP3   OH273443   3.707   0.427  13.710  0.0725 -0.3863 -0.0442
17343TIP3    H173444   3.739   0.345  13.747  1.2007  0.3475  0.6602
17343TIP3    H273445   3.780   0.459  13.656  0.7913  1.5213  1.9109
17344TIP3   OH273446   2.631   1.458  17.040  0.0264 -0.0693 -0.2356
17344TIP3    H173447   2.721   1.492  17.037 -0.3311  0.9020 -0.2150
17344TIP3    H273448   2.604   1.455  16.948  0.5612 -1.7497 -0.3816
17345TIP3   OH273449   2.679   3.519   2.898  0.2885  0.1606  0.3439
17345TIP3    H173450   2.589   3.552   2.910  0.0278 -0.9250  1.7278
17345TIP3    H273451   2.699   3.536   2.806 -0.4673  2.5151  0.5455
17346TIP3   OH273452   5.604   1.498   1.297  0.3856 -0.0197  0.1908
17346TIP3    H173453   5.570   1.587   1.298  0.5852  0.0750  1.8389
17346TIP3    H273454   5.541   1.447   1.348 -0.3768 -1.1138 -1.7420
17347TIP3   OH273455   0.011   6.386   4.040  0.3184  0.0633  0.6870
17347TIP3    H173456   0.004   6.458   3.978 -0.7265 -0.8345 -0.3108
17347TIP3    H273457   0.028   6.309   3.985  0.3114 -0.6155  1.6073
17348TIP3   OH273458   6.515   4.861   4.372 -0.7316  0.2331 -0.0403
17348TIP3    H173459   6.563   4.939   4.400  2.1032 -0.4667 -2.4919
17348TIP3    H273460   6.434   4.895   4.334  1.1829  2.2762 -2.6311
17349TIP3   OH273461   0.229   0.152   2.750  0.5926 -0.1851 -0.2147
17349TIP3    H173462   0.240   0.070   2.799  2.0365  0.9532  1.4607
17349TIP3    H273463   0.266   0.132   2.664 -1.5403 -2.0619 -0.8096
17350TIP3   OH273464   6.672   4.146   0.731 -0.3957 -1.0381  0.2929
17350TIP3    H173465   6.636   4.144   0.643 -0.7525 -0.5680  0.4255
17350TIP3    H273466   6.628   4.219   0.774  0.9553 -0.2391  0.3612
17351TIP3   OH273467   2.274   2.479  15.780  0.5309  0.5479  0.5471
17351TIP3    H173468   2.325   2.560  15.785  1.5749  0.2706 -2.9199
17351TIP3    H273469   2.338   2.409  15.795  0.4934  0.2783 -0.4987
17352TIP3   OH273470   3.417   3.719  15.715  0.1480 -0.0628  0.5624
17352TIP3    H173471   3.425   3.771  15.796 -1.4796  2.3371 -0.6823
17352TIP3    H273472   3.495   3.741  15.665 -0.0314  0.4141  0.4813
17353TIP3   OH273473   0.347   6.192  14.421 -0.4857  0.3128 -0.1662
17353TIP3    H173474   0.355   6.110  14.371  0.2180  0.1419  0.2155
17353TIP3    H273475   0.432   6.235  14.411 -1.7696  2.5610 -2.9800
17354TIP3   OH273476   5.711   2.887  14.888 -0.2646 -0.5352 -0.3794
17354TIP3    H173477   5.702   2.799  14.853 -1.3479 -0.2952 -0.7608
17354TIP3    H273478   5.621   2.917  14.902  0.1148 -0.0074  1.0834
17355TIP3   OH273479   6.042   5.689  15.679 -0.2737  0.5099 -0.0434
17355TIP3    H173480   6.021   5.762  15.737  1.3370  0.6100  0.4688
17355TIP3    H273481   6.117   5.720  15.627 -2.1673  0.7607 -2.8792
17356TIP3   OH273482   4.910   1.568  15.894 -0.6254 -0.1885  0.4651
17356TIP3    H173483   4.860   1.559  15.976  0.0666 -0.0701  0.9046
17356TIP3    H273484   4.971   1.639  15.911  0.1058 -0.7289  0.1397
17357TIP3   OH273485   4.138   6.081   3.828  0.5545 -0.5202  0.0900
17357TIP3    H173486   4.200   6.136   3.780  0.7091 -1.5023 -0.8579
17357TIP3    H273487   4.091   6.143   3.885  0.7048  0.6052 -0.9661
17358TIP3   OH273488   3.996   3.714  17.067 -0.0085 -0.1627  0.2736
17358TIP3    H173489   3.950   3.715  17.151  0.4670  1.7315  0.5628
17358TIP3    H273490   3.927   3.707  17.002 -0.3528 -2.2034  0.7956
17359TIP3   OH273491   2.018   1.443  16.994 -0.2424 -0.0056  0.1191
17359TIP3    H173492   2.089   1.506  16.978  1.3600 -2.4255 -4.0793
17359TIP3    H273493   1.959   1.456  16.920 -3.0766  0.3281  2.2931
17360TIP3   OH273494   4.385   0.367  14.309  0.2027 -0.0821 -0.2737
17360TIP3    H173495   4.413   0.449  14.267  0.3806 -0.0844 -0.1605
17360TIP3    H273496   4.311   0.393  14.365  0.7165  0.1338  0.3162
17361TIP3   OH273497   3.595   2.156  16.959 -0.2114  0.1204 -0.5217
17361TIP3    H173498   3.675   2.105  16.958 -0.7136 -0.7480  0.9025
17361TIP3    H273499   3.611   2.225  17.023 -0.9357 -0.6621  0.5286
17362TIP3   OH273500   0.016   3.350  13.173  0.4503  0.1292 -0.0455
17362TIP3    H173501   0.002   3.387  13.086 -1.5746  1.0486  0.5983
17362TIP3    H273502   0.063   3.418  13.221 -1.8965  1.3792  0.6698
17363TIP3   OH273503   0.081   5.556  14.281 -0.0259 -0.1070  0.3714
17363TIP3    H173504   0.121   5.469  14.291  1.9747  0.6633 -0.4361
17363TIP3    H273505   0.151   5.611  14.246 -1.0547  2.0148  1.4518
17364TIP3   OH273506   0.713   3.234  13.074 -0.5037  0.5885  0.2012
17364TIP3    H173507   0.663   3.313  13.091  1.0040  1.6044  0.1303
17364TIP3    H273508   0.680   3.170  13.137 -2.1858  1.0516 -0.1720
17365TIP3   OH273509   6.348   4.284   0.163 -0.7651  0.0933 -0.3385
17365TIP3    H173510   6.327   4.365   0.210 -0.4873  0.2853 -0.5441
17365TIP3    H273511   6.266   4.234   0.165 -0.5578 -0.2267  0.9949
17366TIP3   OH273512   4.613   6.298   0.525  0.2802  0.0415  0.4219
17366TIP3    H173513   4.624   6.365   0.459 -1.4140 -1.1655 -1.1980
17366TIP3    H273514   4.701   6.262   0.538  0.5888 -0.1066 -1.6837
17367TIP3   OH273515   1.900   0.853  13.432  0.7196  0.0622  0.1203
17367TIP3    H173516   1.844   0.918  13.390  1.1729 -0.4331 -1.3135
17367TIP3    H273517   1.938   0.803  13.360  1.3164 -1.0243  1.1349
17368TIP3   OH273518   3.511   1.619   2.140  0.1232  0.2759  0.5513
17368TIP3    H173519   3.445   1.663   2.087 -0.2867  0.2903  1.0610
17368TIP3    H273520   3.515   1.530   2.105 -1.5372 -0.2972  1.6983
17369TIP3   OH273521   0.011   2.168   3.002 -0.0792  0.3977 -0.7310
17369TIP3    H173522  -0.068   2.133   2.961 -0.3011  0.1065 -0.0776
17369TIP3    H273523   0.010   2.131   3.091  1.0067  0.0440 -0.8408
17370TIP3   OH273524   1.516   2.896  11.464 -0.1005 -0.1035  0.0861
17370TIP3    H173525   1.563   2.829  11.514 -0.6692 -0.3404  0.3168
17370TIP3    H273526   1.579   2.968  11.455 -0.5152  0.7182  2.7353
17371TIP3   OH273527   4.433   0.641   2.843 -1.1136  0.6970  0.4453
17371TIP3    H173528   4.401   0.698   2.913  0.6626  1.1185  0.9895
17371TIP3    H273529   4.529   0.646   2.851 -0.8959 -0.8945 -0.7028
17372TIP3   OH273530   1.332   0.076  17.106 -0.6595 -0.5501 -0.2218
17372TIP3    H173531   1.379   0.062  17.024  0.8810  1.2407  0.3002
17372TIP3    H273532   1.285   0.158  17.094  0.7873  0.5385  1.1563
17373TIP3   OH273533   2.587   4.658  17.315 -0.0366 -0.5984  0.2049
17373TIP3    H173534   2.596   4.724  17.384 -2.1290 -0.7780  0.7277
17373TIP3    H273535   2.672   4.615  17.311  0.9375  1.1691  0.8334
17374TIP3   OH273536   2.285   2.996  11.984  0.0243  0.1604 -0.4447
17374TIP3    H173537   2.263   2.912  11.942  0.7685  0.1175 -0.7814
17374TIP3    H273538   2.254   2.987  12.074  1.1553 -0.9601 -0.1312
17375TIP3   OH273539   0.410   2.614  12.744 -0.0928  0.0639  0.5907
17375TIP3    H173540   0.442   2.583  12.828  0.3033  0.2714  0.5169
17375TIP3    H273541   0.435   2.546  12.682  1.7481  1.0034  0.2427
17376TIP3   OH273542   5.573   1.828   5.850  0.6391 -0.0535 -0.0473
17376TIP3    H173543   5.590   1.918   5.877 -0.1970 -0.4661  2.0498
17376TIP3    H273544   5.482   1.813   5.874  0.5393 -1.2409 -1.0784
17377TIP3   OH273545   6.036   4.094  10.743 -0.1279  0.2532  0.1807
17377TIP3    H173546   5.944   4.111  10.760 -0.2494  1.3601 -1.3524
17377TIP3    H273547   6.080   4.178  10.757  0.2304  0.3836 -1.5044
17378TIP3   OH273548   3.411   1.795   3.746  0.1677 -0.5096 -0.3344
17378TIP3    H173549   3.499   1.832   3.748  1.0251 -2.3972 -0.6902
17378TIP3    H273550   3.377   1.811   3.834  0.2008  1.6700 -0.6695
17379TIP3   OH273551   3.757   2.165  11.647 -1.0188 -0.0918 -0.4730
17379TIP3    H173552   3.703   2.095  11.685 -2.5661  0.3732 -1.6947
17379TIP3    H273553   3.838   2.162  11.697 -2.0433 -1.0409  1.2507
17380TIP3   OH273554   2.308   2.735  15.829 -0.0024 -0.6208  0.6074
17380TIP3    H173555   2.245   2.746  15.758 -0.2206 -1.1430  0.7106
17380TIP3    H273556   2.285   2.802  15.893  0.5237  0.1973 -0.0380
17381TIP3   OH273557   6.350   6.697  14.346 -0.1620 -0.5660 -0.0418
17381TIP3    H173558   6.384   6.755  14.414  1.4751  0.7741 -1.9033
17381TIP3    H273559   6.420   6.633  14.332 -0.3276 -0.6152 -0.6841
17382TIP3   OH273560   4.627   1.971  13.933  0.0743 -0.5400 -0.1111
17382TIP3    H173561   4.706   2.014  13.967  0.3130  0.1702 -1.5065
17382TIP3    H273562   4.586   2.037  13.877 -0.9837 -1.2433 -0.1852
17383TIP3   OH273563   6.093   4.228  14.886  0.4527  0.4255  0.1924
17383TIP3    H173564   6.034   4.301  14.863  0.5046  0.1064 -0.9984
17383TIP3    H273565   6.046   4.182  14.956 -0.3051  0.7020 -0.1143
17384TIP3   OH273566   0.787   5.392  12.797  0.0447 -0.1312 -0.0481
17384TIP3    H173567   0.693   5.374  12.798  0.0337 -0.3194  2.6764
17384TIP3    H273568   0.793   5.488  12.799 -0.0811 -0.1098 -0.6345
17385TIP3   OH273569   6.063   1.605   3.860  0.0739  0.9258 -0.1558
17385TIP3    H173570   6.058   1.698   3.880 -2.6396  0.6167  1.1103
17385TIP3    H273571   6.124   1.569   3.924 -2.0371  1.2760  2.2103
17386TIP3   OH273572   0.166   5.017   0.411  0.0933 -0.4865  0.0372
17386TIP3    H173573   0.254   4.992   0.383 -0.1306 -0.4428 -0.7318
17386TIP3    H273574   0.163   5.112   0.396 -0.9360 -0.8439 -2.4334
17387TIP3   OH273575   3.148   4.748   5.724 -0.0016 -0.3769 -0.2942
17387TIP3    H173576   3.161   4.753   5.818  1.1915 -0.9436 -0.4195
17387TIP3    H273577   3.063   4.790   5.710  0.0782  0.2484  0.9567
17388TIP3   OH273578   2.460   0.619   3.395  0.1627 -0.3618 -0.1412
17388TIP3    H173579   2.427   0.704   3.367  2.7006  1.5218  2.0984
17388TIP3    H273580   2.524   0.595   3.328  2.3187  1.5367  1.0888
17389TIP3   OH273581   4.535   1.810  12.483  0.2705 -0.7140 -0.6485
17389TIP3    H173582   4.521   1.794  12.389 -1.0920 -0.8685 -0.4492
17389TIP3    H273583   4.472   1.879  12.504  2.1229  0.9537 -0.2960
17390TIP3   OH273584   1.361   1.281   5.974 -0.2825  0.0717  0.0414
17390TIP3    H173585   1.455   1.276   5.991 -0.3839  0.9818  0.9852
17390TIP3    H273586   1.332   1.360   6.020 -1.2802  0.5609 -1.3375
17391TIP3   OH273587   2.065   1.133  11.123 -0.1215 -0.5275  0.4734
17391TIP3    H173588   2.161   1.126  11.127 -0.2333 -2.8503  0.8448
17391TIP3    H273589   2.040   1.076  11.051 -1.2362  0.0577  0.3797
17392TIP3   OH273590   3.208   3.559  12.804  0.0642 -0.1703 -0.5047
17392TIP3    H173591   3.292   3.535  12.844 -1.4274 -0.8395  2.5109
17392TIP3    H273592   3.212   3.654  12.793  1.6455 -0.3318 -1.5995
17393TIP3   OH273593   0.883   4.117  15.425 -0.1056 -0.0459 -0.1805
17393TIP3    H173594   0.826   4.087  15.354 -0.4025 -1.2430  0.5215
17393TIP3    H273595   0.950   4.169  15.382 -0.9718  0.2735 -1.1859
17394TIP3   OH273596   6.383   4.082   5.767 -0.5156  0.1734  0.0393
17394TIP3    H173597   6.402   4.030   5.845  0.8057  0.8235  0.1760
17394TIP3    H273598   6.292   4.062   5.746  0.1975 -2.9521 -0.4935
17395TIP3   OH273599   1.761   1.023  11.999  0.2041  0.0402 -0.1952
17395TIP3    H173600   1.767   1.105  11.950 -1.1868  1.1351  1.3769
17395TIP3    H273601   1.683   0.980  11.964  1.5801 -1.2771 -1.8603
17396TIP3   OH273602   5.702   5.396  12.646  0.3609 -0.1859 -0.5344
17396TIP3    H173603   5.793   5.411  12.619  1.4462 -0.2095  2.6612
17396TIP3    H273604   5.706   5.390  12.741 -3.0776  0.1157 -0.2381
17397TIP3   OH273605   1.285   2.485  11.089 -0.1057 -0.2384 -0.5529
17397TIP3    H173606   1.198   2.502  11.054 -0.7473  0.0169  1.0777
17397TIP3    H273607   1.275   2.490  11.184  1.8626  0.6662 -0.3330
17398TIP3   OH273608   5.057   2.486   1.167  0.9444  0.7596 -0.5340
17398TIP3    H173609   5.022   2.485   1.256 -0.4067 -3.6532 -0.8438
17398TIP3    H273610   5.150   2.469   1.177  0.6949 -0.3102  0.0663
17399TIP3   OH273611   1.899   1.362  14.018 -0.1009 -0.4989 -0.5077
17399TIP3    H173612   1.900   1.334  14.109 -0.5446 -2.0894 -0.9512
17399TIP3    H273613   1.989   1.347  13.987  0.0145 -0.0884 -0.3808
17400TIP3   OH273614   1.668   0.933   5.248  0.3071  0.4730  0.1703
17400TIP3    H173615   1.605   0.938   5.176  0.4005  0.4357  0.0857
17400TIP3    H273616   1.620   0.966   5.324  0.7429  2.2124 -0.2644
17401TIP3   OH273617   3.767   2.505  14.830 -0.0480  0.1180  0.2467
17401TIP3    H173618   3.765   2.465  14.743 -0.7202 -1.0152  0.7642
17401TIP3    H273619   3.801   2.593  14.814 -0.6982  0.1418 -1.2532
17402TIP3   OH273620   5.716   2.736   1.400  0.6143 -0.1518 -0.1778
17402TIP3    H173621   5.761   2.820   1.405  1.8883 -0.6819 -1.7151
17402TIP3    H273622   5.634   2.754   1.355 -0.8314  0.8323  2.6516
17403TIP3   OH273623   5.593   3.512   1.709 -0.2124 -0.3341  0.6034
17403TIP3    H173624   5.518   3.498   1.768 -1.2432  0.1230 -0.5588
17403TIP3    H273625   5.567   3.585   1.654  0.7141 -0.7846 -0.4678
17404TIP3   OH273626   4.459   2.804  11.392 -0.4752 -0.2476  0.1747
17404TIP3    H173627   4.491   2.715  11.380 -0.6434 -0.2874  0.0167
17404TIP3    H273628   4.391   2.814  11.326 -0.1114  0.1636 -0.1433
17405TIP3   OH273629   6.269   5.588   5.788 -0.1388 -0.1690  0.6953
17405TIP3    H173630   6.296   5.613   5.877 -0.2380 -0.3432  0.7727
17405TIP3    H273631   6.174   5.599   5.787 -0.2256 -0.8952  0.8367
17406TIP3   OH273632   6.298   1.105   0.977 -0.4929 -0.2396 -0.2354
17406TIP3    H173633   6.322   1.169   0.909  0.1327 -0.9479 -0.6865
17406TIP3    H273634   6.300   1.156   1.059 -0.2191  0.3755 -0.6151
17407TIP3   OH273635   1.281   2.372   2.514 -0.2977 -0.8361  0.0810
17407TIP3    H173636   1.196   2.411   2.533  0.1737  1.0859 -1.4312
17407TIP3    H273637   1.261   2.282   2.489 -1.7756 -0.6727  0.5831
17408TIP3   OH273638   3.407   4.465  13.781  0.1016  0.6800 -0.0214
17408TIP3    H173639   3.401   4.530  13.711  0.0602 -0.9952 -1.6617
17408TIP3    H273640   3.496   4.430  13.773 -0.5553 -0.9778 -0.6582
17409TIP3   OH273641   6.276   6.555   6.020 -0.1099 -0.5386 -0.6517
17409TIP3    H173642   6.230   6.496   6.080 -0.6140  0.7059  0.2231
17409TIP3    H273643   6.296   6.501   5.943 -0.5190 -1.8458  0.1339
17410TIP3   OH273644   1.171   1.828  14.216  0.0131 -0.0331 -0.3724
17410TIP3    H173645   1.151   1.790  14.301  1.9477 -0.5020 -0.0842
17410TIP3    H273646   1.129   1.770  14.153 -0.6606 -0.1980  0.2131
17411TIP3   OH273647   4.498   4.613  16.704 -0.1747  0.2404  0.2965
17411TIP3    H173648   4.442   4.537  16.716  0.1285 -0.0651 -0.1562
17411TIP3    H273649   4.490   4.634  16.611  2.3588 -1.3668 -0.3866
17412TIP3   OH273650   5.541   2.026   5.577  0.2379 -0.4051  0.5272
17412TIP3    H173651   5.518   1.937   5.604  0.0927 -1.1345 -1.8060
17412TIP3    H273652   5.634   2.035   5.598  0.1888 -0.9853  1.0212
17413TIP3   OH273653   2.717   4.890   0.660 -0.2661  0.2430  0.2250
17413TIP3    H173654   2.784   4.958   0.667  1.0433 -0.9294 -0.3651
17413TIP3    H273655   2.661   4.904   0.736  0.8470  1.0654  0.9339
17414TIP3   OH273656   5.144   4.739   0.440 -0.2101  0.1073 -0.2076
17414TIP3    H173657   5.054   4.736   0.474 -0.3616  0.7690 -0.5381
17414TIP3    H273658   5.193   4.788   0.506  0.0704 -0.8491  0.3137
17415TIP3   OH273659   6.482   3.574   1.741  0.5463 -0.5533  0.1154
17415TIP3    H173660   6.448   3.497   1.786  1.5376 -0.6761  0.6706
17415TIP3    H273661   6.436   3.575   1.657  1.2245 -2.2876 -0.2998
17416TIP3   OH273662   6.726   5.495   1.276  0.4490  0.4858 -0.5521
17416TIP3    H173663   6.774   5.573   1.248  1.6556  0.1265  0.4474
17416TIP3    H273664   6.778   5.458   1.346  0.7462 -2.1176 -2.0030
17417TIP3   OH273665   2.481   6.104   4.625 -0.0718 -0.2672 -0.1955
17417TIP3    H173666   2.441   6.075   4.707  0.4264  0.6903  0.4095
17417TIP3    H273667   2.572   6.073   4.632  1.0086  2.7679  1.2868
17418TIP3   OH273668   0.086   1.609  15.651  0.5509 -0.8917  0.4294
17418TIP3    H173669   0.041   1.529  15.626  0.8454 -0.9051 -0.0777
17418TIP3    H273670   0.020   1.678  15.643  1.0494 -0.5983 -2.1976
17419TIP3   OH273671   1.093   1.036   0.792  0.3391 -0.4831 -0.3788
17419TIP3    H173672   1.033   1.064   0.861 -0.0091 -1.3980 -0.2896
17419TIP3    H273673   1.135   1.116   0.762  0.8112 -0.1245  1.1797
17420TIP3   OH273674   0.814   6.366   1.123  0.1468  0.3862 -0.0526
17420TIP3    H173675   0.889   6.309   1.140  1.0252  1.4096 -0.3390
17420TIP3    H273676   0.796   6.408   1.207  1.5035  1.9637 -0.4883
17421TIP3   OH273677   3.162   3.255   5.418  0.1857 -0.0028 -0.0234
17421TIP3    H173678   3.174   3.309   5.340  0.8931  0.3393  0.3048
17421TIP3    H273679   3.242   3.270   5.469 -0.0163 -0.6644  0.4967
17422TIP3   OH273680   3.298   2.686   4.724  0.5058  0.0609  0.2297
17422TIP3    H173681   3.320   2.738   4.647  1.1760 -0.7799 -0.1762
17422TIP3    H273682   3.359   2.715   4.792  0.7277 -0.0263  0.0702
17423TIP3   OH273683   2.126   4.511   5.248 -0.0335 -0.1257 -0.1809
17423TIP3    H173684   2.087   4.596   5.227 -0.1494 -0.4553 -1.3308
17423TIP3    H273685   2.215   4.533   5.277  0.0502  0.3649 -0.7863
17424TIP3   OH273686   1.221   5.633  16.980  0.2900  0.0352  0.2540
17424TIP3    H173687   1.191   5.657  17.068  1.1582 -1.5857  1.0471
17424TIP3    H273688   1.270   5.551  16.993 -0.7412 -1.0247 -1.9362
17425TIP3   OH273689   0.026   5.652   3.288  1.0827 -0.9540  0.1601
17425TIP3    H173690   0.095   5.717   3.301  1.8471 -1.3197 -1.6823
17425TIP3    H273691  -0.055   5.702   3.289  1.5989 -0.0724 -0.4162
17426TIP3   OH273692   6.361   5.701   3.710  0.2550 -0.6856 -0.2915
17426TIP3    H173693   6.413   5.714   3.789  0.3634 -0.6406 -0.3689
17426TIP3    H273694   6.420   5.726   3.638 -0.6343  1.7613 -0.2619
17427TIP3   OH273695   0.277   2.637  14.628 -0.4106  0.5298 -0.3289
17427TIP3    H173696   0.208   2.645  14.694  0.5498  0.2606  0.7480
17427TIP3    H273697   0.349   2.595  14.675  1.2814  2.7101 -0.8086
17428TIP3   OH273698   5.507   3.644   1.457 -0.1732 -0.1214 -0.2498
17428TIP3    H173699   5.509   3.739   1.451 -1.8301 -0.0052  0.5018
17428TIP3    H273700   5.598   3.617   1.444  0.0123  1.3809 -2.6727
17429TIP3   OH273701   4.673   6.196  16.298  0.3017  0.3095 -0.1069
17429TIP3    H173702   4.600   6.188  16.359  0.7720  0.8238  0.5356
17429TIP3    H273703   4.673   6.113  16.250 -0.5901  0.2378  0.0046
17430TIP3   OH273704   2.462   2.260   3.854 -0.1766 -0.0699 -0.1291
17430TIP3    H173705   2.536   2.222   3.903  1.0468  0.6130 -1.3802
17430TIP3    H273706   2.399   2.283   3.922  0.9139 -0.3258  1.0272
17431TIP3   OH273707   4.918   3.557  17.362 -0.0248 -0.0572 -0.2717
17431TIP3    H173708   4.833   3.513  17.362 -0.1359  0.1085  0.8789
17431TIP3    H273709   4.902   3.641  17.318 -0.3665 -0.1888 -0.4007
17432TIP3   OH273710   5.916   4.312   3.557 -0.5250  0.2094 -0.2253
17432TIP3    H173711   5.844   4.257   3.588 -1.6359  1.3081 -0.7504
17432TIP3    H273712   5.976   4.251   3.514 -0.0303 -1.0290  2.0638
17433TIP3   OH273713   4.833   4.339   5.160  0.4768  0.0418  0.4072
17433TIP3    H173714   4.760   4.381   5.113  0.5352  0.4313  0.6586
17433TIP3    H273715   4.799   4.255   5.188 -0.1746  0.5890  1.3021
17434TIP3   OH273716   2.570   5.108  16.344 -0.3675  0.4331 -0.8871
17434TIP3    H173717   2.527   5.178  16.294  1.9502  2.0332 -0.8048
17434TIP3    H273718   2.640   5.077  16.286 -0.0467 -0.3751 -0.0871
17435TIP3   OH273719   3.467   0.229  14.214 -0.3690 -0.3080 -0.0223
17435TIP3    H173720   3.422   0.150  14.245 -0.2286 -0.3756  0.0071
17435TIP3    H273721   3.396   0.288  14.188 -0.4581 -0.8409 -1.0362
17436TIP3   OH273722   3.223   3.185  10.597  0.0076 -0.2609  0.0158
17436TIP3    H173723   3.235   3.093  10.619  0.5131 -0.1883  0.0677
17436TIP3    H273724   3.199   3.228  10.679 -0.1594 -0.3344  0.0052
17437TIP3   OH273725   4.182   0.873   4.584 -0.8619 -0.0434 -0.1947
17437TIP3    H173726   4.132   0.943   4.625  1.0514  1.4224 -0.2143
17437TIP3    H273727   4.187   0.804   4.650  2.3940  2.3491  2.3904
17438TIP3   OH273728   5.156   6.689   2.465 -0.4220  0.2311 -0.3374
17438TIP3    H173729   5.080   6.741   2.492 -1.5959 -1.1044 -0.9302
17438TIP3    H273730   5.137   6.663   2.375  0.2379 -0.9976 -0.1471
17439TIP3   OH273731   3.223   5.635  11.660 -0.2380 -0.3457  0.6797
17439TIP3    H173732   3.206   5.726  11.684  0.1678 -0.5437  1.8028
17439TIP3    H273733   3.229   5.635  11.565  0.7964  0.9861  0.7272
17440TIP3   OH273734   4.157   2.715  12.936 -0.6245  0.4714  1.1844
17440TIP3    H173735   4.243   2.718  12.976 -0.2237  0.2373  0.3552
17440TIP3    H273736   4.131   2.623  12.939 -0.1997  0.3014  0.1156
17441TIP3   OH273737   0.562   6.622  16.737  0.0536  0.1342  0.4150
17441TIP3    H173738   0.538   6.646  16.647 -0.7924  0.3560  0.6949
17441TIP3    H273739   0.515   6.684  16.792 -1.4287 -1.5003  1.1132
17442TIP3   OH273740   5.690   0.346  12.622 -0.2288  0.1000 -0.5928
17442TIP3    H173741   5.626   0.363  12.691 -0.4936 -1.0380 -0.5458
17442TIP3    H273742   5.768   0.394  12.650 -1.0186  1.4326 -0.6138
17443TIP3   OH273743   4.884   0.447  16.633  0.1097  0.0484 -0.2842
17443TIP3    H173744   4.940   0.401  16.571 -1.9956 -0.4451 -1.9162
17443TIP3    H273745   4.890   0.539  16.607  0.5275  0.0653 -0.1337
17444TIP3   OH273746   5.740   2.547   5.701 -0.1207 -0.1839 -0.1714
17444TIP3    H173747   5.725   2.458   5.734 -1.2472 -0.0657 -0.3362
17444TIP3    H273748   5.758   2.535   5.608 -0.4093 -0.2283 -0.2217
17445TIP3   OH273749   0.767   1.404   0.876  0.2190  0.0402 -0.0061
17445TIP3    H173750   0.769   1.400   0.972  0.8912 -0.6841 -0.0456
17445TIP3    H273751   0.680   1.438   0.856  1.2225  3.5842  0.9647
17446TIP3   OH273752   2.951   5.738  13.973 -0.7580 -0.1105 -0.2882
17446TIP3    H173753   2.965   5.654  14.016 -3.0727 -0.7295 -0.5821
17446TIP3    H273754   2.887   5.720  13.904 -1.6293  1.9374 -0.1137
17447TIP3   OH273755   0.242   4.871   6.471  0.0451 -0.5491 -0.1234
17447TIP3    H173756   0.300   4.805   6.508  1.6144  0.0934 -1.3228
17447TIP3    H273757   0.294   4.950   6.467 -0.3889 -0.2894 -2.5444
17448TIP3   OH273758   5.219   0.461  13.816 -1.4050 -0.3425  0.3129
17448TIP3    H173759   5.193   0.527  13.879 -1.7570 -1.8186  1.7705
17448TIP3    H273760   5.149   0.395  13.819 -1.5839 -0.3250 -1.8395
17449TIP3   OH273761   0.502   2.396  15.649  0.0669 -0.0181  0.1043
17449TIP3    H173762   0.503   2.365  15.739 -0.8982 -1.7955 -0.4438
17449TIP3    H273763   0.566   2.341  15.604 -0.2305  0.1205 -0.5020
17450TIP3   OH273764   6.281   6.147   4.115  0.3986  0.7648  0.4684
17450TIP3    H173765   6.331   6.101   4.047 -1.0516  1.4194 -1.1073
17450TIP3    H273766   6.332   6.225   4.134  0.5619  0.8461 -0.2736
17451TIP3   OH273767   4.641   5.246   2.164  0.5860  0.6355 -0.1214
17451TIP3    H173768   4.619   5.206   2.248 -3.1164  1.1559 -0.6612
17451TIP3    H273769   4.560   5.288   2.136  2.0246  1.5372 -3.4011
17452TIP3   OH273770   5.443   0.633  11.046  0.6629  0.5605 -0.2465
17452TIP3    H173771   5.352   0.648  11.019  0.0671 -1.2543  0.5334
17452TIP3    H273772   5.438   0.557  11.105  2.5921  0.9337  0.4802
17453TIP3   OH273773   1.976   5.935   3.965 -0.4200  0.3403 -0.3874
17453TIP3    H173774   2.071   5.943   3.965 -0.5739  3.3732  0.2308
17453TIP3    H273775   1.947   5.995   4.033 -2.7814 -1.5645  0.4476
17454TIP3   OH273776   0.947   3.728   3.626 -0.3946 -0.3949  0.6778
17454TIP3    H173777   0.937   3.658   3.690 -0.2759 -0.1234  0.9971
17454TIP3    H273778   0.861   3.736   3.586 -0.6000 -0.2376  1.1492
17455TIP3   OH273779   0.149   2.078  14.402 -0.5309  0.3189  0.4838
17455TIP3    H173780   0.180   2.156  14.448  3.2243 -1.3643  1.1694
17455TIP3    H273781   0.095   2.032  14.466 -1.1500  1.3780  0.7386
17456TIP3   OH273782   6.092   3.483   3.082 -0.2463  0.4533 -0.0357
17456TIP3    H173783   6.018   3.444   3.129 -0.9506  1.4939 -0.2512
17456TIP3    H273784   6.166   3.475   3.143 -0.6784 -0.0038  0.4418
17457TIP3   OH273785   5.530   6.330  14.256  0.5097  0.0931 -0.0626
17457TIP3    H173786   5.439   6.300  14.250  0.6255 -0.3656  0.3545
17457TIP3    H273787   5.579   6.252  14.283  0.7520  0.7602  1.5968
17458TIP3   OH273788   0.607   4.758  11.824 -0.0069 -0.0621 -0.3766
17458TIP3    H173789   0.635   4.746  11.915 -0.8183 -1.2376 -0.2495
17458TIP3    H273790   0.526   4.809  11.830  1.3891  2.3267 -0.6654
17459TIP3   OH273791   6.481   6.241  14.609 -0.5653  0.1745 -0.6160
17459TIP3    H173792   6.555   6.188  14.581  1.4368  0.5217  3.2541
17459TIP3    H273793   6.408   6.213  14.554  1.6077 -2.7305 -2.2819
17460TIP3   OH273794   4.606   0.898  16.800  0.3651  0.7636 -0.2147
17460TIP3    H173795   4.643   0.948  16.728 -1.7677  1.5337 -0.8616
17460TIP3    H273796   4.612   0.806  16.772 -0.0480  1.0265 -1.1775
17461TIP3   OH273797   0.149   4.734  11.743 -0.1694 -0.8360 -0.1538
17461TIP3    H173798   0.233   4.693  11.726  0.9063  0.3295  1.9087
17461TIP3    H273799   0.171   4.816  11.788 -2.4176 -1.5219  2.4527
17462TIP3   OH273800   5.764   2.462  11.013  0.5538  0.4329  0.2416
17462TIP3    H173801   5.710   2.506  10.948 -0.5877 -0.4732  0.5426
17462TIP3    H273802   5.703   2.439  11.083  1.3729 -0.4125  0.7056
17463TIP3   OH273803   3.777   1.665   2.199 -0.0896 -0.1826  0.1294
17463TIP3    H173804   3.803   1.575   2.178  0.7857  0.3994 -1.4372
17463TIP3    H273805   3.688   1.673   2.165  0.4989  0.0651 -1.4483
17464TIP3   OH273806   0.820   1.160  17.169  0.3250  0.0378 -0.0134
17464TIP3    H173807   0.812   1.070  17.137 -1.5803  0.6829 -1.5429
17464TIP3    H273808   0.855   1.209  17.094  0.3134  0.7703  0.4495
17465TIP3   OH273809   2.280   2.357   2.657 -0.2128 -0.5357  0.3828
17465TIP3    H173810   2.307   2.424   2.719 -0.2480  0.1884 -0.3692
17465TIP3    H273811   2.185   2.355   2.663 -0.2852  0.2024 -0.3054
17466TIP3   OH273812   5.911   0.327   0.571  0.0124  0.6529  0.5666
17466TIP3    H173813   5.966   0.249   0.566  0.2885  0.8676  0.2410
17466TIP3    H273814   5.920   0.368   0.485 -1.1996  0.3282  0.2707
17467TIP3   OH273815   3.056   3.875  12.490 -0.2862  0.1107  0.1427
17467TIP3    H173816   3.053   3.832  12.405  0.2737 -2.0439  1.1276
17467TIP3    H273817   2.974   3.850  12.532 -0.2280  0.5283  0.5091
17468TIP3   OH273818   0.919   4.099  14.716 -0.0597 -0.3520 -0.1380
17468TIP3    H173819   0.979   4.150  14.769  0.6201  0.0191 -1.2300
17468TIP3    H273820   0.959   4.012  14.710 -0.1085 -0.3781 -0.0911
17469TIP3   OH273821   6.731   4.027  13.646 -0.0563  0.0841 -0.3065
17469TIP3    H173822   6.717   4.108  13.695 -0.2009 -1.3045  2.0851
17469TIP3    H273823   6.643   3.993  13.630 -0.0094  0.5012 -1.5708
17470TIP3   OH273824   3.896   2.859   5.026  0.1371  0.8858 -0.2057
17470TIP3    H173825   3.815   2.904   5.049  0.5199  0.8145  1.4341
17470TIP3    H273826   3.914   2.803   5.101  0.8394 -0.3531 -1.2688
17471TIP3   OH273827   0.148   5.534  13.094  0.2760  0.0703  0.3031
17471TIP3    H173828   0.106   5.600  13.149  1.0727  0.5131  0.4034
17471TIP3    H273829   0.228   5.577  13.063  0.9228 -0.9373  0.5624
17472TIP3   OH273830   0.417   2.819  14.011 -0.0463 -0.0348 -0.2501
17472TIP3    H173831   0.392   2.754  14.076  1.4632  1.1138  1.6051
17472TIP3    H273832   0.482   2.775  13.956 -0.7158 -0.7501 -0.4925
17473TIP3   OH273833   5.913   6.661  14.216 -0.2406  0.3697  0.1077
17473TIP3    H173834   5.900   6.573  14.181 -1.6476  0.4323  0.4243
17473TIP3    H273835   6.008   6.675  14.210  0.0099 -1.1471  0.0190
17474TIP3   OH273836   0.641   3.039   5.555  0.2670 -0.2930 -0.5967
17474TIP3    H173837   0.634   3.014   5.647 -1.3272 -2.2181 -1.1550
17474TIP3    H273838   0.716   2.990   5.522  0.4448 -0.0976 -0.4904
17475TIP3   OH273839   5.739   3.709  13.994  0.0489  0.3283 -0.9095
17475TIP3    H173840   5.687   3.640  14.034 -1.7620  1.0766 -1.8229
17475TIP3    H273841   5.774   3.671  13.914  0.0193  0.1284 -0.8264
17476TIP3   OH273842   3.925   2.030   0.165 -0.8267 -0.3971 -0.2192
17476TIP3    H173843   3.995   1.978   0.205  1.1681  1.2593 -1.3608
17476TIP3    H273844   3.865   2.049   0.237  0.3030 -1.2394  0.9900
17477TIP3   OH273845   5.852   1.782   4.603  0.5814 -0.4702 -0.4237
17477TIP3    H173846   5.900   1.701   4.619 -0.3665 -0.8265  0.8061
17477TIP3    H273847   5.844   1.787   4.508 -0.4332 -2.4971 -0.4897
17478TIP3   OH273848   1.203   2.613   4.552  0.1435  0.1126  0.3557
17478TIP3    H173849   1.279   2.570   4.590 -1.0268 -1.5585  0.8803
17478TIP3    H273850   1.178   2.557   4.478 -0.5837  0.6371  0.1946
17479TIP3   OH273851   2.480   3.173   5.523  0.2030  0.1705 -0.7431
17479TIP3    H173852   2.521   3.211   5.446 -0.3884 -1.2924 -1.8163
17479TIP3    H273853   2.521   3.087   5.533 -0.0612  0.1481  0.3075
17480TIP3   OH273854   5.862   0.967   1.858  0.6135 -0.0845 -0.2114
17480TIP3    H173855   5.860   1.061   1.840  0.4703  0.8546  3.8342
17480TIP3    H273856   5.775   0.935   1.833  0.5837  0.8384 -1.3722
17481TIP3   OH273857   1.160   1.767   1.680  0.4172  0.0762  0.2095
17481TIP3    H173858   1.064   1.761   1.673  0.5169 -0.9402 -0.6115
17481TIP3    H273859   1.188   1.678   1.702  1.3544 -0.3989 -2.5293
17482TIP3   OH273860   2.304   2.235  14.268  0.0642 -0.1530 -0.1679
17482TIP3    H173861   2.285   2.141  14.263  0.9047 -0.2629 -2.0454
17482TIP3    H273862   2.394   2.242  14.236 -0.0909  1.3421 -0.3114
17483TIP3   OH273863   4.699   1.553   1.866  1.1395 -0.3114 -0.2515
17483TIP3    H173864   4.634   1.523   1.802  1.7688  0.1558 -1.1378
17483TIP3    H273865   4.667   1.638   1.894 -0.2438 -1.3795  1.6879
17484TIP3   OH273866   2.867   2.511  11.655  0.5438  1.2082  0.0813
17484TIP3    H173867   2.926   2.527  11.581 -1.8260  0.6045 -2.0724
17484TIP3    H273868   2.779   2.527  11.620 -0.8524 -1.1771  2.1716
17485TIP3   OH273869   5.175   5.192  11.367  0.6207  0.1028 -0.3183
17485TIP3    H173870   5.211   5.267  11.415  0.3109 -0.2439  0.4650
17485TIP3    H273871   5.157   5.227  11.279  1.8522  0.5508 -0.4064
17486TIP3   OH273872   4.727   5.168  14.132 -0.1518 -0.1693  0.3310
17486TIP3    H173873   4.783   5.111  14.184  1.2657  1.0163  0.1762
17486TIP3    H273874   4.761   5.160  14.043 -1.4337 -0.8290 -0.1286
17487TIP3   OH273875   4.417   0.918  16.493 -0.2353  0.1224  0.0477
17487TIP3    H173876   4.408   0.989  16.430  0.1652  2.1323  2.1170
17487TIP3    H273877   4.511   0.902  16.498 -0.1651  0.7163  0.8590
17488TIP3   OH273878   0.940   6.018   1.555 -0.0835 -0.0709 -0.6896
17488TIP3    H173879   0.844   6.028   1.558 -0.1213 -0.7070  0.6201
17488TIP3    H273880   0.969   6.095   1.506 -1.1760  0.8311  0.0083
17489TIP3   OH273881   2.147   0.861   1.962 -0.2395  0.1254 -0.0522
17489TIP3    H173882   2.202   0.794   2.002 -1.9838 -1.9147 -0.8963
17489TIP3    H273883   2.208   0.918   1.916  1.4502  0.1845  2.1148
17490TIP3   OH273884   5.112   3.065   4.198 -0.4437  0.3461 -0.0114
17490TIP3    H173885   5.050   3.009   4.151 -2.2844  0.6127  1.9434
17490TIP3    H273886   5.106   3.149   4.154  0.8852 -0.3915 -1.7383
17491TIP3   OH273887   0.809   5.471   5.877  0.5488 -0.7314  0.5536
17491TIP3    H173888   0.728   5.463   5.826  0.9027  1.8565 -0.5735
17491TIP3    H273889   0.876   5.430   5.822  0.4357 -0.5154  0.2498
17492TIP3   OH273890   1.915   2.056  12.030  0.1295  0.0932  0.3303
17492TIP3    H173891   1.828   2.052  12.071 -0.9198 -0.0023 -1.7756
17492TIP3    H273892   1.903   2.014  11.945  1.4212  2.9396 -1.3782
17493TIP3   OH273893   4.621   1.029  13.797  0.2974 -0.3573  0.1006
17493TIP3    H173894   4.615   1.123  13.783  1.2716 -0.4279 -1.0035
17493TIP3    H273895   4.585   0.990  13.718  0.5523 -0.9007  0.2436
17494TIP3   OH273896   0.262   4.222  11.178  0.8093 -0.2768 -0.1104
17494TIP3    H173897   0.210   4.301  11.162  1.8284  0.5201  0.3838
17494TIP3    H273898   0.246   4.167  11.102 -2.6755 -1.1671  1.1009
17495TIP3   OH273899   5.634   5.087  11.577 -0.4553 -0.0410  0.7129
17495TIP3    H173900   5.605   5.094  11.486 -0.0741  0.1138  0.6013
17495TIP3    H273901   5.700   5.017  11.575  2.3539  2.4251  0.1377
17496TIP3   OH273902   5.559   1.880   0.086  0.3601 -0.0521  0.3186
17496TIP3    H173903   5.537   1.973   0.089 -0.6404 -0.2839  0.4451
17496TIP3    H273904   5.565   1.859  -0.007 -0.7299 -0.1543  0.2644
17497TIP3   OH273905   4.753   0.188   5.685 -0.4781 -0.5014  0.1508
17497TIP3    H173906   4.757   0.179   5.780 -0.9034 -0.9206  0.1347
17497TIP3    H273907   4.664   0.162   5.662  0.2463 -2.5707 -0.5774
17498TIP3   OH273908   2.673   5.584  11.235 -0.7722 -0.2238 -0.5674
17498TIP3    H173909   2.598   5.586  11.294  0.1887 -0.2238  0.6922
17498TIP3    H273910   2.648   5.521  11.167 -2.4418  0.7818 -0.9419
17499TIP3   OH273911   5.335   6.530  16.445  0.3441  0.2239 -0.5478
17499TIP3    H173912   5.299   6.455  16.492 -1.5603  0.6610 -1.2355
17499TIP3    H273913   5.391   6.574  16.510  1.3681 -1.6614 -0.0964
17500TIP3   OH273914   4.733   1.773   1.241 -0.1262  0.9028 -0.0052
17500TIP3    H173915   4.820   1.810   1.254  0.2785 -0.0216  0.0044
17500TIP3    H273916   4.728   1.700   1.303 -0.8174  0.8041 -0.1636
17501TIP3   OH273917   4.775   6.050   5.153  0.1052 -0.2652 -0.3019
17501TIP3    H173918   4.808   6.001   5.078  0.0776  0.1002 -0.5568
17501TIP3    H273919   4.844   6.045   5.218 -0.0799 -1.0184 -0.1583
17502TIP3   OH273920   0.132   5.049   3.050  0.3520  1.1750  0.2453
17502TIP3    H173921   0.104   5.095   3.129  0.0259  0.8027  0.3516
17502TIP3    H273922   0.225   5.032   3.064 -0.2221 -1.2141  1.7644
17503TIP3   OH273923   6.238   2.159   0.374 -0.1472  0.1977 -0.4298
17503TIP3    H173924   6.154   2.145   0.330 -0.6067 -2.6586  1.0873
17503TIP3    H273925   6.217   2.213   0.449 -0.4408  0.3095 -0.5913
17504TIP3   OH273926   5.977   2.252   5.378  0.1967  0.0920 -0.0732
17504TIP3    H173927   5.950   2.269   5.469  0.7434 -0.5693  0.2202
17504TIP3    H273928   5.986   2.339   5.340 -3.1904  0.3987 -0.4793
17505TIP3   OH273929   5.411   2.143   0.173 -0.1358 -0.3078  0.6960
17505TIP3    H173930   5.354   2.217   0.151 -0.0748 -0.1976  0.9058
17505TIP3    H273931   5.352   2.068   0.181 -0.1325 -0.3985 -0.0638
17506TIP3   OH273932   1.292   2.168   4.894 -0.0234  0.4178  0.3161
17506TIP3    H173933   1.281   2.257   4.928 -0.7230  0.8051 -0.8759
17506TIP3    H273934   1.294   2.178   4.799  2.8716 -0.5297  0.1667
17507TIP3   OH273935   4.389   0.896   4.113  0.2041 -0.6120 -0.5841
17507TIP3    H173936   4.312   0.843   4.132 -0.6091  0.7717  0.1278
17507TIP3    H273937   4.378   0.975   4.165  2.4560 -0.6527  0.0935
17508TIP3   OH273938   1.827   5.602   1.024  0.8882 -0.2373  0.5209
17508TIP3    H173939   1.739   5.615   1.057  0.6993 -3.2992  1.5418
17508TIP3    H273940   1.880   5.669   1.068 -0.4769 -0.0318  1.9268
17509TIP3   OH273941   4.619   3.600   5.154 -0.3741  0.4888 -0.1138
17509TIP3    H173942   4.549   3.545   5.118  0.5989  0.0555 -1.4083
17509TIP3    H273943   4.634   3.565   5.242 -0.5557 -0.5873 -0.4985
17510TIP3   OH273944   6.035   1.745  13.464  0.5594  0.3511  0.4771
17510TIP3    H173945   6.097   1.741  13.391  0.4153 -1.0457  0.3998
17510TIP3    H273946   6.088   1.771  13.539  1.3539 -1.1923  0.4879
17511TIP3   OH273947   6.511   5.985   6.243  0.1364  0.2210 -0.1788
17511TIP3    H173948   6.422   5.962   6.216  0.2745 -1.7672  0.9096
17511TIP3    H273949   6.502   6.014   6.334  0.2683  2.8107 -0.8860
17512TIP3   OH273950   0.469   0.212  14.998  0.2650  0.0591  0.7264
17512TIP3    H173951   0.479   0.235  15.090 -1.3098  0.5498  0.7932
17512TIP3    H273952   0.407   0.139  14.997  0.7250 -0.3388  0.0903
17513TIP3   OH273953   1.879   2.481  10.466  0.3888  0.6191  0.0989
17513TIP3    H173954   1.896   2.469  10.560  0.7347  0.0315 -0.0333
17513TIP3    H273955   1.800   2.429  10.450  1.1257 -0.4535 -0.2038
17514TIP3   OH273956   4.087   5.158  15.371 -0.6689 -0.4448 -0.2176
17514TIP3    H173957   4.147   5.129  15.302 -0.5122 -1.4146  0.3198
17514TIP3    H273958   4.130   5.132  15.452 -1.0096  0.4073  0.2406
17515TIP3   OH273959   3.476   4.022  10.599 -0.3802  0.4111  0.3124
17515TIP3    H173960   3.498   4.029  10.691  2.3698 -1.4932 -0.0698
17515TIP3    H273961   3.556   4.047  10.553 -1.4142  0.5005 -1.5621
17516TIP3   OH273962   0.781   3.265  16.461 -0.0520  0.8829  0.0277
17516TIP3    H173963   0.697   3.231  16.433  0.1358  1.9072 -1.9285
17516TIP3    H273964   0.764   3.356  16.484  0.7925  1.6944 -2.2585
17517TIP3   OH273965   1.801   1.682   1.350 -0.3742 -0.7612  0.6582
17517TIP3    H173966   1.872   1.630   1.313 -1.3395 -2.2275  0.7755
17517TIP3    H273967   1.842   1.733   1.420  1.0106  0.2780 -0.8353
17518TIP3   OH273968   1.421   3.301   2.121  0.8073  0.4994 -0.2495
17518TIP3    H173969   1.395   3.355   2.046 -1.1991  1.9891  1.4048
17518TIP3    H273970   1.487   3.354   2.166 -1.5584  2.0157  1.6827
17519TIP3   OH273971   5.619   3.689  14.777 -0.3570  0.0830  0.2990
17519TIP3    H173972   5.559   3.622  14.810 -0.0596 -0.6896 -0.6831
17519TIP3    H273973   5.672   3.714  14.853 -1.5411  0.3916  1.0540
17520TIP3   OH273974   2.072   6.511   3.007 -0.1320 -0.5115 -0.3347
17520TIP3    H173975   2.072   6.605   3.026  1.9898 -0.1159 -1.9378
17520TIP3    H273976   2.081   6.505   2.912 -0.9108 -2.3672 -0.3465
17521TIP3   OH273977   3.651   5.771   4.839 -0.2863  0.9283  0.4235
17521TIP3    H173978   3.604   5.834   4.894 -1.0567 -0.9380  2.0292
17521TIP3    H273979   3.625   5.686   4.873  2.4043 -0.2603 -0.2154
17522TIP3   OH273980   3.382   3.491  13.078  0.1484  0.3190  0.1210
17522TIP3    H173981   3.387   3.567  13.135  0.5599 -0.6514  1.4249
17522TIP3    H273982   3.432   3.516  13.000  0.9355  1.1123  0.8554
17523TIP3   OH273983   3.609   0.661  16.634 -0.8046  0.4269 -0.3338
17523TIP3    H173984   3.692   0.695  16.667 -0.9208  0.9819 -0.5982
17523TIP3    H273985   3.615   0.669  16.539 -1.4241  1.1163 -0.3269
17524TIP3   OH273986   3.215   0.815   5.982  0.1793 -0.6410 -0.1710
17524TIP3    H173987   3.138   0.836   6.034 -0.1691 -0.9610 -0.5548
17524TIP3    H273988   3.289   0.836   6.039 -0.1407  1.5619 -0.4834
17525TIP3   OH273989   5.092   0.377  16.868 -0.5084  0.0678 -0.1316
17525TIP3    H173990   5.162   0.378  16.803 -0.2174 -2.3239  0.0413
17525TIP3    H273991   5.045   0.460  16.855  1.4846  1.1023 -1.1726
17526TIP3   OH273992   4.913   0.403  12.471  0.6467 -0.3822 -0.0545
17526TIP3    H173993   4.950   0.317  12.450 -1.0051 -0.3779 -3.8343
17526TIP3    H273994   4.959   0.463  12.412 -1.1038  0.5827 -0.4884
17527TIP3   OH273995   0.565   5.487  15.510  0.0292  0.0907  0.5537
17527TIP3    H173996   0.578   5.448  15.423 -3.0408  1.3713 -0.6193
17527TIP3    H273997   0.479   5.456  15.538  0.3305  0.8732  2.5092
17528TIP3   OH273998   3.034   1.776  14.181 -0.8241  0.1217  0.9143
17528TIP3    H173999   3.002   1.826  14.106  0.7378  0.8064  0.6723
17528TIP3    H274000   2.962   1.779  14.244 -1.7047  0.5437 -0.0730
17529TIP3   OH274001   2.485   2.658  14.388 -0.0744  0.2057  0.1201
17529TIP3    H174002   2.403   2.668  14.339 -0.2202 -0.5614  0.2021
17529TIP3    H274003   2.550   2.637  14.321 -0.1791 -0.3671  0.1984
17530TIP3   OH274004   0.845   4.981  14.125 -0.4099 -0.1169 -0.2622
17530TIP3    H174005   0.801   5.033  14.192  1.0940  0.0841  0.6329
17530TIP3    H274006   0.783   4.913  14.101 -1.0670 -0.0424  1.1791
17531TIP3   OH274007   0.945   1.782   1.311  0.4628 -0.0844  0.3986
17531TIP3    H174008   0.864   1.830   1.330  1.1009  0.7993  0.9921
17531TIP3    H274009   0.952   1.784   1.216  0.4990  1.0821  0.4076
17532TIP3   OH274010   0.152   2.728   4.184 -0.1289  0.0011 -0.2561
17532TIP3    H174011   0.099   2.677   4.123  0.1834  1.4406 -1.8339
17532TIP3    H274012   0.089   2.770   4.242 -0.4489 -1.1855  0.2836
17533TIP3   OH274013   0.295   2.839   4.940  0.1987  0.1306 -0.2676
17533TIP3    H174014   0.350   2.784   4.884 -0.9060  0.1656 -1.4547
17533TIP3    H274015   0.307   2.927   4.906  0.7937  0.4161  0.6496
17534TIP3   OH274016   3.433   0.636   2.193  0.1525 -0.4246 -0.1631
17534TIP3    H174017   3.374   0.626   2.119  1.0563 -0.0523 -0.9700
17534TIP3    H274018   3.432   0.730   2.212  0.1209 -0.4831  0.1360
17535TIP3   OH274019   3.277   6.749   5.353  0.9094  0.7706  0.0899
17535TIP3    H174020   3.313   6.742   5.264  0.0963 -1.0905 -0.1450
17535TIP3    H274021   3.292   6.662   5.391 -2.1356  0.2724  0.3876
17536TIP3   OH274022   3.406   4.056   5.108  0.0526 -0.1895  0.1848
17536TIP3    H174023   3.410   3.976   5.056 -1.4593 -0.4294  0.3845
17536TIP3    H274024   3.448   4.033   5.191  0.7762 -0.3787 -0.2291
17537TIP3   OH274025   3.166   1.716  16.824  0.3417  0.7146  0.0515
17537TIP3    H174026   3.217   1.714  16.905 -0.8672  0.6023  0.8339
17537TIP3    H274027   3.158   1.809  16.804 -0.4570  0.8156  0.7935
17538TIP3   OH274028   2.212   2.317   2.364  0.4171  0.0552 -0.1692
17538TIP3    H174029   2.254   2.401   2.342  1.5796 -0.1728  1.0376
17538TIP3    H274030   2.254   2.290   2.445 -0.8563 -1.0891  0.1436
17539TIP3   OH274031   6.426   4.662  13.470 -0.4723  0.4957  0.2337
17539TIP3    H174032   6.401   4.667  13.562  0.0202 -0.2273  0.4195
17539TIP3    H274033   6.396   4.744  13.432 -0.2051  1.0368  1.1597
17540TIP3   OH274034   3.177   3.449  10.417  0.5097 -0.3062 -0.0097
17540TIP3    H174035   3.157   3.539  10.444  0.9472 -0.4994  1.0137
17540TIP3    H274036   3.138   3.394  10.485 -0.0306 -0.9136 -0.7958
17541TIP3   OH274037   4.267   6.437  11.236 -0.3429  0.0839 -0.2274
17541TIP3    H174038   4.213   6.516  11.249 -0.2005  0.2517 -0.6290
17541TIP3    H274039   4.204   6.368  11.218 -0.4292  0.2997 -0.7894
17542TIP3   OH274040   1.543   5.010  15.767 -0.4267  0.5381 -0.3308
17542TIP3    H174041   1.541   4.916  15.753  0.6782  0.4265  0.1058
17542TIP3    H274042   1.608   5.022  15.836 -1.2429  1.5476  0.2954
17543TIP3   OH274043   4.068   5.388  13.491 -0.2937 -0.0937  0.2218
17543TIP3    H174044   4.025   5.462  13.534  0.1296  0.6019 -0.5186
17543TIP3    H274045   4.028   5.310  13.530 -1.4115  0.5253  0.3472
17544TIP3   OH274046   5.173   1.459  15.987 -0.1745  0.0141  0.0189
17544TIP3    H174047   5.170   1.547  16.025  0.5997 -0.0889  0.3308
17544TIP3    H274048   5.171   1.401  16.062  1.8316 -0.1860 -0.0357
17545TIP3   OH274049   2.883   2.482  15.577 -0.5628  0.0676  0.4241
17545TIP3    H174050   2.789   2.467  15.571 -0.6644  0.8717 -0.2023
17545TIP3    H274051   2.898   2.506  15.669 -1.3077  1.9457  0.1082
17546TIP3   OH274052   0.096   0.847  12.262 -0.1243 -0.0842  0.0842
17546TIP3    H174053   0.172   0.810  12.217 -0.0857 -0.5304  0.5082
17546TIP3    H274054   0.064   0.915  12.203 -0.8130 -1.4624 -1.1913
17547TIP3   OH274055   6.591   2.313  14.380  0.6716  0.2423 -0.5864
17547TIP3    H174056   6.500   2.285  14.377  0.3630  0.6791  2.1368
17547TIP3    H274057   6.639   2.247  14.330 -0.6834 -2.1851  1.1307
17548TIP3   OH274058   2.205   3.716   1.631  0.0015  0.6940 -0.0520
17548TIP3    H174059   2.172   3.677   1.711 -1.1517  0.7523 -0.4771
17548TIP3    H274060   2.276   3.658   1.603  1.7012  1.6873  1.9738
17549TIP3   OH274061   5.169   4.914  11.001 -0.1990  0.2145  0.3272
17549TIP3    H174062   5.146   4.847  10.936  0.7147 -0.6991  0.9064
17549TIP3    H274063   5.232   4.970  10.956 -2.9511  2.4100 -1.0867
17550TIP3   OH274064   1.950   1.851   4.333  0.2334  0.0579  0.4584
17550TIP3    H174065   2.018   1.788   4.308  1.2795  1.8304 -1.4671
17550TIP3    H274066   1.989   1.903   4.403 -0.3607 -0.9339  1.5477
17551TIP3   OH274067   3.709   6.524  16.497 -0.1441  0.1882  0.6550
17551TIP3    H174068   3.741   6.558  16.414  0.7541  0.5964  1.1510
17551TIP3    H274069   3.720   6.597  16.558  3.2641 -1.3012  2.1087
17552TIP3   OH274070   6.613   1.844  11.426 -0.0877  0.3236 -0.4080
17552TIP3    H174071   6.665   1.821  11.348  1.6548  0.1831  0.7286
17552TIP3    H274072   6.565   1.922  11.400 -0.5767 -0.4623 -2.0362
17553TIP3   OH274073   4.497   6.167  11.644 -0.3813 -0.0079  0.3362
17553TIP3    H174074   4.420   6.114  11.665  1.3655 -1.8923  2.6386
17553TIP3    H274075   4.493   6.241  11.704 -1.3237  0.9167 -0.8456
17554TIP3   OH274076   0.596   1.136   1.525  0.0340  0.3397  0.4011
17554TIP3    H174077   0.578   1.181   1.607  0.9811 -0.2893  0.9662
17554TIP3    H274078   0.672   1.182   1.488 -0.0699  0.2928  0.1253
17555TIP3   OH274079   2.218   2.896  14.329 -0.2790 -0.2926 -0.3758
17555TIP3    H174080   2.303   2.935  14.343 -0.8583  0.7132  0.4355
17555TIP3    H274081   2.155   2.964  14.353 -1.3141 -1.3089 -0.0902
17556TIP3   OH274082   1.456   6.247  16.117  0.1076  0.2033  1.1425
17556TIP3    H174083   1.518   6.239  16.189  0.4674 -0.5286  0.7602
17556TIP3    H274084   1.376   6.205  16.150  0.8103 -1.7011  0.5136
17557TIP3   OH274085   2.127   1.240   4.278  0.4626  0.0924  0.2573
17557TIP3    H174086   2.170   1.233   4.193  0.0013 -2.3562  0.1311
17557TIP3    H274087   2.190   1.288   4.332  0.8163  1.5840 -1.3989
17558TIP3   OH274088   2.638   6.137  13.166  0.0906 -0.0659 -0.0807
17558TIP3    H174089   2.585   6.150  13.244 -0.6590  1.3801 -0.7982
17558TIP3    H274090   2.670   6.047  13.173 -0.1111 -0.0178  1.7775
17559TIP3   OH274091   4.473   3.293  14.759 -0.0612  0.1077 -0.4330
17559TIP3    H174092   4.528   3.315  14.684 -1.6344  1.6065 -1.2142
17559TIP3    H274093   4.522   3.325  14.835  0.8592 -0.0669 -0.9320
17560TIP3   OH274094   6.363   6.502  14.700  0.1301 -0.6729  0.1007
17560TIP3    H174095   6.447   6.468  14.670  0.4030  1.7407 -2.2791
17560TIP3    H274096   6.299   6.464  14.641  0.1325  0.7230 -0.8640
17561TIP3   OH274097   1.863   2.225   3.607 -0.0224  0.1214  0.4566
17561TIP3    H174098   1.855   2.308   3.654  1.2032 -0.7495  2.3515
17561TIP3    H274099   1.791   2.171   3.639  0.5413 -0.3158  1.0299
17562TIP3   OH274100   6.020   5.081  12.396  0.1434  0.0547  0.3394
17562TIP3    H174101   6.052   5.051  12.311  2.4422  0.2276  1.0763
17562TIP3    H274102   5.927   5.100  12.381 -0.0033 -1.7861 -1.6093
17563TIP3   OH274103   3.054   2.123  17.127  0.7552  0.4373 -0.2649
17563TIP3    H174104   3.062   2.208  17.169  2.8925  0.6535 -0.9727
17563TIP3    H274105   3.128   2.119  17.066  1.1270 -2.1827  0.2183
17564TIP3   OH274106   1.548   3.960   3.764  0.5902 -0.2665  0.6070
17564TIP3    H174107   1.621   3.931   3.820  1.4143 -0.4104 -0.5024
17564TIP3    H274108   1.493   3.883   3.755 -0.3200  0.1208  2.3207
17565TIP3   OH274109   1.834   2.376  12.325 -0.3430  0.7029  0.0204
17565TIP3    H174110   1.841   2.463  12.366 -2.3655  0.2640  1.4531
17565TIP3    H274111   1.866   2.315  12.392  0.1376  0.2588 -0.6053
17566TIP3   OH274112   1.746   1.891   4.176 -0.1419 -0.4351  0.0177
17566TIP3    H174113   1.666   1.859   4.218  0.5329 -0.3343  1.4305
17566TIP3    H274114   1.813   1.884   4.243  0.8945  0.1693 -0.9159
17567TIP3   OH274115   3.212   0.681  16.782  0.2467 -0.1355  0.0898
17567TIP3    H174116   3.246   0.635  16.705 -0.0824 -1.2584  0.5845
17567TIP3    H274117   3.119   0.658  16.784 -1.1479  4.1904 -2.2023
17568TIP3   OH274118   2.955   1.778  12.236  0.5098  0.4262 -0.0208
17568TIP3    H174119   2.970   1.685  12.252  0.4086  0.6214  1.2840
17568TIP3    H274120   3.034   1.808  12.191  1.9282  0.3676  2.3214
17569TIP3   OH274121   0.688   0.974  16.416 -0.0282 -0.0110  0.1440
17569TIP3    H174122   0.700   0.961  16.322 -0.1736 -0.4140  0.1751
17569TIP3    H274123   0.770   1.010  16.447 -0.4715  1.5067 -0.3788
17570TIP3   OH274124   3.634   2.284   2.401 -0.0577 -0.6368 -0.1589
17570TIP3    H174125   3.555   2.337   2.405 -0.2175 -0.8833 -0.0643
17570TIP3    H274126   3.603   2.196   2.383  0.1746 -0.7901  0.1929
17571TIP3   OH274127   1.818   4.279   2.887 -0.1273 -0.4324  0.0567
17571TIP3    H174128   1.876   4.227   2.832  0.2695  1.3975 -1.3649
17571TIP3    H274129   1.734   4.232   2.884 -0.1056 -0.4462 -2.1254
17572TIP3   OH274130   2.853   3.587  15.321  0.2560  0.5666  0.5829
17572TIP3    H174131   2.945   3.560  15.319  1.1872  3.3287  0.6453
17572TIP3    H274132   2.828   3.593  15.229  0.1510 -0.1185  0.5634
17573TIP3   OH274133   1.998   1.444   5.246  0.2614 -0.0069  0.2024
17573TIP3    H174134   2.092   1.445   5.230  0.7092  0.6249  2.4993
17573TIP3    H274135   1.964   1.518   5.195  1.0281 -0.1191 -0.4824
17574TIP3   OH274136   0.486   2.216   2.485 -0.1253  0.3753 -0.0603
17574TIP3    H174137   0.477   2.157   2.411 -0.6420  1.0359 -0.5431
17574TIP3    H274138   0.399   2.219   2.524  0.1290  0.0884  0.5272
17575TIP3   OH274139   1.160   3.386  16.433  0.4965 -0.2598  0.1076
17575TIP3    H174140   1.208   3.309  16.402  0.3621 -0.0671 -0.6004
17575TIP3    H274141   1.179   3.390  16.527 -0.6967 -1.9985  0.4608
17576TIP3   OH274142   4.062   3.292  13.627  0.1456 -0.1771 -1.0290
17576TIP3    H174143   4.073   3.198  13.635 -2.5922 -0.5330 -0.3806
17576TIP3    H274144   3.991   3.314  13.688  0.5410  2.2635 -1.3230
17577TIP3   OH274145   1.786   4.386  16.053 -0.4371 -0.4737 -0.2647
17577TIP3    H174146   1.735   4.313  16.086 -1.1445  0.9669  2.0383
17577TIP3    H274147   1.872   4.376  16.094  1.0693 -2.4144 -3.4676
17578TIP3   OH274148   0.616   1.708  14.907  0.2683 -0.5210  0.0818
17578TIP3    H174149   0.651   1.631  14.953  1.3046  1.4069  2.7158
17578TIP3    H274150   0.676   1.779  14.929 -2.5842  1.8810  0.7667
17579TIP3   OH274151   6.031   0.302  17.284 -0.5221  0.0237 -0.3340
17579TIP3    H174152   6.024   0.340  17.371 -1.1273  0.3814 -0.5326
17579TIP3    H274153   6.033   0.378  17.225  0.9341 -0.1867 -0.5717
17580TIP3   OH274154   0.414   1.720   2.596 -0.3223  0.1027  1.0230
17580TIP3    H174155   0.387   1.632   2.571  0.2399  0.4326 -0.9671
17580TIP3    H274156   0.507   1.724   2.572  0.0686  0.7347  2.5589
17581TIP3   OH274157   0.386   4.605  15.380 -0.8960  0.6546  0.2320
17581TIP3    H174158   0.311   4.649  15.339 -2.7793 -0.9805  1.7352
17581TIP3    H274159   0.412   4.538  15.316  0.2126  2.0577 -0.8628
17582TIP3   OH274160   1.883   2.910   5.641 -0.0960  0.4854 -0.0778
17582TIP3    H174161   1.820   2.937   5.574  0.6604  1.1863 -0.5265
17582TIP3    H274162   1.889   2.986   5.700  1.3041  0.9624 -0.7915
17583TIP3   OH274163   4.609   3.530   6.336 -0.0563 -0.2519 -0.0650
17583TIP3    H174164   4.603   3.612   6.384  1.0816 -0.2352  0.0732
17583TIP3    H274165   4.695   3.533   6.293 -0.3150 -1.0339 -0.6689
17584TIP3   OH274166   5.357   6.452   0.440 -0.3325 -0.5650  0.0775
17584TIP3    H174167   5.354   6.466   0.534  0.5513  1.1487 -0.1137
17584TIP3    H274168   5.449   6.432   0.421 -0.7255 -2.2592 -0.2985
17585TIP3   OH274169   5.031   1.044  15.338 -0.4515 -0.1843  0.3283
17585TIP3    H174170   4.954   1.084  15.296 -0.2543 -0.1698 -0.0206
17585TIP3    H274171   5.036   1.087  15.424  1.2246  2.4312 -0.9733
17586TIP3   OH274172   3.668   0.135   4.848 -0.1415 -0.0513  0.0874
17586TIP3    H174173   3.709   0.121   4.934  1.7277  0.3404 -0.7004
17586TIP3    H274174   3.592   0.190   4.867 -0.8231 -1.4344  1.6983
17587TIP3   OH274175   6.493   0.991  11.887 -0.9688 -0.4577  0.0744
17587TIP3    H174176   6.531   1.074  11.859 -0.6195 -0.5324  0.3226
17587TIP3    H274177   6.534   0.972  11.971 -1.9638 -0.2594  0.6232
17588TIP3   OH274178   3.182   6.637   1.538 -0.4174  0.2126 -0.4171
17588TIP3    H174179   3.097   6.612   1.501  0.3890 -0.7207 -1.6902
17588TIP3    H274180   3.208   6.714   1.489 -0.9344  1.0573  0.6064
17589TIP3   OH274181   2.429   1.416   4.666  0.2303  0.2449 -0.1176
17589TIP3    H174182   2.394   1.503   4.648  0.5975  0.2632 -0.7477
17589TIP3    H274183   2.518   1.431   4.696  1.0877 -0.0101 -2.3449
17590TIP3   OH274184   5.503   2.303  13.418 -0.2918 -0.1917  0.6522
17590TIP3    H174185   5.565   2.316  13.347 -1.5928 -0.9369 -0.6848
17590TIP3    H274186   5.557   2.294  13.496  1.1748  0.9196 -0.1757
17591TIP3   OH274187   2.893   5.331  16.250 -0.2029 -0.3785  0.0550
17591TIP3    H174188   2.847   5.356  16.170  2.6928  0.9780 -1.3279
17591TIP3    H274189   2.908   5.413  16.297  1.0792 -0.6988  0.2522
17592TIP3   OH274190   1.566   0.153   4.985  0.5819 -0.3048  0.3446
17592TIP3    H174191   1.650   0.199   4.984  0.9642 -0.9841 -0.8356
17592TIP3    H274192   1.571   0.091   4.912 -1.5921  0.7911 -0.8526
17593TIP3   OH274193   4.983   5.351  12.862  0.0652 -0.1416 -0.4145
17593TIP3    H174194   5.032   5.413  12.917 -0.4147  0.0805 -0.2344
17593TIP3    H274195   4.938   5.294  12.924  0.9396 -1.0412 -0.5752
17594TIP3   OH274196   4.358   3.087  12.642  0.1515  0.0448 -0.5099
17594TIP3    H174197   4.399   3.094  12.728  0.6452 -1.7955 -0.5390
17594TIP3    H274198   4.281   3.142  12.648 -0.4726 -0.9329  1.5324
17595TIP3   OH274199   1.009   3.095  16.772  0.4303  0.2431  0.1354
17595TIP3    H174200   0.947   3.042  16.823 -0.0328  0.0076 -0.6680
17595TIP3    H274201   1.094   3.070  16.807  0.1028  0.4061  1.1014
17596TIP3   OH274202   0.477   1.728  16.724 -0.4031  0.0091  0.7540
17596TIP3    H174203   0.546   1.769  16.673  0.1113  0.1618  1.5514
17596TIP3    H274204   0.459   1.645  16.679  2.2272 -1.3584  1.9966
17597TIP3   OH274205   0.561   6.216  17.281 -0.5295  0.4886  0.0972
17597TIP3    H174206   0.572   6.153  17.352 -1.5518 -1.3887 -1.3171
17597TIP3    H274207   0.531   6.296  17.325  0.9895  0.1162  1.9654
17598TIP3   OH274208   3.237   0.392  11.355 -0.3592  0.3829  0.1371
17598TIP3    H174209   3.187   0.410  11.275  0.8731 -0.1197 -0.7842
17598TIP3    H274210   3.328   0.401  11.328  0.0860 -0.1494  1.4129
17599TIP3   OH274211   3.515   5.168  12.636 -0.5124  0.1052 -0.1225
17599TIP3    H174212   3.498   5.100  12.571 -1.1199  0.0876  0.0570
17599TIP3    H274213   3.588   5.133  12.688 -0.5617 -0.2386 -0.2800
17600TIP3   OH274214   0.633   4.465   6.370  0.7728 -0.9852 -0.0766
17600TIP3    H174215   0.631   4.465   6.466 -0.1501  0.6732 -0.0590
17600TIP3    H274216   0.696   4.534   6.348 -0.9592  0.4862 -0.6249
17601TIP3   OH274217   5.747   2.180  15.626 -0.2697  0.1834  0.4000
17601TIP3    H174218   5.820   2.135  15.670  0.2984 -0.0693 -0.7558
17601TIP3    H274219   5.763   2.164  15.533 -2.2288 -0.5109  0.1433
17602TIP3   OH274220   5.067   6.328  11.602  0.3459  0.1955 -0.0493
17602TIP3    H174221   5.081   6.309  11.509  0.8385 -1.3483  0.3205
17602TIP3    H274222   5.132   6.395  11.623 -0.9789  1.9442 -1.2223
17603TIP3   OH274223   2.511   6.730   4.540  0.4398 -0.4647  0.3855
17603TIP3    H174224   2.454   6.796   4.579  1.0527 -0.5105  1.4068
17603TIP3    H274225   2.493   6.734   4.446 -0.0172  0.6799  0.5085
17604TIP3   OH274226   6.354   4.244  11.134 -0.4790  0.3948 -0.3086
17604TIP3    H174227   6.337   4.315  11.073  0.1060  0.4927 -0.3608
17604TIP3    H274228   6.405   4.284  11.204 -1.5071  0.3895  0.4790
17605TIP3   OH274229   2.600   1.852  15.045  0.6191 -0.0035  0.4294
17605TIP3    H174230   2.525   1.802  15.078  1.5696 -0.5682  1.8552
17605TIP3    H274231   2.562   1.927  15.001 -0.7820 -0.1444  1.3463
17606TIP3   OH274232   1.841   3.332  11.080  1.0107 -0.1364  0.6952
17606TIP3    H174233   1.857   3.410  11.133 -0.2904  0.3246  0.4528
17606TIP3    H274234   1.925   3.311  11.040  1.5293  0.7244  1.3214
17607TIP3   OH274235   4.186   1.493   3.863 -0.0623  0.1097 -0.3863
17607TIP3    H174236   4.147   1.411   3.894  1.4955 -0.8591 -0.8990
17607TIP3    H274237   4.181   1.489   3.768  0.6699  0.2735 -0.4402
17608TIP3   OH274238   1.396   4.842   3.196  0.3409  0.4205 -0.4093
17608TIP3    H174239   1.435   4.897   3.128 -1.3399  0.7033 -1.2027
17608TIP3    H274240   1.429   4.879   3.279  1.1879  1.0481 -1.0064
17609TIP3   OH274241   4.674   5.626  13.641  0.3721  0.3085 -0.3395
17609TIP3    H174242   4.609   5.695  13.627  1.6073  1.4372 -0.8201
17609TIP3    H274243   4.700   5.636  13.733  0.2273  0.1942 -0.2872
17610TIP3   OH274244   5.600   3.351   5.909  0.0906  0.1588  0.0464
17610TIP3    H174245   5.622   3.271   5.861  0.9819  0.7756 -0.6016
17610TIP3    H274246   5.569   3.320   5.994  1.4486 -0.8424  0.2112
17611TIP3   OH274247   3.331   1.327   6.759  1.0814 -0.1274 -0.1360
17611TIP3    H174248   3.345   1.245   6.805 -0.2596  0.5591  1.6231
17611TIP3    H274249   3.387   1.321   6.682  0.7514 -2.8358 -0.2756
17612TIP3   OH274250   3.581   4.214   4.587  0.0512 -0.5079 -0.6806
17612TIP3    H174251   3.496   4.187   4.554  0.6657 -1.5969 -1.4130
17612TIP3    H274252   3.561   4.284   4.650 -1.2506  0.4423 -2.0890
17613TIP3   OH274253   5.896   6.384  12.441 -0.6540  0.3204 -0.2218
17613TIP3    H174254   5.905   6.469  12.398 -0.9912  0.8073  0.6544
17613TIP3    H274255   5.895   6.404  12.535 -0.2348 -0.6983  0.0076
17614TIP3   OH274256   4.943   3.793  14.496 -0.1803 -0.0791 -0.7983
17614TIP3    H174257   4.871   3.754  14.446  0.9289 -1.6532 -1.2460
17614TIP3    H274258   4.916   3.784  14.587  0.0171 -1.9354 -0.8854
17615TIP3   OH274259   6.496   1.084   4.513  0.4554  0.2360 -0.3852
17615TIP3    H174260   6.429   1.153   4.505 -2.0521 -1.9102  0.6099
17615TIP3    H274261   6.531   1.095   4.601 -1.1828 -0.7519  0.4209
17616TIP3   OH274262   4.366   0.114   0.732  0.2952  1.0790 -0.1844
17616TIP3    H174263   4.333   0.024   0.724  0.4215  1.1441 -1.6611
17616TIP3    H274264   4.370   0.129   0.827  0.3646 -0.5071  0.1028
17617TIP3   OH274265   5.251   4.437  13.806  0.3546  0.2943 -0.3512
17617TIP3    H174266   5.173   4.493  13.801  1.2888  1.5556 -1.5256
17617TIP3    H274267   5.236   4.369  13.740 -1.3491 -1.7271  1.9166
17618TIP3   OH274268   5.593   0.175  11.298 -0.5873 -0.3465  0.4721
17618TIP3    H174269   5.664   0.112  11.292  0.4205  0.7505  0.4262
17618TIP3    H274270   5.535   0.154  11.225  0.5242 -0.2867 -0.4502
17619TIP3   OH274271   3.217   3.234   4.463 -0.3076 -0.2364 -0.3866
17619TIP3    H174272   3.271   3.186   4.526 -0.7943 -1.6717 -1.0197
17619TIP3    H274273   3.138   3.257   4.511 -0.0696 -0.0522 -0.0783
17620TIP3   OH274274   0.644   6.527  12.376  0.8178  0.7050 -0.7639
17620TIP3    H174275   0.705   6.544  12.448  1.1037 -0.6784 -0.6597
17620TIP3    H274276   0.689   6.465  12.320 -0.8522 -1.1892 -0.1451
17621TIP3   OH274277   0.334   6.477  13.548  0.3113  0.3547 -0.4251
17621TIP3    H174278   0.333   6.507  13.458 -1.4163 -2.2466 -1.3981
17621TIP3    H274279   0.384   6.395  13.546  0.3012  0.2765  0.9919
17622TIP3   OH274280   6.313   5.704   3.341  0.2003 -0.0448  0.0873
17622TIP3    H174281   6.394   5.729   3.297  0.4993  0.6140  0.9951
17622TIP3    H274282   6.276   5.786   3.373  0.0517 -0.5049  1.1537
17623TIP3   OH274283   1.838   1.612   6.155  0.7119  0.4339  0.0681
17623TIP3    H174284   1.909   1.651   6.207 -0.1535  0.9736  0.8743
17623TIP3    H274285   1.758   1.647   6.194 -0.0854 -1.5458  0.3311
17624TIP3   OH274286   1.803   6.384  11.586  0.6839 -0.3606  0.1641
17624TIP3    H174287   1.719   6.368  11.543  1.8237  1.1512 -2.8796
17624TIP3    H274288   1.781   6.435  11.663 -1.2135 -0.2239 -0.4143
17625TIP3   OH274289   1.345   2.205  12.020 -0.0151  0.4253 -0.2598
17625TIP3    H174290   1.308   2.194  12.108 -2.0705 -0.1295 -1.1308
17625TIP3    H274291   1.340   2.118  11.981  0.0622  0.8521 -1.2370
17626TIP3   OH274292   5.434   2.793   0.191 -0.2341 -0.4909  0.3003
17626TIP3    H174293   5.526   2.769   0.202 -0.0949 -0.6628 -1.0491
17626TIP3    H274294   5.422   2.871   0.245  1.1366  0.4907 -0.7576
17627TIP3   OH274295   6.348   5.573   1.817 -0.2249  0.2302  0.3733
17627TIP3    H174296   6.360   5.656   1.863  0.2753  0.3406  0.0471
17627TIP3    H274297   6.258   5.547   1.837 -0.3155  0.7495  0.6388
17628TIP3   OH274298   2.480   6.236  12.963  0.5635 -0.3725  0.1972
17628TIP3    H174299   2.415   6.200  13.023 -0.2456 -0.0224 -0.4506
17628TIP3    H274300   2.561   6.191  12.987 -0.5558 -3.4403 -1.1871
17629TIP3   OH274301   3.723   1.495  11.612 -0.2351  0.2675  0.2026
17629TIP3    H174302   3.680   1.548  11.546 -1.1061 -1.5212 -0.7568
17629TIP3    H274303   3.722   1.406  11.576  0.6736 -0.5101  1.9433
17630TIP3   OH274304   5.595   3.967  14.396  0.4168  0.0855  0.2135
17630TIP3    H174305   5.629   4.046  14.354  0.4121  0.6056  1.1529
17630TIP3    H274306   5.503   3.963  14.368  0.9015 -0.6848 -1.3948
17631TIP3   OH274307   6.380   4.788  12.495  0.1386 -0.0436  0.0533
17631TIP3    H174308   6.396   4.703  12.537  0.3387  0.5161  1.1319
17631TIP3    H274309   6.288   4.808  12.517 -0.5505 -0.8822 -1.8666
17632TIP3   OH274310   5.261   2.973   3.873  0.3422  0.7175  0.1726
17632TIP3    H174311   5.170   2.976   3.843 -0.1272  0.2404  1.4808
17632TIP3    H274312   5.313   2.965   3.793 -0.8317 -0.1599 -0.5210
17633TIP3   OH274313   5.394   5.545  14.076  0.4354  0.5859  0.1409
17633TIP3    H174314   5.370   5.496  13.998  0.7892 -0.0701  0.4365
17633TIP3    H274315   5.481   5.581  14.056  0.5327  0.4049  0.2349
17634TIP3   OH274316   1.087   6.175  12.904 -0.4136 -0.2068 -0.0623
17634TIP3    H174317   1.019   6.234  12.871 -0.1756  0.1936  0.1578
17634TIP3    H274318   1.067   6.091  12.863 -0.9163 -0.0412 -0.1685
17635TIP3   OH274319   3.117   5.858  12.580 -0.4596 -0.2681 -0.2583
17635TIP3    H174320   3.075   5.878  12.664  2.3582 -0.1186  1.2099
17635TIP3    H274321   3.172   5.934  12.561 -0.3379 -0.6976 -1.7999
17636TIP3   OH274322   5.656   3.036   4.151 -0.2560 -0.3374  0.1122
17636TIP3    H174323   5.650   3.046   4.246 -0.1480  1.3468 -0.0161
17636TIP3    H274324   5.573   3.070   4.118 -0.4336 -1.2304 -0.3903
17637TIP3   OH274325   2.907   0.468   4.827  0.3791 -0.0112  0.2084
17637TIP3    H174326   2.855   0.398   4.785 -0.6177  0.2087  1.0383
17637TIP3    H274327   2.846   0.541   4.833  1.2220  0.7193 -0.0369
17638TIP3   OH274328   2.973   0.989  16.897 -0.4110 -0.4490 -0.2087
17638TIP3    H174329   2.930   1.074  16.898 -2.1496 -1.2667 -0.8584
17638TIP3    H274330   3.054   1.003  16.848 -1.0429  0.6760 -0.9733
17639TIP3   OH274331   0.404   4.577   1.471  0.0614 -0.2891  0.3808
17639TIP3    H174332   0.321   4.596   1.515 -1.1246  0.8823 -2.1199
17639TIP3    H274333   0.383   4.504   1.412  1.2327 -0.9801  0.7995
17640TIP3   OH274334   5.540   6.033   1.147 -0.6988  0.3929  0.0553
17640TIP3    H174335   5.607   5.966   1.132 -2.7034 -1.3271 -1.9464
17640TIP3    H274336   5.552   6.058   1.238  2.4354 -0.0130 -0.1100
17641TIP3   OH274337   2.545   2.448   0.889  0.2921 -0.2304 -0.1563
17641TIP3    H174338   2.503   2.505   0.953 -1.1510 -1.4473  0.0132
17641TIP3    H274339   2.530   2.359   0.921  0.2032 -0.8285 -1.7631
17642TIP3   OH274340   4.267   5.435  12.796  0.0456 -0.6313 -1.2583
17642TIP3    H174341   4.177   5.407  12.781 -0.3596 -0.4615  0.6528
17642TIP3    H274342   4.259   5.518  12.843  1.2050 -0.4696 -1.3175
17643TIP3   OH274343   6.079   1.841   4.178 -0.1757 -0.2130 -0.6250
17643TIP3    H174344   6.088   1.854   4.084 -0.8501  0.0414 -0.6555
17643TIP3    H274345   6.158   1.881   4.215 -0.9109  1.6169 -0.9294
17644TIP3   OH274346   5.558   5.069  12.949 -0.1074 -0.2370  0.1495
17644TIP3    H174347   5.520   5.000  12.894  1.1967  0.7944 -2.1795
17644TIP3    H274348   5.495   5.141  12.945  1.4019  1.0750 -2.8447
17645TIP3   OH274349   3.034   1.117   1.739 -0.0348  0.3899 -0.4617
17645TIP3    H174350   3.113   1.074   1.773 -0.3695  0.4117  0.3752
17645TIP3    H274351   2.962   1.069   1.779 -0.4514  0.3829 -1.2096
17646TIP3   OH274352   4.988   4.628   2.264  0.7345  0.1035  0.7228
17646TIP3    H174353   5.032   4.679   2.333  0.4205  2.1968 -0.5343
17646TIP3    H274354   5.053   4.621   2.194  0.3315 -0.1199  0.3654
17647TIP3   OH274355   5.542   2.094  12.497  0.0179  0.1822  0.0846
17647TIP3    H174356   5.544   2.182  12.533 -0.4903  1.4527 -2.7204
17647TIP3    H274357   5.613   2.048  12.541 -0.8964  1.3549  2.9952
17648TIP3   OH274358   3.135   5.399  12.538  0.5130  0.6766  0.0610
17648TIP3    H174359   3.194   5.380  12.611 -0.6959  0.3932  1.0004
17648TIP3    H274360   3.125   5.315  12.492  1.9341  1.0352 -0.9767
17649TIP3   OH274361   0.650   4.108  13.304 -0.0175  0.3603  0.2367
17649TIP3    H174362   0.712   4.056  13.253  0.9244 -0.3764  2.0443
17649TIP3    H274363   0.690   4.115  13.390 -1.5290  1.6130  0.8852
17650TIP3   OH274364   4.723   5.962   3.657 -0.1519  0.2697 -0.5024
17650TIP3    H174365   4.801   5.995   3.613  0.9047 -1.0042  0.3599
17650TIP3    H274366   4.717   6.013   3.738 -0.8350  1.0864 -1.0504
17651TIP3   OH274367   3.363   5.236   6.628 -0.1389  0.0362  0.2738
17651TIP3    H174368   3.431   5.290   6.587 -0.3346  1.0673  1.2445
17651TIP3    H274369   3.312   5.201   6.555  0.7015  0.2316 -0.4220
17652TIP3   OH274370   6.529   3.998   6.260 -0.5444 -0.3801  0.0978
17652TIP3    H174371   6.558   3.907   6.252  2.3787  0.5885 -2.5646
17652TIP3    H274372   6.585   4.034   6.329  1.0495  0.1985 -1.4124
17653TIP3   OH274373   2.975   2.903   4.250 -0.6166 -0.2691  0.3294
17653TIP3    H174374   2.915   2.972   4.224  0.0097  0.1104 -0.1444
17653TIP3    H274375   3.020   2.878   4.169 -0.4909 -0.8972  0.5818
17654TIP3   OH274376   3.321   1.101  13.696 -0.2179 -0.5547  0.0918
17654TIP3    H174377   3.372   1.154  13.757 -0.4085  0.6312 -0.7564
17654TIP3    H274378   3.233   1.138  13.698  0.1930  0.7317 -2.2440
17655TIP3   OH274379   0.009   5.634   4.165 -0.7449 -0.2148  0.2835
17655TIP3    H174380  -0.048   5.671   4.233 -0.8013 -0.1913  0.2227
17655TIP3    H274381  -0.044   5.565   4.125 -1.3159  0.8446 -0.8400
17656TIP3   OH274382   0.472   1.421   1.890 -0.5249 -0.2596  0.4445
17656TIP3    H174383   0.485   1.513   1.914 -2.5141  0.2506 -0.2175
17656TIP3    H274384   0.387   1.420   1.845 -0.9993 -2.5667  1.2635
17657TIP3   OH274385   4.883   4.859  14.251  0.0195  0.4340  0.4368
17657TIP3    H174386   4.908   4.908  14.330 -0.5678  0.4990  0.5835
17657TIP3    H274387   4.790   4.878  14.239 -0.8624 -2.5205  1.8481
17658TIP3   OH274388   3.356   3.531   0.161  0.2136  0.2981  0.0755
17658TIP3    H174389   3.388   3.621   0.154  1.0847 -0.1348 -4.0372
17658TIP3    H274390   3.434   3.477   0.151 -0.7865 -0.8172 -2.4512
17659TIP3   OH274391   0.766   6.516  13.366 -0.4740  0.6562  0.0624
17659TIP3    H174392   0.730   6.595  13.326  0.6830  1.2550  0.1379
17659TIP3    H274393   0.809   6.470  13.293 -2.4626 -0.7336 -0.2970
17660TIP3   OH274394   6.222   4.709   2.791 -0.0548  0.7846  0.3978
17660TIP3    H174395   6.201   4.798   2.763  0.0555  0.5994 -0.2899
17660TIP3    H274396   6.192   4.705   2.882 -2.6891  0.6666 -0.3746
17661TIP3   OH274397   5.895   5.284   6.510 -0.4936 -0.1621  0.2438
17661TIP3    H174398   5.867   5.343   6.581  0.9379  0.1399  0.5850
17661TIP3    H274399   5.912   5.201   6.553  0.4015  0.0278  0.2704
17662TIP3   OH274400   4.702   4.901  11.825 -0.1618 -0.3455  0.0557
17662TIP3    H174401   4.760   4.855  11.886 -0.5126 -0.0263  0.6409
17662TIP3    H274402   4.746   4.894  11.740  1.0754  0.4661  0.5936
17663TIP3   OH274403   0.741   0.266   0.323  0.0600 -0.3124 -0.1842
17663TIP3    H174404   0.789   0.329   0.376  1.6601 -1.1098 -0.5816
17663TIP3    H274405   0.670   0.316   0.283  1.9462  1.5734 -1.4177
17664TIP3   OH274406   4.249   1.414  11.785  0.2196 -0.0746  0.3331
17664TIP3    H174407   4.325   1.461  11.817  0.0094  0.7148 -0.2931
17664TIP3    H274408   4.224   1.460  11.705 -0.3125 -0.9330 -0.0154
17665TIP3   OH274409   1.079   5.595  12.055  1.0618  0.1087  0.1384
17665TIP3    H174410   1.142   5.527  12.080  0.2111 -1.1038 -0.9065
17665TIP3    H274411   1.133   5.665  12.018  1.7665 -1.4773 -2.0124
17666TIP3   OH274412   0.423   0.630   0.657  0.5677  0.1300  0.0028
17666TIP3    H174413   0.345   0.630   0.601 -0.5592 -0.7482  1.4707
17666TIP3    H274414   0.467   0.548   0.638  0.5857  0.1715 -0.1306
17667TIP3   OH274415   6.117   4.404  12.076 -0.2487  0.6415  0.1338
17667TIP3    H174416   6.145   4.333  12.019 -0.4990 -0.9053  1.8617
17667TIP3    H274417   6.143   4.484  12.029 -0.0892 -0.5502 -1.9116
17668TIP3   OH274418   3.204   0.288   3.712  0.7225  0.0118 -0.2837
17668TIP3    H174419   3.138   0.224   3.740  1.4837 -0.5756  0.2072
17668TIP3    H274420   3.181   0.308   3.621 -1.2531  1.2692  0.4299
17669TIP3   OH274421   2.633   4.842   5.644  1.0350 -0.4290 -0.1957
17669TIP3    H174422   2.579   4.917   5.621 -0.1428 -1.0340  0.4702
17669TIP3    H274423   2.723   4.872   5.634  0.6420  1.6603  1.8506
17670TIP3   OH274424   6.682   6.727   1.050 -0.2179 -0.1171 -0.1436
17670TIP3    H174425   6.701   6.672   0.973 -2.2833 -0.4259 -0.4970
17670TIP3    H274426   6.735   6.806   1.037 -0.8990  0.0711 -2.2099
17671TIP3   OH274427   5.862   4.896  11.569  0.4618  0.1159 -0.4069
17671TIP3    H174428   5.855   4.844  11.488  0.0820 -0.3142 -0.1020
17671TIP3    H274429   5.860   4.831  11.639 -0.5859  0.5759  0.0045
17672TIP3   OH274430   0.821   1.173  11.392  0.0452  0.2143 -0.0618
17672TIP3    H174431   0.828   1.177  11.487 -0.0188 -0.0297 -0.0460
17672TIP3    H274432   0.900   1.216  11.360 -1.1266  2.6816  0.0846
17673TIP3   OH274433   3.036   6.222  16.898 -0.1018  0.6034 -0.0832
17673TIP3    H174434   3.048   6.133  16.931  2.3126  0.1583 -1.9583
17673TIP3    H274435   3.104   6.273  16.941  0.7440  0.7802 -1.5827
17674TIP3   OH274436   5.465   4.559   2.614 -0.3571  0.0239  0.4752
17674TIP3    H174437   5.426   4.510   2.541 -1.4740 -0.9497  1.6903
17674TIP3    H274438   5.470   4.496   2.685  1.0644  0.8665  1.1600
17675TIP3   OH274439   0.422   4.316   5.131 -0.4456  0.0442  0.8034
17675TIP3    H174440   0.387   4.398   5.096  0.8425  1.5759  2.8308
17675TIP3    H274441   0.358   4.288   5.197 -1.1224 -0.9051 -0.2147
17676TIP3   OH274442   1.911   6.234  15.414 -0.3454 -0.0003 -0.0325
17676TIP3    H174443   1.970   6.292  15.461 -0.0063  0.7502 -1.3212
17676TIP3    H274444   1.969   6.176  15.364 -0.6940 -0.0852 -0.3421
17677TIP3   OH274445   4.378   1.967  16.916  0.1037  0.6658 -0.5410
17677TIP3    H174446   4.347   2.052  16.945  0.3460  0.6512 -0.2343
17677TIP3    H274447   4.423   1.984  16.834 -0.5460  0.7134 -0.9000
17678TIP3   OH274448   2.815   2.463   1.135 -0.1291 -0.2216 -0.7391
17678TIP3    H174449   2.895   2.438   1.181 -0.8929  1.5517  1.7318
17678TIP3    H274450   2.744   2.427   1.188 -1.0528  1.7398 -0.5892
17679TIP3   OH274451   6.017   5.599  11.329  0.5326  0.0554 -0.0342
17679TIP3    H174452   6.064   5.599  11.413  0.8636  0.9275 -0.2101
17679TIP3    H274453   6.046   5.518  11.286 -0.1870 -0.7795  0.9806
17680TIP3   OH274454   5.934   4.723   2.054  0.5001 -0.3028 -0.0420
17680TIP3    H174455   5.854   4.772   2.074  0.5469 -0.8925  1.7031
17680TIP3    H274456   5.943   4.660   2.125  2.0802 -0.8170 -0.6452
17681TIP3   OH274457   5.642   4.957  17.206  0.0613  0.2450  0.0722
17681TIP3    H174458   5.709   4.955  17.138  0.2813  0.3420  0.2847
17681TIP3    H274459   5.673   5.022  17.269 -0.6600  0.9159 -0.2554
17682TIP3   OH274460   4.905   0.881  15.898 -0.1644  0.1021 -0.1773
17682TIP3    H174461   4.838   0.881  15.967  0.0208  1.5434  0.0435
17682TIP3    H274462   4.869   0.937  15.829  0.6567  0.6349 -0.1961
17683TIP3   OH274463   0.782   4.672  16.041  0.2424  0.0395 -0.0637
17683TIP3    H174464   0.760   4.683  15.948 -0.7935  0.3921  0.2076
17683TIP3    H274465   0.740   4.746  16.085  0.5833 -0.2136  0.7081
17684TIP3   OH274466   4.633   0.404   0.248  0.3836 -0.3552 -0.4099
17684TIP3    H174467   4.585   0.408   0.330 -1.3194 -4.7262 -0.9340
17684TIP3    H274468   4.583   0.460   0.188 -0.2571  0.2744  0.6841
17685TIP3   OH274469   6.403   0.685   5.705  0.0450  0.4493 -0.3752
17685TIP3    H174470   6.489   0.651   5.731 -0.6499 -0.1071  1.3322
17685TIP3    H274471   6.391   0.653   5.615  1.5475  0.4261 -0.5908
17686TIP3   OH274472   2.620   3.259  16.365  1.0199 -0.2802 -0.0522
17686TIP3    H174473   2.526   3.276  16.354  0.7631  0.4650  2.6684
17686TIP3    H274474   2.661   3.306  16.292 -0.6589 -0.0577 -0.9104
17687TIP3   OH274475   4.005   1.288   2.773 -0.0956  0.2140  0.0547
17687TIP3    H174476   3.940   1.219   2.761 -0.5015  0.5902  0.0788
17687TIP3    H274477   4.076   1.264   2.713 -1.3346  1.1323 -1.8502
17688TIP3   OH274478   0.696   5.169   6.315  0.5122 -0.9181 -0.7368
17688TIP3    H174479   0.651   5.232   6.259 -2.1933 -1.8434  0.2281
17688TIP3    H274480   0.717   5.219   6.394  0.9336 -0.5538 -1.0727
17689TIP3   OH274481   0.757   6.235   4.579  0.5691  0.2328 -0.2637
17689TIP3    H174482   0.822   6.299   4.607  0.6419  0.0069  0.0870
17689TIP3    H274483   0.807   6.156   4.561  0.5206  0.3686 -1.0265
17690TIP3   OH274484   2.594   1.890   4.721 -0.2252  0.3103  0.2827
17690TIP3    H174485   2.568   1.978   4.695  0.6343  0.3280 -0.5955
17690TIP3    H274486   2.667   1.903   4.782 -0.4111  0.2103  0.5306
17691TIP3   OH274487   3.540   6.691  15.912  0.0676  0.2549 -0.3514
17691TIP3    H174488   3.630   6.677  15.942 -0.7832 -0.3974  2.2469
17691TIP3    H274489   3.498   6.605  15.922 -0.7155  0.3765 -2.1624
17692TIP3   OH274490   5.752   5.015   3.473 -0.1056  0.2828 -0.0074
17692TIP3    H174491   5.659   5.015   3.449 -0.3574  0.5962  0.9367
17692TIP3    H274492   5.764   4.935   3.523  0.8416 -1.3531 -2.6473
17693TIP3   OH274493   5.665   3.833  15.008  0.5441  0.1949 -0.0129
17693TIP3    H174494   5.667   3.925  15.031 -0.5786 -0.2209  1.9913
17693TIP3    H274495   5.743   3.796  15.050  0.4349  0.0569  0.0705
17694TIP3   OH274496   1.038   1.613  12.629  0.3024 -0.2270 -0.1783
17694TIP3    H174497   1.125   1.653  12.633  0.1155  0.1202  0.5268
17694TIP3    H274498   1.007   1.614  12.720 -0.3705 -0.4995 -0.3993
17695TIP3   OH274499   3.967   4.071  12.569 -0.0223  0.2586 -0.5140
17695TIP3    H174500   4.020   3.996  12.540 -0.9254 -0.2848 -0.7899
17695TIP3    H274501   3.987   4.080  12.662  0.7906  0.2675 -0.6777
17696TIP3   OH274502   1.653   3.852  11.874 -0.4098 -0.3583  0.0402
17696TIP3    H174503   1.570   3.807  11.857  0.0803 -0.4767 -2.5306
17696TIP3    H274504   1.717   3.806  11.820  1.0137  0.7234  0.7260
17697TIP3   OH274505   1.822   1.787   2.762  0.0525  0.4619  0.2944
17697TIP3    H174506   1.822   1.782   2.667 -1.3978  2.5718  0.1192
17697TIP3    H274507   1.869   1.868   2.782  0.8345 -0.2382  1.4175
17698TIP3   OH274508   0.282   4.460  16.345 -0.2075 -0.0606  0.1369
17698TIP3    H174509   0.334   4.524  16.297  0.2814 -0.7428 -0.2703
17698TIP3    H274510   0.236   4.410  16.277  0.1566 -0.7536  0.3884
17699TIP3   OH274511   5.141   0.907  12.211 -0.4903  0.3287  0.1419
17699TIP3    H174512   5.071   0.857  12.170 -0.1558 -0.8849  0.9974
17699TIP3    H274513   5.150   0.986  12.157 -1.8677  0.0550 -0.5078
17700TIP3   OH274514   3.840   1.279  10.615  0.3354 -0.1703  0.2022
17700TIP3    H174515   3.866   1.371  10.607  0.2967 -0.0683  1.1734
17700TIP3    H274516   3.917   1.236  10.652 -0.3927 -0.1136  1.8454
17701TIP3   OH274517   6.640   4.815   2.747 -0.2296  0.3776 -0.1253
17701TIP3    H174518   6.602   4.862   2.822  2.0435 -0.0669  1.3978
17701TIP3    H274519   6.627   4.723   2.768 -0.6035  0.2492 -0.8814
17702TIP3   OH274520   3.479   3.275   4.071  0.5825  0.0135 -0.4135
17702TIP3    H174521   3.430   3.234   4.142  1.0516  0.7910  0.3826
17702TIP3    H274522   3.550   3.214   4.053  0.2864 -0.3315 -0.4343
17703TIP3   OH274523   0.245   3.740   0.421  0.5552 -0.2658 -0.2760
17703TIP3    H174524   0.206   3.819   0.459  1.2913  0.2689 -0.6039
17703TIP3    H274525   0.323   3.772   0.375  0.3465 -1.0595 -1.2132
17704TIP3   OH274526   1.231   6.278  17.174  0.3540 -0.0463  0.0000
17704TIP3    H174527   1.170   6.246  17.241 -0.0772 -2.4835 -1.4391
17704TIP3    H274528   1.175   6.307  17.102  0.8396  1.7431  0.2829
17705TIP3   OH274529   4.550   5.693   6.204  0.5805  0.7447 -0.2377
17705TIP3    H174530   4.562   5.719   6.296  1.2704 -0.2471 -0.0305
17705TIP3    H274531   4.527   5.774   6.159 -1.5649  0.9672  1.1181
17706TIP3   OH274532   3.691   6.207  11.514 -0.5395  0.1076  0.2694
17706TIP3    H174533   3.596   6.200  11.506 -0.5696  1.6117 -1.5069
17706TIP3    H274534   3.714   6.283  11.461  1.6451 -0.0498  0.8721
17707TIP3   OH274535   1.905   4.414  13.383 -0.5601 -0.3233  0.5661
17707TIP3    H174536   1.864   4.335  13.350 -0.0342 -0.1008 -0.7246
17707TIP3    H274537   1.972   4.435  13.317  0.2448  0.4191  1.5836
17708TIP3   OH274538   6.677   0.935  15.628 -0.2225  0.2633 -0.0821
17708TIP3    H174539   6.769   0.926  15.653 -0.0749 -0.4399 -0.8563
17708TIP3    H274540   6.663   1.030  15.625  0.2723  0.3751  0.7601
17709TIP3   OH274541   4.156   3.014   4.999 -0.3872  0.6209 -0.7076
17709TIP3    H174542   4.068   3.044   5.020 -0.4827  0.3203 -0.6830
17709TIP3    H274543   4.175   2.946   5.064  0.4054  1.6583  0.1938
17710TIP3   OH274544   0.374   4.423   3.789 -0.3806  0.0386  0.2692
17710TIP3    H174545   0.397   4.493   3.727  1.2495  0.4833  1.2994
17710TIP3    H274546   0.329   4.468   3.860 -2.8708 -0.5667 -0.8353
17711TIP3   OH274547   2.503   1.428   0.491  0.5041  0.9487 -0.3547
17711TIP3    H174548   2.490   1.514   0.532 -1.1522  0.6800 -0.2308
17711TIP3    H274549   2.419   1.409   0.450  0.8924 -0.5552 -0.4902
17712TIP3   OH274550   2.488   1.929   0.132 -0.3745 -0.4521 -0.1389
17712TIP3    H174551   2.509   2.013   0.174 -1.2026 -0.4095  0.2054
17712TIP3    H274552   2.563   1.912   0.075  1.1050 -0.8016  1.7777
17713TIP3   OH274553   2.406   0.504  15.440 -0.2030  0.1286 -0.0546
17713TIP3    H174554   2.406   0.470  15.351 -1.7481 -0.3933  0.1016
17713TIP3    H274555   2.424   0.598  15.430 -1.5602  0.3146 -1.0544
17714TIP3   OH274556   5.061   3.312  14.308  0.0290  0.0491  0.7549
17714TIP3    H174557   5.087   3.227  14.275 -1.6807 -0.3691  0.3616
17714TIP3    H274558   5.140   3.366  14.303  0.2081 -0.3417 -2.8021
17715TIP3   OH274559   6.572   3.436   4.526  0.1103 -0.3837  0.8736
17715TIP3    H174560   6.482   3.453   4.500  0.5515 -2.5038 -2.7721
17715TIP3    H274561   6.621   3.512   4.493 -0.0095 -0.5531  0.2968
17716TIP3   OH274562   5.541   0.444   0.610 -0.1686  0.1329 -0.0699
17716TIP3    H174563   5.448   0.426   0.600 -0.0371 -0.5846 -0.0568
17716TIP3    H274564   5.582   0.357   0.613  0.6188  0.4304 -1.2867
17717TIP3   OH274565   4.337   1.634  15.164  0.2690  0.1035  0.2569
17717TIP3    H174566   4.402   1.651  15.233  0.3250  0.3614  0.1386
17717TIP3    H274567   4.333   1.538  15.159 -1.0954  0.0119  1.9165
17718TIP3   OH274568   3.032   6.536   3.930 -0.1400  0.2666  0.1129
17718TIP3    H174569   3.076   6.513   4.011  0.0766 -1.1716 -0.3810
17718TIP3    H274570   2.961   6.595   3.956 -1.6088 -2.0798  1.6699
17719TIP3   OH274571   5.542   3.238   1.620 -0.0551 -0.3865 -0.2614
17719TIP3    H174572   5.591   3.239   1.703  0.6835 -0.2736 -0.6907
17719TIP3    H274573   5.574   3.314   1.572  0.9651 -1.5239 -1.4585
17720TIP3   OH274574   5.822   5.178   1.266 -0.2918  0.9187 -0.0397
17720TIP3    H174575   5.871   5.103   1.299 -1.1401 -0.4456 -1.7323
17720TIP3    H274576   5.736   5.172   1.308 -0.6079  0.4804 -0.7209
17721TIP3   OH274577   2.375   4.946   6.059  0.1536  0.7728  0.3586
17721TIP3    H174578   2.286   4.911   6.061 -0.0973  1.3853  0.1391
17721TIP3    H274579   2.388   4.984   6.146  0.8913 -0.9485  1.0583
17722TIP3   OH274580   4.700   1.393  14.976 -0.2600  0.3025  0.2756
17722TIP3    H174581   4.702   1.303  14.942 -0.6825 -0.3028  1.7915
17722TIP3    H274582   4.787   1.428  14.958 -0.3172 -0.1456 -0.9833
17723TIP3   OH274583   4.821   0.739  15.516 -0.0243  0.3439  0.0622
17723TIP3    H174584   4.775   0.699  15.442 -0.7842  1.5814 -0.1688
17723TIP3    H274585   4.904   0.770  15.478 -0.3394  0.8262 -0.2468
17724TIP3   OH274586   2.865   1.929  17.211 -0.7266 -0.5693 -0.0589
17724TIP3    H174587   2.902   2.015  17.190 -2.7287  0.7157  1.2822
17724TIP3    H274588   2.787   1.923  17.156 -2.2414 -0.1570  1.9378
17725TIP3   OH274589   3.574   1.007  17.395 -0.5323  0.5670  0.6582
17725TIP3    H174590   3.667   1.032  17.393 -0.1700 -0.3963  2.6355
17725TIP3    H274591   3.571   0.924  17.347  0.0021 -0.3501  2.1582
17726TIP3   OH274592   5.171   0.435   4.143  0.0080  0.0242  0.0505
17726TIP3    H174593   5.186   0.526   4.117 -0.7962  0.2916  0.4846
17726TIP3    H274594   5.114   0.442   4.220 -0.5187 -0.8650 -0.2568
17727TIP3   OH274595   3.011   5.102  16.032  0.0615  0.4164  0.2364
17727TIP3    H174596   2.944   5.166  16.010  0.5915  0.8904 -0.0362
17727TIP3    H274597   3.077   5.152  16.082  0.5613  0.1308 -0.1242
17728TIP3   OH274598   4.794   6.462   3.831 -0.2051 -0.0299 -0.0896
17728TIP3    H174599   4.725   6.526   3.811 -0.8436 -1.0594 -1.3324
17728TIP3    H274600   4.751   6.377   3.822  1.1732 -0.6960 -0.7085
17729TIP3   OH274601   1.120   0.333   6.169 -0.0925 -0.0220 -0.2656
17729TIP3    H174602   1.043   0.325   6.225 -0.5074  2.0416 -0.4488
17729TIP3    H274603   1.151   0.422   6.185 -0.0827  0.5665 -3.0913
17730TIP3   OH274604   5.089   6.423  10.798 -0.5354  0.4323 -0.1777
17730TIP3    H174605   5.164   6.479  10.781 -0.0776  0.3758  1.4812
17730TIP3    H274606   5.112   6.340  10.755 -0.3552  0.8831 -0.9828
17731TIP3   OH274607   4.968   1.303   3.040 -0.0565 -0.4024 -0.1047
17731TIP3    H174608   4.876   1.307   3.016 -0.5049  1.7017  1.7132
17731TIP3    H274609   5.007   1.382   3.002  1.0206 -1.2257 -0.7868
17732TIP3   OH274610   4.483   2.294   0.015 -0.0312 -0.0812  0.4200
17732TIP3    H174611   4.521   2.239   0.084 -0.9012 -0.6452  0.4670
17732TIP3    H274612   4.523   2.262  -0.066  0.2105 -0.1230  0.5556
17733TIP3   OH274613   5.806   4.644   1.484 -0.3825  0.2085 -0.1237
17733TIP3    H174614   5.722   4.684   1.505 -0.5278 -0.9100  1.5742
17733TIP3    H274615   5.783   4.555   1.456  0.2730 -0.3372  1.0468
17734TIP3   OH274616   5.444   2.314  16.632 -0.1938 -0.8599 -0.3801
17734TIP3    H174617   5.470   2.318  16.723  0.1056 -0.0284 -0.4967
17734TIP3    H274618   5.423   2.222  16.617 -0.3289 -0.9835  0.5434
17735TIP3   OH274619   4.631   5.450   0.628  0.0780 -0.4431 -0.5927
17735TIP3    H174620   4.722   5.478   0.620  0.1934 -1.0910 -1.6706
17735TIP3    H274621   4.630   5.359   0.598 -1.1608 -0.0095 -2.0119
17736TIP3   OH274622   6.192   3.401   5.827 -0.5855 -0.2362 -0.4814
17736TIP3    H174623   6.269   3.344   5.832 -1.8976 -2.0943 -0.4447
17736TIP3    H274624   6.192   3.450   5.909  0.0057 -0.9672 -0.0325
17737TIP3   OH274625   6.710   0.348   0.293 -0.2314 -0.0208  0.3046
17737TIP3    H174626   6.693   0.316   0.382  1.2270 -1.8032 -0.0082
17737TIP3    H274627   6.694   0.273   0.236 -2.4708  1.4432 -1.1818
17738TIP3   OH274628   3.206   5.052   6.452 -0.0630 -0.4450 -0.1548
17738TIP3    H174629   3.149   5.007   6.390 -0.1405  0.3734 -0.6904
17738TIP3    H274630   3.232   5.133   6.407  0.2803 -0.0744  0.6828
17739TIP3   OH274631   4.181   3.558  13.732 -0.0558 -0.4883 -0.1239
17739TIP3    H174632   4.115   3.582  13.796 -0.8971  1.0456 -1.4841
17739TIP3    H274633   4.153   3.473  13.698 -0.4970 -0.5362  0.3563
17740TIP3   OH274634   4.580   5.681   0.742 -0.1220 -0.1203 -0.4337
17740TIP3    H174635   4.566   5.744   0.672  0.4493 -0.1143 -0.5461
17740TIP3    H274636   4.577   5.596   0.700  1.3131 -0.0831 -0.6765
17741TIP3   OH274637   5.137   1.875  16.668 -0.2378  0.2056  0.0157
17741TIP3    H174638   5.229   1.901  16.658  0.3550 -1.1162  1.5783
17741TIP3    H274639   5.088   1.957  16.664  1.2010  1.1807  1.2095
17742TIP3   OH274640   3.153   2.420   3.957 -0.0037  0.5674  0.0969
17742TIP3    H174641   3.166   2.489   3.892  1.5848  0.4431  0.2659
17742TIP3    H274642   3.218   2.437   4.025  0.3423 -1.0365  0.1990
17743TIP3   OH274643   2.403   2.616  16.759 -0.3175 -0.1237 -0.2151
17743TIP3    H174644   2.416   2.708  16.735  0.3001  0.4883  2.1870
17743TIP3    H274645   2.315   2.613  16.796 -0.9288 -0.8612 -1.6509
17744TIP3   OH274646   3.799   3.747   4.636 -0.2036  0.1962  0.3736
17744TIP3    H174647   3.762   3.812   4.696  1.4804 -0.0762  1.7682
17744TIP3    H274648   3.815   3.796   4.555  1.2961  1.6525  1.4798
17745TIP3   OH274649   3.859   2.590   3.713  0.7745  0.3617 -0.3424
17745TIP3    H174650   3.763   2.579   3.714  0.7141  0.7912  1.1185
17745TIP3    H274651   3.874   2.668   3.766  1.8686  1.1275 -1.7397
17746TIP3   OH274652   0.944   3.830  14.884  0.3698 -0.6469 -0.2664
17746TIP3    H174653   0.991   3.839  14.966 -0.0518 -0.4662 -0.0433
17746TIP3    H274654   1.013   3.817  14.818  0.9000  1.8820 -0.2847
17747TIP3   OH274655   4.123   4.973  13.254  0.4544  0.1043 -0.0351
17747TIP3    H174656   4.077   5.055  13.273  0.5011  0.3364 -0.8893
17747TIP3    H274657   4.181   4.960  13.329  0.2736  0.7233  0.2190
17748TIP3   OH274658   6.045   6.138  16.898 -0.0445 -0.3967  0.0341
17748TIP3    H174659   6.140   6.147  16.888 -0.1330  0.5465 -0.0260
17748TIP3    H274660   6.009   6.184  16.822 -0.5311 -2.1376 -0.8404
17749TIP3   OH274661   2.039   2.325   4.289  0.0177  0.0390  0.0872
17749TIP3    H174662   1.965   2.386   4.286 -1.0791 -1.2943 -1.5005
17749TIP3    H274663   2.056   2.304   4.197  2.3510  0.2219  0.4048
17750TIP3   OH274664   4.466   2.653   1.227 -0.5304  0.2829 -0.1040
17750TIP3    H174665   4.556   2.650   1.197 -0.1003  2.8512  0.6803
17750TIP3    H274666   4.459   2.582   1.291  0.1128 -1.6451 -2.0541
17751TIP3   OH274667   3.489   6.579   1.404 -0.0647 -0.2717 -0.1639
17751TIP3    H174668   3.490   6.624   1.488 -0.4698 -0.3578 -0.1101
17751TIP3    H274669   3.528   6.493   1.421 -1.1722 -0.7217  0.1925
17752TIP3   OH274670   3.874   3.477   1.297  0.4865  0.3572  0.3460
17752TIP3    H174671   3.863   3.486   1.391  1.6758  1.1822  0.4300
17752TIP3    H274672   3.854   3.565   1.263  2.8245  0.8720  0.1484
17753TIP3   OH274673   2.648   3.021  13.542  0.3978  0.0078  0.1289
17753TIP3    H174674   2.594   3.032  13.620  2.7485  0.3840  1.8322
17753TIP3    H274675   2.635   3.101  13.491 -0.8344 -0.0502  0.3283
17754TIP3   OH274676   3.559   4.750   4.337 -0.0768 -0.0876 -0.0358
17754TIP3    H174677   3.585   4.665   4.300 -1.8874 -0.5869 -0.2763
17754TIP3    H274678   3.486   4.778   4.281 -0.1563  1.1388  0.6631
17755TIP3   OH274679   1.762   0.100   0.352 -0.2021 -0.1856 -0.4578
17755TIP3    H174680   1.739   0.093   0.260 -2.0195 -0.1960 -0.0494
17755TIP3    H274681   1.697   0.046   0.397  1.6870 -1.5945  0.7367
17756TIP3   OH274682   3.973   1.279  14.322 -0.0980  0.2892  0.2993
17756TIP3    H174683   3.939   1.342  14.259  0.3720  1.6708  1.3734
17756TIP3    H274684   4.068   1.284  14.312 -0.0649 -1.3002 -0.5567
17757TIP3   OH274685   6.583   6.281   6.067 -0.3652 -0.1136  0.0700
17757TIP3    H174686   6.649   6.288   6.137  0.1917  0.8571 -0.5215
17757TIP3    H274687   6.501   6.264   6.113  0.0591  0.0917  0.9314
17758TIP3   OH274688   4.023   5.947   0.919  0.9040 -0.2467 -0.5494
17758TIP3    H174689   3.962   6.005   0.964  3.7999  2.1318  0.6627
17758TIP3    H274690   3.984   5.934   0.832 -0.6841  2.2791 -0.3124
17759TIP3   OH274691   3.651   6.394   2.064 -0.2239  0.4021  0.4449
17759TIP3    H174692   3.726   6.416   2.009 -0.4805  1.2487  0.4153
17759TIP3    H274693   3.659   6.453   2.139 -1.6474  1.5551 -0.2530
17760TIP3   OH274694   3.750   0.405   3.340 -0.2607 -0.4134  0.1886
17760TIP3    H174695   3.729   0.494   3.368 -2.3762 -1.0113  0.7279
17760TIP3    H274696   3.770   0.414   3.247  1.0754  0.8062  0.5611
17761TIP3   OH274697   5.089   4.316  12.936  0.1651 -0.4266  0.2995
17761TIP3    H174698   5.067   4.395  12.886 -0.1850  0.9477  2.4804
17761TIP3    H274699   5.062   4.244  12.879 -0.5074  1.0253 -1.3398
17762TIP3   OH274700   3.289   0.484  14.140  0.1158  0.6256 -0.5521
17762TIP3    H174701   3.278   0.541  14.216  0.9268 -0.9007  0.7643
17762TIP3    H274702   3.326   0.540  14.073 -1.8413  2.3402 -0.3006
17763TIP3   OH274703   3.423   3.807   0.269  0.2034 -0.1780 -0.1459
17763TIP3    H174704   3.340   3.821   0.313 -0.1356 -1.8301 -0.1960
17763TIP3    H274705   3.423   3.868   0.195 -0.8966 -0.0608 -0.0534
17764TIP3   OH274706   0.978   2.785  16.768 -0.1786  0.1874 -0.1894
17764TIP3    H174707   1.054   2.762  16.715  0.2454  0.9622  0.0705
17764TIP3    H274708   0.912   2.812  16.704  0.3109  1.0692 -0.3459
17765TIP3   OH274709   3.873   1.106   4.117 -0.0637  0.1167 -0.4429
17765TIP3    H174710   3.777   1.108   4.122 -0.0483 -0.4256  0.2253
17765TIP3    H274711   3.900   1.065   4.199  0.7759  0.9431 -0.2970
17766TIP3   OH274712   5.229   0.027   4.154 -0.0960  0.0619  0.8462
17766TIP3    H174713   5.213  -0.055   4.199 -0.5756  0.5988  1.6744
17766TIP3    H274714   5.250   0.090   4.223  4.1694 -0.1629  0.0087
17767TIP3   OH274715   1.633   4.253  13.839  0.1400  0.3206 -0.1244
17767TIP3    H174716   1.589   4.174  13.807  0.6099 -0.5214  1.2193
17767TIP3    H274717   1.700   4.271  13.773 -2.2559  1.7690 -2.3362
17768TIP3   OH274718   2.532   4.804   4.473 -0.1055  0.9174  0.4823
17768TIP3    H174719   2.590   4.854   4.530  0.6074  1.1067 -0.3761
17768TIP3    H274720   2.483   4.747   4.532  0.4356  1.2723  1.2973
17769TIP3   OH274721   4.173   1.839  12.934  0.0791  0.0542 -0.4785
17769TIP3    H174722   4.183   1.802  12.847 -2.2555  0.6632 -1.0619
17769TIP3    H274723   4.231   1.915  12.934 -0.9934  0.9354 -2.0819
17770TIP3   OH274724   0.776   6.028   3.158  0.5558 -0.0625 -0.2468
17770TIP3    H174725   0.820   6.106   3.126  1.6287 -0.5492 -0.0257
17770TIP3    H274726   0.723   6.058   3.232 -0.0599  0.6559 -0.9647
17771TIP3   OH274727   5.579   5.843  11.379  0.2615 -0.0223 -0.4482
17771TIP3    H174728   5.533   5.921  11.410  3.0812  1.5622  0.1091
17771TIP3    H274729   5.629   5.813  11.455 -0.4882 -2.2335 -0.7566
17772TIP3   OH274730   3.127   1.895  11.908  0.0692 -0.3436 -0.0162
17772TIP3    H174731   3.086   1.944  11.979  2.2632 -0.6664  1.5606
17772TIP3    H274732   3.122   1.954  11.833 -0.7206  0.7281  0.8304
17773TIP3   OH274733   3.138   1.508  14.973  0.2187  0.1025  0.1637
17773TIP3    H174734   3.187   1.426  14.978 -0.3447 -0.4032 -1.8171
17773TIP3    H274735   3.187   1.568  15.029  2.1520 -0.8472 -0.4031
17774TIP3   OH274736   1.882   2.953  11.071  0.4707 -0.3360 -0.3266
17774TIP3    H174737   1.807   3.013  11.077  0.0967 -0.6758 -1.3860
17774TIP3    H274738   1.956   3.005  11.101 -0.2088 -0.0409  0.9009
17775TIP3   OH274739   6.511   5.424  13.927 -0.1232 -0.8030 -0.0384
17775TIP3    H174740   6.511   5.383  13.840  0.4873  1.3789 -1.1514
17775TIP3    H274741   6.463   5.506  13.914 -1.4478 -1.1575  2.1147
17776TIP3   OH274742   3.686   1.597  15.713  0.0462  0.0391 -0.0615
17776TIP3    H174743   3.706   1.588  15.806  1.7371 -0.1628 -0.4131
17776TIP3    H274744   3.621   1.529  15.695 -2.7318  2.0651  1.5876
17777TIP3   OH274745   6.120   3.918  13.315  0.2167 -0.2309  0.0605
17777TIP3    H174746   6.066   3.881  13.245  0.5558  0.7021 -0.7002
17777TIP3    H274747   6.210   3.902  13.287  0.3520 -0.1796  0.4616
17778TIP3   OH274748   3.436   1.249   3.839  0.1829 -0.7447 -0.2059
17778TIP3    H174749   3.486   1.237   3.758  1.0284 -1.4791  0.4088
17778TIP3    H274750   3.392   1.333   3.827  2.6291  0.6373 -0.2443
17779TIP3   OH274751   0.854   6.431  14.468  0.2596  0.0089  0.0158
17779TIP3    H174752   0.926   6.385  14.425  0.7318  0.4638  0.3189
17779TIP3    H274753   0.880   6.437  14.560  0.1332  0.7462  0.0098
17780TIP3   OH274754   1.979   3.254  11.751  0.2740 -0.1390  0.2108
17780TIP3    H174755   1.979   3.202  11.670  0.1954  0.7259 -0.3601
17780TIP3    H274756   2.070   3.278  11.764  0.7992 -2.7560  2.0549
17781TIP3   OH274757   1.656   6.095   4.672 -0.5040  0.5075 -0.5086
17781TIP3    H174758   1.704   6.123   4.750 -0.5505  0.6238 -0.5219
17781TIP3    H274759   1.568   6.075   4.704 -0.9044  1.8103 -0.7472
17782TIP3   OH274760   2.065   4.131  16.374  0.1533  0.4356  0.2741
17782TIP3    H174761   2.036   4.191  16.442  0.7734  3.7821 -2.1266
17782TIP3    H274762   2.139   4.085  16.412 -0.1010  1.4854  2.1506
17783TIP3   OH274763   1.669   3.258  12.128 -0.4473  0.0674  0.2001
17783TIP3    H174764   1.670   3.192  12.197 -0.0316  1.3862  1.5099
17783TIP3    H274765   1.726   3.223  12.060 -0.1905 -0.8900  0.8891
17784TIP3   OH274766   3.865   4.473  11.833  0.3241  0.2162 -0.0436
17784TIP3    H174767   3.931   4.445  11.896  0.5304 -1.9477 -1.1332
17784TIP3    H274768   3.912   4.529  11.772  1.1183 -1.0718 -0.6407
17785TIP3   OH274769   5.569   5.836  14.246 -0.1093 -0.0598  0.0305
17785TIP3    H174770   5.636   5.782  14.288  0.6579 -0.0295 -1.1203
17785TIP3    H274771   5.498   5.775  14.226 -2.0467  0.4379  4.2967
17786TIP3   OH274772   2.290   0.445  16.093  0.7356  0.0503  0.0089
17786TIP3    H174773   2.327   0.420  16.178  1.0408  0.4912  0.0102
17786TIP3    H274774   2.206   0.486  16.115  1.8807  2.3961  0.3288
17787TIP3   OH274775   2.023   2.276  12.170 -0.1099 -0.2727  0.0609
17787TIP3    H174776   1.946   2.319  12.207 -0.8957  0.5222 -2.3009
17787TIP3    H274777   1.991   2.237  12.089  1.6725 -1.2345 -0.2174
17788TIP3   OH274778   1.766   0.615  11.458 -0.1049 -0.0975 -0.8480
17788TIP3    H174779   1.802   0.665  11.385  1.7784 -1.6107 -1.0398
17788TIP3    H274780   1.840   0.563  11.491 -1.2307 -0.4968  1.2612
17789TIP3   OH274781   4.838   3.951   5.773  0.3029  1.0405 -0.0562
17789TIP3    H174782   4.807   3.886   5.836 -0.9381  2.2862  0.6720
17789TIP3    H274783   4.910   3.907   5.727 -1.0789 -1.2076 -0.2647
17790TIP3   OH274784   1.317   5.712   5.823 -0.6914  0.4238  0.4485
17790TIP3    H174785   1.268   5.793   5.836  0.0931  1.3695 -1.9058
17790TIP3    H274786   1.257   5.643   5.852 -3.1219  1.5850 -1.3881
17791TIP3   OH274787   5.145   4.615   5.054  0.0351 -0.1822 -0.3624
17791TIP3    H174788   5.183   4.528   5.040  1.4591  0.4069 -0.3319
17791TIP3    H274789   5.140   4.623   5.149  1.1926  0.2691 -0.3169
17792TIP3   OH274790   0.156   6.119  15.464 -0.2405 -0.2192  0.1692
17792TIP3    H174791   0.125   6.141  15.376 -0.8888  0.2072  0.4964
17792TIP3    H274792   0.085   6.067  15.502 -1.2387  1.9120  1.4188
17793TIP3   OH274793   2.757   4.850  10.881  0.4154  0.2855 -0.0423
17793TIP3    H174794   2.802   4.795  10.817  1.7166  1.7979 -0.4862
17793TIP3    H274795   2.758   4.938  10.842 -0.4079  0.8928  1.2408
17794TIP3   OH274796   2.271   6.222   1.990 -0.1728 -0.2877 -0.0109
17794TIP3    H174797   2.324   6.302   1.998 -1.0484  0.3318 -0.2298
17794TIP3    H274798   2.334   6.155   1.965  0.5964  0.3189  0.2270
17795TIP3   OH274799   5.188   6.626   3.924  0.6169  0.3270  0.0909
17795TIP3    H174800   5.265   6.679   3.944  1.1354 -1.1702  2.5053
17795TIP3    H274801   5.151   6.605   4.010 -1.5511 -0.3802 -0.9428
17796TIP3   OH274802   6.415   3.433  11.928  0.4317  0.4801 -0.5941
17796TIP3    H174803   6.375   3.347  11.941 -0.2859  1.1030  1.6888
17796TIP3    H274804   6.400   3.453  11.836 -3.3456  0.0813 -0.1960
17797TIP3   OH274805   4.213   5.535  16.398  0.5286  0.1468 -0.4229
17797TIP3    H174806   4.191   5.488  16.478  0.2071 -0.8508 -1.0709
17797TIP3    H274807   4.133   5.530  16.345  0.4232  1.6117 -0.4421
17798TIP3   OH274808   2.550   0.991   2.901  0.6776 -0.3258  0.4855
17798TIP3    H174809   2.535   0.989   2.807 -0.2267  2.8618  0.4703
17798TIP3    H274810   2.612   0.920   2.916  2.8137  0.5923 -2.8872
17799TIP3   OH274811   3.018   1.382   0.508 -0.3440 -0.2037 -0.4008
17799TIP3    H174812   2.961   1.373   0.584 -0.6917  2.7486 -0.1894
17799TIP3    H274813   2.960   1.411   0.437  0.4566  0.0980 -0.9464
17800TIP3   OH274814   0.800   5.924  17.168 -0.3001 -0.3671  0.1948
17800TIP3    H174815   0.884   5.946  17.128 -1.0660  0.8885 -0.8092
17800TIP3    H274816   0.788   5.990  17.236 -0.5855 -0.3856  0.1620
17801TIP3   OH274817   5.792   5.568   6.175 -0.2087 -0.1798 -0.1149
17801TIP3    H174818   5.742   5.488   6.191 -1.7742  0.7559 -0.0710
17801TIP3    H274819   5.755   5.632   6.236  0.3375  0.8333 -0.8178
17802TIP3   OH274820   3.668   0.413  13.319 -0.1393  0.2513  0.2236
17802TIP3    H174821   3.701   0.486  13.266 -0.9072  2.3685  2.4601
17802TIP3    H274822   3.576   0.435  13.335  0.0660 -0.2953  2.3628
17803TIP3   OH274823   3.424   2.856  14.486 -0.1295  0.5826  0.1044
17803TIP3    H174824   3.498   2.827  14.539  0.0428 -0.0524 -0.4617
17803TIP3    H274825   3.360   2.785  14.494  0.7364 -0.5636 -2.1743
17804TIP3   OH274826   2.310   6.393  16.069  0.1748  0.4180 -0.4918
17804TIP3    H174827   2.278   6.317  16.020  1.8388  0.4308 -1.6767
17804TIP3    H274828   2.350   6.449  16.003  0.2167  1.6749  0.5587
17805TIP3   OH274829   5.467   5.438   0.680  0.3395 -0.4241  0.2980
17805TIP3    H174830   5.527   5.507   0.707  0.7573  0.5063 -2.6577
17805TIP3    H274831   5.523   5.364   0.658  0.5183  0.4665 -2.5232
17806TIP3   OH274832   1.098   0.844   4.926  0.4757  0.1020  0.1110
17806TIP3    H174833   1.156   0.787   4.976  2.6215  1.6996 -0.3936
17806TIP3    H274834   1.052   0.895   4.992  1.5478  0.5625  0.5305
17807TIP3   OH274835   5.796   5.370   5.028  0.7290  0.1332  0.3133
17807TIP3    H174836   5.875   5.406   4.987  0.7082  0.1360  0.2758
17807TIP3    H274837   5.785   5.422   5.108  0.3621  0.6073 -0.0445
17808TIP3   OH274838   4.547   2.200  12.673  0.4013  0.3437 -0.2963
17808TIP3    H174839   4.592   2.127  12.716 -2.7352 -1.7430 -0.1875
17808TIP3    H274840   4.491   2.236  12.741 -1.6609 -0.3976 -1.5135
17809TIP3   OH274841   5.322   1.739  16.136 -0.1166 -0.0723 -0.0220
17809TIP3    H174842   5.396   1.780  16.091 -0.7766  0.3593 -0.7413
17809TIP3    H274843   5.324   1.777  16.223  0.6795 -0.2913  0.0692
17810TIP3   OH274844   3.135   4.111   5.320  0.0806  0.6181  0.2696
17810TIP3    H174845   3.124   4.017   5.329 -0.7161  0.7743  1.1590
17810TIP3    H274846   3.047   4.143   5.298 -0.1815  1.3752  2.2180
17811TIP3   OH274847   1.351   0.678  14.752  0.1091 -0.3480  0.0240
17811TIP3    H174848   1.354   0.583  14.763 -0.1064 -0.3657 -0.0799
17811TIP3    H274849   1.316   0.691  14.664 -0.6404 -0.1596  0.3450
17812TIP3   OH274850   6.673   5.545  14.701  0.2177 -0.5676 -0.3119
17812TIP3    H174851   6.738   5.535  14.770  1.0169 -2.8678 -1.2837
17812TIP3    H274852   6.681   5.637  14.673  0.9172 -0.0148  1.5939
17813TIP3   OH274853   6.661   4.315  13.761  0.4333  0.2600  0.4748
17813TIP3    H174854   6.585   4.371  13.745  0.5445  0.1722 -0.4027
17813TIP3    H274855   6.735   4.375  13.763  0.5993  0.1283 -0.8358
17814TIP3   OH274856   0.857   0.772   4.354  0.1710 -0.6948 -0.2016
17814TIP3    H174857   0.840   0.717   4.277  0.4111  1.0825 -1.6070
17814TIP3    H274858   0.831   0.718   4.428  0.6299 -2.7683 -1.4637
17815TIP3   OH274859   6.715   6.217  13.949  0.6683  0.0041  0.2446
17815TIP3    H174860   6.773   6.231  13.875 -0.8734 -0.1009 -1.0458
17815TIP3    H274861   6.699   6.123  13.951 -0.6658  0.1837 -0.4329
17816TIP3   OH274862   1.521   2.630   0.322  0.6530 -0.4838 -0.3976
17816TIP3    H174863   1.532   2.721   0.351 -1.0545 -1.0397  2.4005
17816TIP3    H274864   1.431   2.609   0.344  0.7802 -2.6649 -1.6976
17817TIP3   OH274865   1.356   3.316   4.631 -0.1229 -0.5025  0.3770
17817TIP3    H174866   1.426   3.260   4.597  0.1941 -0.0753  0.3125
17817TIP3    H274867   1.282   3.257   4.643  0.2114 -0.9402  0.3307
17818TIP3   OH274868   3.664   2.724  17.329  0.6101 -0.3491  0.0521
17818TIP3    H174869   3.700   2.746  17.243  0.9189 -0.3372  0.1832
17818TIP3    H274870   3.738   2.687  17.377  0.7137  0.6619  0.6875
17819TIP3   OH274871   6.682   4.095  17.214 -0.3750  0.3534  0.4733
17819TIP3    H174872   6.645   4.152  17.281  1.9575  0.4096  1.8566
17819TIP3    H274873   6.702   4.153  17.141 -1.8911  0.5072  0.1632
17820TIP3   OH274874   1.510   2.937  12.970 -0.5519  0.6891  0.0898
17820TIP3    H174875   1.436   2.879  12.953 -1.2478  1.5773  0.0196
17820TIP3    H274876   1.483   3.021  12.932 -0.2820  1.5230  1.6863
17821TIP3   OH274877   2.771   0.713  14.229 -0.1049  0.0729  0.1557
17821TIP3    H174878   2.842   0.764  14.190 -0.6179  0.1702 -0.6950
17821TIP3    H274879   2.692   0.746  14.186 -0.4339 -1.5348 -0.5403
17822TIP3   OH274880   1.879   6.563   1.370 -0.2252 -0.1763 -0.1088
17822TIP3    H174881   1.797   6.606   1.349 -1.3202 -1.6172  0.9984
17822TIP3    H274882   1.895   6.584   1.462  0.2261 -0.5371 -0.0983
17823TIP3   OH274883   5.133   2.396  16.072 -0.2036  0.4805  0.2705
17823TIP3    H174884   5.171   2.478  16.040  0.3034  0.5672  1.0749
17823TIP3    H274885   5.053   2.423  16.117  0.1981  0.5969  0.9332
17824TIP3   OH274886   1.960   2.700   5.791 -0.3151 -0.0245 -0.2751
17824TIP3    H174887   1.946   2.766   5.723 -1.4944  0.7592  0.6855
17824TIP3    H274888   2.039   2.654   5.763  0.8752  2.1378 -0.7004
17825TIP3   OH274889   3.687   3.331   2.675  0.4543 -0.2872 -0.2571
17825TIP3    H174890   3.694   3.319   2.580  0.8429  1.3846 -0.4673
17825TIP3    H274891   3.601   3.372   2.687 -0.1579 -1.6496  0.2707
17826TIP3   OH274892   2.094   5.069  10.804  0.3890  0.2175 -0.0981
17826TIP3    H174893   2.057   4.983  10.785  2.3821 -0.7320  0.0593
17826TIP3    H274894   2.019   5.128  10.806 -1.1783 -1.7177  1.0204
17827TIP3   OH274895   2.863   2.210  13.501  0.6566  0.3811 -0.1997
17827TIP3    H174896   2.769   2.213  13.486  0.3684  0.5519  1.4331
17827TIP3    H274897   2.901   2.256  13.426 -0.5575  0.3720 -0.8393
17828TIP3   OH274898   5.438   3.483  15.725  0.1296 -0.2584  0.5258
17828TIP3    H174899   5.529   3.455  15.740  0.7397  1.0347 -0.5576
17828TIP3    H274900   5.403   3.418  15.665  1.2518  0.6887 -1.2521
17829TIP3   OH274901   4.273   6.346  16.721  0.4947 -0.4400  0.3637
17829TIP3    H174902   4.188   6.373  16.684 -0.7617 -1.2593  2.4591
17829TIP3    H274903   4.327   6.425  16.714 -0.6927  0.3660 -0.3104
17830TIP3   OH274904   2.232   3.434  13.310  0.0821  0.2352  0.0176
17830TIP3    H174905   2.172   3.369  13.273  0.8321 -0.5021  0.0519
17830TIP3    H274906   2.184   3.472  13.383 -0.1788 -0.6894  0.3491
17831TIP3   OH274907   5.122   1.020   3.934 -0.0636 -0.1351  0.2855
17831TIP3    H174908   5.171   0.966   3.872 -1.0926 -1.6970  0.7387
17831TIP3    H274909   5.043   1.046   3.886 -0.6462 -0.9736  0.7334
17832TIP3   OH274910   4.588   4.103   1.934 -0.3422  0.2461  0.5548
17832TIP3    H174911   4.563   4.159   2.007 -1.1244  1.4195 -0.5717
17832TIP3    H274912   4.665   4.055   1.965  1.2783  2.9891  1.1111
17833TIP3   OH274913   3.122   0.237  13.889  0.5650 -0.3937  0.5376
17833TIP3    H174914   3.104   0.263  13.799  1.7442  0.4472  0.5266
17833TIP3    H274915   3.194   0.294  13.917  0.2275 -0.6425  2.0051
17834TIP3   OH274916   4.213   2.640   4.905 -0.3810 -0.0566  0.7126
17834TIP3    H174917   4.230   2.706   4.972  2.5139 -0.1751  0.2445
17834TIP3    H274918   4.160   2.686   4.839 -2.2255  0.4035  2.4204
17835TIP3   OH274919   5.137   1.325   1.876 -0.2588 -0.2490 -0.2845
17835TIP3    H174920   5.082   1.247   1.881 -0.0689 -0.3620  0.0602
17835TIP3    H274921   5.079   1.398   1.896 -0.6365 -0.2133 -1.4588
17836TIP3   OH274922   5.493   0.361  15.844  0.2794  0.0198  0.2208
17836TIP3    H174923   5.531   0.342  15.758  0.4833  1.8190 -0.1141
17836TIP3    H274924   5.565   0.395  15.896  0.3121 -1.6517  1.3685
17837TIP3   OH274925   2.658   1.778  16.973  0.4236  0.2673 -0.5524
17837TIP3    H174926   2.629   1.696  16.935  1.8304 -1.0551  1.0605
17837TIP3    H274927   2.750   1.787  16.947  0.6228  0.7125  0.2315
17838TIP3   OH274928   5.714   4.065  15.217 -0.6439 -0.3731 -0.4508
17838TIP3    H174929   5.723   4.160  15.219  2.5739 -0.5773  0.6390
17838TIP3    H274930   5.755   4.036  15.298 -1.6111 -2.7174 -0.7318
17839TIP3   OH274931   2.020   3.140  15.264  0.1926 -0.2720  0.0566
17839TIP3    H174932   2.043   3.163  15.174  0.8096  0.1430  0.3158
17839TIP3    H274933   1.971   3.215  15.296  0.6707 -0.0806  0.3311
17840TIP3   OH274934   0.781   3.036  14.335 -0.1927  0.0880  0.7960
17840TIP3    H174935   0.822   2.971  14.393 -0.1775 -1.5786 -1.0067
17840TIP3    H274936   0.764   2.989  14.254 -2.1582  1.7973  0.1412
17841TIP3   OH274937   5.622   5.362   0.407 -0.5101  0.0792 -1.0435
17841TIP3    H174938   5.616   5.281   0.458 -2.1407  0.5940 -0.3737
17841TIP3    H274939   5.695   5.410   0.447  1.5020 -1.6245 -2.3927
17842TIP3   OH274940   1.376   3.861  17.174  0.0654  0.4895  0.8000
17842TIP3    H174941   1.314   3.803  17.129  1.8033 -0.9568  0.1582
17842TIP3    H274942   1.428   3.899  17.103  1.4750 -0.2038  1.4178
17843TIP3   OH274943   0.877   5.306  15.369 -0.2943  0.0856  0.0346
17843TIP3    H174944   0.787   5.331  15.348  0.1826  0.9592 -1.0569
17843TIP3    H274945   0.868   5.231  15.427 -1.7326  0.3530  0.1910
17844TIP3   OH274946   5.709   4.535   3.286  0.0944  0.1932  0.9289
17844TIP3    H174947   5.795   4.570   3.263  0.0472  1.2531  2.2134
17844TIP3    H274948   5.722   4.440   3.291  1.4645  0.4068  2.0761
17845TIP3   OH274949   5.868   3.758   1.706  1.0358  0.3683 -0.3957
17845TIP3    H174950   5.825   3.785   1.787 -1.3227  0.5535 -1.6263
17845TIP3    H274951   5.962   3.759   1.727  0.5553  1.3865  2.0037
17846TIP3   OH274952   0.674   0.359   3.282  0.6271  0.6040  0.0755
17846TIP3    H174953   0.756   0.365   3.234  0.4592 -0.3479 -0.3605
17846TIP3    H274954   0.696   0.382   3.372  1.9214 -2.0067  0.5228
17847TIP3   OH274955   4.348   4.367  15.263 -0.7620 -0.7039  0.5701
17847TIP3    H174956   4.338   4.443  15.320 -3.1884  0.3841 -1.1217
17847TIP3    H274957   4.437   4.336  15.279  0.1421  2.1893  1.7137
17848TIP3   OH274958   5.552   6.251  12.590 -0.1725 -0.0561  0.5495
17848TIP3    H174959   5.492   6.178  12.579  0.1494 -0.3146  0.4730
17848TIP3    H274960   5.629   6.213  12.633 -1.0538  0.7582  3.0036
17849TIP3   OH274961   6.315   1.291   5.715  0.3513 -0.9724  0.2026
17849TIP3    H174962   6.265   1.372   5.719 -0.3974 -1.4539  1.1070
17849TIP3    H274963   6.270   1.232   5.777  0.2723 -2.3982 -1.1453
17850TIP3   OH274964   0.385   0.595  13.057  0.8898 -0.0900  0.6925
17850TIP3    H174965   0.375   0.673  13.003 -0.0748  0.4772  1.6590
17850TIP3    H274966   0.424   0.627  13.139  2.4641 -0.9558  0.3288
17851TIP3   OH274967   4.726   3.007  14.873 -0.1900  1.2180 -0.1038
17851TIP3    H174968   4.711   2.927  14.824  0.0061  1.4854 -0.6118
17851TIP3    H274969   4.665   3.071  14.835  0.6850  1.7116 -0.7226
17852TIP3   OH274970   0.130   3.916   3.269  0.6518  0.1507 -0.2675
17852TIP3    H174971   0.142   4.002   3.310 -0.8048  0.0415  0.4594
17852TIP3    H274972   0.053   3.927   3.213 -0.7041 -1.1091  1.2451
17853TIP3   OH274973   2.026   4.892  13.948 -0.1489  0.1027 -0.0164
17853TIP3    H174974   1.939   4.930  13.962  0.1451  0.9321 -0.3514
17853TIP3    H274975   2.022   4.856  13.860 -0.8199 -1.7899  0.7479
17854TIP3   OH274976   4.682   0.053   1.774 -0.0274  0.0307 -0.0396
17854TIP3    H174977   4.612   0.106   1.737  0.8358  1.4874  0.3534
17854TIP3    H274978   4.762   0.101   1.753  0.6667 -0.3313  1.6562
17855TIP3   OH274979   6.026   2.879  11.909  0.2072  0.1267 -0.3313
17855TIP3    H174980   6.078   2.851  11.833 -1.2447 -0.7463 -1.0622
17855TIP3    H274981   5.973   2.952  11.876 -0.1531 -0.0075 -0.0599
17856TIP3   OH274982   6.048   1.594   4.652  0.6512 -0.1327 -0.2880
17856TIP3    H174983   6.121   1.640   4.694  0.7662 -0.5818  0.0082
17856TIP3    H274984   5.999   1.556   4.725 -0.6282  1.2292 -0.3669
17857TIP3   OH274985   3.676   3.294  16.997  0.4144  0.4133  0.0355
17857TIP3    H174986   3.646   3.230  17.062 -0.1436 -0.9065 -1.4524
17857TIP3    H274987   3.615   3.367  17.005 -0.6402 -0.4278 -0.0711
17858TIP3   OH274988   3.979   6.098  13.652 -0.0404  0.5208 -0.1166
17858TIP3    H174989   4.035   6.174  13.670  1.2680 -0.4111 -0.0705
17858TIP3    H274990   3.965   6.057  13.737 -0.5770  0.5902 -0.1679
17859TIP3   OH274991   4.349   1.660   3.044  0.4039  0.5175 -1.0308
17859TIP3    H174992   4.299   1.670   2.963  0.2927 -2.4509 -1.4368
17859TIP3    H274993   4.282   1.660   3.113 -0.2689 -2.7613 -1.5158
17860TIP3   OH274994   5.415   1.893   2.537 -0.0273 -0.3743 -0.6177
17860TIP3    H174995   5.324   1.920   2.553 -0.2963 -1.6788  0.2402
17860TIP3    H274996   5.447   1.955   2.472 -0.9885  1.1761  0.3001
17861TIP3   OH274997   3.491   0.660   3.105 -0.1059 -0.5844 -0.2120
17861TIP3    H174998   3.587   0.659   3.103 -0.1134 -0.9479 -2.2767
17861TIP3    H274999   3.467   0.743   3.065 -0.6887 -0.1401  1.0054
17862TIP3   OH275000   1.339   0.654  13.165 -0.6191  0.0841  0.4029
17862TIP3    H175001   1.334   0.738  13.120 -1.9774  0.0847  0.5286
17862TIP3    H275002   1.383   0.597  13.102 -2.1226  0.1910 -0.8162
17863TIP3   OH275003   5.553   0.362  12.850  0.3195 -0.2622  0.7623
17863TIP3    H175004   5.533   0.297  12.917  1.2302 -0.6921  0.6433
17863TIP3    H275005   5.499   0.438  12.871  2.3531  0.5736  3.4532
17864TIP3   OH275006   3.418   2.397  12.266 -0.2743  0.3440 -0.2732
17864TIP3    H175007   3.331   2.381  12.301 -0.0779  0.0847  0.0989
17864TIP3    H275008   3.442   2.484  12.299  0.3104 -0.3042  1.0594
17865TIP3   OH275009   0.195   2.170  16.117  0.1536 -0.5099  0.0615
17865TIP3    H175010   0.199   2.176  16.213  0.4826 -0.3874  0.0412
17865TIP3    H275011   0.287   2.165  16.090  0.0366 -1.5105 -0.1891
17866TIP3   OH275012   3.635   5.012   4.631 -0.1158 -0.3072  0.0151
17866TIP3    H175013   3.638   4.918   4.651 -0.9450 -0.4797 -0.6322
17866TIP3    H275014   3.689   5.052   4.699  0.2839 -1.2546  0.2823
17867TIP3   OH275015   4.180   3.841  14.080  0.2117  0.3788  0.6051
17867TIP3    H175016   4.227   3.860  13.999  2.8718 -1.2906  1.6150
17867TIP3    H275017   4.219   3.899  14.145 -1.3506  1.1532  0.8925
17868TIP3   OH275018   3.406   2.411  13.563  0.0093 -0.2256  0.2805
17868TIP3    H175019   3.412   2.342  13.497  1.7301  0.2083 -0.0646
17868TIP3    H275020   3.343   2.378  13.627 -0.3938 -1.4087 -0.7007
17869TIP3   OH275021   5.451   2.609  15.879  0.2521 -0.0427 -0.3103
17869TIP3    H175022   5.499   2.604  15.962 -0.0916  0.5010 -0.0751
17869TIP3    H275023   5.465   2.523  15.839 -0.4028 -0.6802  0.7622
17870TIP3   OH275024   6.568   0.198  15.738 -0.0916  0.4244  0.2203
17870TIP3    H175025   6.569   0.145  15.658  0.7619 -0.7312  0.9585
17870TIP3    H275026   6.625   0.273  15.718 -0.0142  0.2304 -0.3040
17871TIP3   OH275027   0.698   6.444   3.883  0.5154 -0.7365 -0.6309
17871TIP3    H175028   0.604   6.430   3.899  0.7152  0.0678  1.6089
17871TIP3    H275029   0.741   6.375   3.934  1.1569 -0.6757 -1.0886
17872TIP3   OH275030   5.364   0.136  15.920 -0.0197  0.0455 -0.5820
17872TIP3    H175031   5.303   0.132  15.847  1.3631  1.2072 -1.8612
17872TIP3    H275032   5.416   0.215  15.904  1.0331 -0.2501  1.0934
17873TIP3   OH275033   3.418   5.544   3.091 -0.6934  0.3272 -0.0334
17873TIP3    H175034   3.472   5.567   3.016  1.3613  2.7337  1.9938
17873TIP3    H275035   3.474   5.485   3.142 -1.5634 -0.2744  0.2394
17874TIP3   OH275036   1.547   4.839  14.922 -0.3334 -0.4130  0.3928
17874TIP3    H175037   1.472   4.853  14.863  0.4261 -0.9449 -0.7381
17874TIP3    H275038   1.539   4.747  14.948  0.2909 -0.6732 -0.2896
17875TIP3   OH275039   3.800   4.030   0.435 -0.6380 -0.3404 -0.8448
17875TIP3    H175040   3.775   3.973   0.362  1.0916  0.6170 -2.2853
17875TIP3    H275041   3.881   3.992   0.469 -0.4780  0.1989 -0.6020
17876TIP3   OH275042   2.651   6.253  11.269 -0.1079 -0.0785  0.6412
17876TIP3    H175043   2.706   6.299  11.332  0.3229 -1.5994  1.4347
17876TIP3    H275044   2.561   6.272  11.297  0.0709 -0.0122  1.1818
17877TIP3   OH275045   1.573   2.532   1.157  0.3380  0.2951 -0.3820
17877TIP3    H175046   1.570   2.444   1.119 -1.9048 -0.2743  0.9480
17877TIP3    H275047   1.604   2.588   1.086 -1.7794 -1.0014 -2.4401
17878TIP3   OH275048   6.233   1.597  16.007 -0.0760  0.0587 -0.1976
17878TIP3    H175049   6.325   1.623  16.002 -0.5097  1.4901 -2.4469
17878TIP3    H275050   6.188   1.657  15.947 -2.1939 -1.8095 -0.6242
17879TIP3   OH275051   0.901   5.598  14.433 -0.0641 -0.0825 -0.5282
17879TIP3    H175052   0.817   5.560  14.406 -0.1765 -0.1682 -0.0657
17879TIP3    H275053   0.917   5.562  14.520  0.0130  0.6308 -0.2362
17880TIP3   OH275054   0.717   0.335  15.157  0.0309  0.1366  0.0973
17880TIP3    H175055   0.788   0.368  15.212 -1.0443 -0.2878  1.8254
17880TIP3    H275056   0.741   0.243  15.141  1.3647  0.7766 -1.9386
17881TIP3   OH275057   1.996   1.077   0.481  0.3019  0.5114 -0.9428
17881TIP3    H175058   1.967   1.132   0.553  1.0935  1.0348 -1.0065
17881TIP3    H275059   1.926   1.083   0.416 -0.9669 -0.9054  0.2447
17882TIP3   OH275060   4.220   6.474   3.514  1.1123 -0.0107  1.0173
17882TIP3    H175061   4.208   6.380   3.525 -0.8282 -0.0784 -0.9430
17882TIP3    H275062   4.300   6.483   3.462  1.2242 -0.5749  1.0912
17883TIP3   OH275063   2.599   3.146   3.195  0.4267  0.1534  0.5817
17883TIP3    H175064   2.542   3.086   3.146  1.2358 -2.4868  2.6158
17883TIP3    H275065   2.669   3.168   3.134  1.8407 -3.6766  0.5592
17884TIP3   OH275066   1.351   5.398  12.134 -0.1490 -0.5914 -0.4654
17884TIP3    H175067   1.349   5.466  12.201  0.7734  0.3520 -1.3554
17884TIP3    H275068   1.344   5.446  12.051  1.6411 -1.4378 -1.1701
17885TIP3   OH275069   1.200   1.349  13.218  0.2501 -0.0172 -0.1105
17885TIP3    H175070   1.170   1.438  13.237  1.4132 -0.0664  2.3497
17885TIP3    H275071   1.267   1.332  13.284 -0.1004 -2.8143 -0.3649
17886TIP3   OH275072   2.849   5.982   4.285 -0.1556 -0.1305 -0.2379
17886TIP3    H175073   2.901   6.058   4.259 -1.5902  1.2400  0.7516
17886TIP3    H275074   2.761   6.017   4.301 -0.5670 -1.7884  1.3816
17887TIP3   OH275075   5.740   2.272  14.498 -0.2588 -0.4331  0.0631
17887TIP3    H175076   5.659   2.319  14.479 -0.1348  0.0525  0.7135
17887TIP3    H275077   5.745   2.271  14.594  1.0401  0.4668  0.0280
17888TIP3   OH275078   2.901   3.180   3.812  0.2506 -0.4370  0.3235
17888TIP3    H175079   2.960   3.213   3.880  0.1667  1.1667 -0.3490
17888TIP3    H275080   2.920   3.086   3.807  2.3454 -0.0669  0.5357
17889TIP3   OH275081   5.467   1.098   1.342  0.1386 -0.2481  0.0817
17889TIP3    H175082   5.521   1.085   1.420 -1.0677 -0.3240  0.9286
17889TIP3    H275083   5.387   1.048   1.359 -0.8402  1.0669 -0.4700
17890TIP3   OH275084   2.903   1.735   5.053 -0.3554 -0.7185 -0.2439
17890TIP3    H175085   2.957   1.708   5.127  0.3075 -1.2763 -0.9173
17890TIP3    H275086   2.813   1.713   5.079 -0.2792  0.1889  0.8694
17891TIP3   OH275087   1.171   6.107  14.589 -0.1648 -0.0345  0.0694
17891TIP3    H175088   1.214   6.156  14.659 -0.8666 -1.2596  1.4081
17891TIP3    H275089   1.159   6.019  14.625 -3.2717  0.0656 -0.4290
17892TIP3   OH275090   4.160   4.672  13.213  0.3780  0.0516  0.4224
17892TIP3    H175091   4.239   4.725  13.200 -0.3007  1.7413  2.6484
17892TIP3    H275092   4.088   4.729  13.187 -0.2144 -1.0522 -0.4490
17893TIP3   OH275093   3.539   5.113   5.252  0.0105 -0.1346  0.8148
17893TIP3    H175094   3.560   5.100   5.345  0.7794  0.5813  0.7522
17893TIP3    H275095   3.611   5.072   5.205  0.7401  1.3516  0.5755
17894TIP3   OH275096   4.597   4.891  14.242  0.2747  0.0296 -0.1436
17894TIP3    H175097   4.504   4.875  14.227  0.2160  1.2027 -1.2143
17894TIP3    H275098   4.599   4.946  14.321  0.0634  0.0051 -0.1212
17895TIP3   OH275099   2.642   0.932   1.292  0.4231  0.0087 -0.1982
17895TIP3    H175100   2.596   0.852   1.267 -1.4920  0.9830 -0.0090
17895TIP3    H275101   2.659   0.977   1.209  2.4391 -1.0272 -0.3938
17896TIP3   OH275102   3.506   2.644  12.362  0.0612 -0.8009 -0.2102
17896TIP3    H175103   3.478   2.735  12.362 -1.5170 -1.2409  1.3169
17896TIP3    H275104   3.582   2.641  12.420 -1.6822 -0.9005  2.1798
17897TIP3   OH275105   5.468   2.578   4.618 -0.0443 -0.4563 -0.5125
17897TIP3    H175106   5.514   2.661   4.630 -0.2710 -0.6088  1.9595
17897TIP3    H275107   5.461   2.541   4.706 -0.4292 -2.8686 -1.4559
17898TIP3   OH275108   4.844   3.301  15.112  0.3569 -0.0065 -0.0057
17898TIP3    H175109   4.811   3.213  15.129  0.4801  0.0389  0.4786
17898TIP3    H275110   4.930   3.302  15.154  0.3853  0.3225 -0.0713
17899TIP3   OH275111   6.571   1.469  12.975 -0.0755  0.2698  0.2680
17899TIP3    H175112   6.650   1.414  12.985  0.2351  0.8413  1.1363
17899TIP3    H275113   6.528   1.462  13.060  0.0248  1.4561  0.4214
17900TIP3   OH275114   5.230   2.095   2.425  0.0211 -0.0190 -0.0549
17900TIP3    H175115   5.136   2.097   2.443 -0.1933 -1.9031 -0.7259
17900TIP3    H275116   5.242   2.158   2.354 -1.0167 -0.8446 -0.9973
17901TIP3   OH275117   6.607   2.602  16.128 -0.2471  0.2821  0.6281
17901TIP3    H175118   6.612   2.694  16.102  0.3980 -0.2254 -1.2237
17901TIP3    H275119   6.635   2.554  16.050  0.8353 -1.4443  2.0116
17902TIP3   OH275120   1.364   4.929  14.757 -0.0655  0.5142  0.0469
17902TIP3    H175121   1.294   4.904  14.816 -0.4538 -2.2362 -1.3955
17902TIP3    H275122   1.321   4.976  14.686 -0.2298  0.1041 -0.1243
17903TIP3   OH275123   1.932   3.414   1.306  0.1874  0.1149  0.5035
17903TIP3    H175124   2.020   3.432   1.273 -0.0177  0.8359  0.3273
17903TIP3    H275125   1.876   3.474   1.258 -0.1813  0.8901  1.8505
17904TIP3   OH275126   5.678   4.796   5.483  0.2718 -0.6863  0.5753
17904TIP3    H175127   5.658   4.852   5.558  1.1482 -0.6630  0.8105
17904TIP3    H275128   5.593   4.772   5.447 -0.2194  3.1690 -1.3500
17905TIP3   OH275129   2.578   4.423  11.340 -0.1090  0.3226  0.6212
17905TIP3    H175130   2.604   4.350  11.284 -0.0294  0.6286  0.2618
17905TIP3    H275131   2.483   4.416  11.346  0.0566 -1.3019  2.6173
17906TIP3   OH275132   2.752   3.740  13.034  0.5231 -0.3333 -0.2758
17906TIP3    H175133   2.820   3.686  12.993 -0.4886 -2.0388  0.1887
17906TIP3    H275134   2.681   3.679  13.054 -0.1979  0.9518  1.4085
17907TIP3   OH275135   0.132   2.834   3.834 -0.2703 -0.2812  0.1929
17907TIP3    H175136   0.079   2.871   3.905 -0.5947 -0.5681  0.1045
17907TIP3    H275137   0.068   2.814   3.765  0.2570  1.8420 -0.9900
17908TIP3   OH275138   4.232   3.134  14.019  0.8282 -0.2646  0.4746
17908TIP3    H175139   4.276   3.072  14.078 -0.0520  0.6164  2.1315
17908TIP3    H275140   4.303   3.169  13.966  2.0712  0.4663  2.4757
17909TIP3   OH275141   2.801   1.642  13.504 -0.4593  0.7105  0.2212
17909TIP3    H175142   2.793   1.560  13.553  0.4133  0.3195 -0.2613
17909TIP3    H275143   2.737   1.701  13.544  0.2495  0.4166  1.8385
17910TIP3   OH275144   4.257   5.868  16.947 -0.0728 -0.9178 -0.4017
17910TIP3    H175145   4.338   5.871  16.998 -0.2211  0.8110 -0.2095
17910TIP3    H275146   4.278   5.916  16.867 -0.8535 -0.5935 -0.4207
17911TIP3   OH275147   5.490   4.009  13.223  0.1639 -0.0665  0.1247
17911TIP3    H175148   5.448   3.928  13.253 -1.2643  0.2846 -0.8058
17911TIP3    H275149   5.417   4.065  13.195  1.0854  1.6568  0.9704
17912TIP3   OH275150   1.448   5.608   3.087  0.2125  0.1886  0.1316
17912TIP3    H175151   1.539   5.633   3.072  0.6181  0.2435  2.2593
17912TIP3    H275152   1.406   5.688   3.119  0.1205 -0.4106  1.6410
17913TIP3   OH275153   5.888   2.873  15.378 -0.2555 -0.7425 -0.1630
17913TIP3    H175154   5.911   2.961  15.347  2.3721 -1.4738 -0.4802
17913TIP3    H275155   5.827   2.889  15.451  0.0789  1.3259 -0.2663
17914TIP3   OH275156   6.091   6.179  15.424 -0.4062  0.2183  0.2051
17914TIP3    H175157   6.123   6.168  15.335 -0.9498 -1.3639  0.1783
17914TIP3    H275158   6.169   6.196  15.476  0.1403 -0.6951 -0.3017
17915TIP3   OH275159   6.522   2.561   1.770 -0.2649 -0.0375 -0.2581
17915TIP3    H175160   6.465   2.485   1.760  0.4072 -0.3711 -1.8217
17915TIP3    H275161   6.607   2.531   1.738  1.2119  0.0446  3.1810
17916TIP3   OH275162   4.740   4.984  13.161 -0.0089  0.2241  0.8287
17916TIP3    H175163   4.716   4.992  13.253  3.3145  2.6721  1.6903
17916TIP3    H275164   4.767   4.893  13.150 -3.2393 -0.9022  1.3571
17917TIP3   OH275165   2.620   4.832   0.154  0.5131  0.0223  0.3020
17917TIP3    H175166   2.642   4.923   0.135 -0.2140  0.3663  1.0323
17917TIP3    H275167   2.526   4.827   0.138 -0.1729  0.3414  3.5459
17918TIP3   OH275168   3.865   0.683   1.984 -0.5166  0.1626 -0.0093
17918TIP3    H175169   3.785   0.698   2.034 -0.6391 -1.0519  0.1872
17918TIP3    H275170   3.889   0.769   1.951 -2.2542  0.4539 -0.5946
17919TIP3   OH275171   6.584   5.465   5.924 -0.0280 -0.2063  0.1327
17919TIP3    H175172   6.514   5.529   5.936  1.6422  1.6035  0.5821
17919TIP3    H275173   6.543   5.381   5.948 -2.0476  0.7635  0.2718
17920TIP3   OH275174   3.579   0.341  17.046  0.6092  0.4708  0.5210
17920TIP3    H175175   3.535   0.267  17.003 -0.2292  1.7758 -0.9554
17920TIP3    H275176   3.665   0.345  17.004  0.4097  0.7323  0.1355
17921TIP3   OH275177   1.806   3.028  13.737 -0.3635 -0.0551  0.5057
17921TIP3    H175178   1.834   2.941  13.763 -2.8676 -0.5672  1.7519
17921TIP3    H275179   1.843   3.086  13.803 -1.2291 -0.5829  1.4841
17922TIP3   OH275180   4.028   6.382   5.632 -0.1739  0.0517 -0.1780
17922TIP3    H175181   3.955   6.352   5.686  0.7147 -2.0182 -0.0022
17922TIP3    H275182   4.106   6.351   5.678  0.6723 -0.4967 -1.8894
17923TIP3   OH275183   0.749   0.760   6.500  0.2984  0.1087 -0.1175
17923TIP3    H175184   0.834   0.800   6.518  1.2600 -1.9873  0.2643
17923TIP3    H275185   0.763   0.707   6.422 -0.5527 -0.5447  0.1589
17924TIP3   OH275186   1.884   0.949  12.235 -0.0355  0.0122  0.6237
17924TIP3    H175187   1.870   1.016  12.168 -0.7935  1.1067  1.8405
17924TIP3    H275188   1.821   0.880  12.213  0.2562 -0.0044 -0.2202
17925TIP3   OH275189   3.518   3.468   6.010 -0.3396 -0.1721  0.3239
17925TIP3    H175190   3.537   3.454   6.103 -0.6756  0.4083  0.4886
17925TIP3    H275191   3.597   3.510   5.975 -0.5254  0.3767  0.5442
17926TIP3   OH275192   6.063   1.984  12.345 -0.2061  1.2643 -0.5208
17926TIP3    H175193   5.988   2.024  12.387  1.0077  2.3227  0.7295
17926TIP3    H275194   6.135   1.995  12.407  0.7776 -0.6013 -1.2400
17927TIP3   OH275195   6.663   6.437   5.363 -0.2618  0.2134 -0.1979
17927TIP3    H175196   6.632   6.436   5.272 -1.1112 -1.6380  0.0641
17927TIP3    H275197   6.617   6.511   5.403 -1.0247  0.1482 -0.9233
17928TIP3   OH275198   2.511   0.061   2.229 -0.3097  0.0878  0.1811
17928TIP3    H175199   2.505  -0.011   2.292  1.4594 -0.2966 -0.0396
17928TIP3    H275200   2.421   0.091   2.219 -0.9246 -1.2799  1.2180
17929TIP3   OH275201   1.470   5.365   6.124  0.4519 -0.6923 -0.2480
17929TIP3    H175202   1.458   5.339   6.215  2.0576 -1.2330 -0.1560
17929TIP3    H275203   1.431   5.293   6.073  1.4232 -1.4377  0.0270
17930TIP3   OH275204   2.356   5.586  13.905 -0.3694 -0.2094 -0.9161
17930TIP3    H175205   2.271   5.585  13.860 -1.2069  1.1066  0.5195
17930TIP3    H275206   2.334   5.585  13.998  1.2115 -0.1109 -0.5139
17931TIP3   OH275207   4.820   2.930   5.335 -0.0686  0.0631  0.3083
17931TIP3    H175208   4.764   2.856   5.360 -0.1148  0.2262  0.6869
17931TIP3    H275209   4.766   2.983   5.276 -0.4460  0.4197  0.9673
17932TIP3   OH275210   0.489   5.936   2.013 -0.1457  0.3226  0.3351
17932TIP3    H175211   0.428   5.956   2.085 -0.0875 -1.3826  0.8936
17932TIP3    H275212   0.444   5.870   1.960  0.5049  0.3300 -0.2424
17933TIP3   OH275213   1.077   2.797   4.084  0.4596 -0.2019  0.9754
17933TIP3    H175214   1.126   2.783   4.165  1.6252  1.2896  0.5925
17933TIP3    H275215   0.987   2.777   4.106  1.0138 -1.6124  2.1294
17934TIP3   OH275216   0.607   2.866   0.504  0.1231  0.1262  0.3411
17934TIP3    H175217   0.682   2.911   0.543  0.1713 -0.2031  0.6387
17934TIP3    H275218   0.531   2.919   0.527  0.0781 -0.3706  1.4038
17935TIP3   OH275219   2.410   4.827   0.396  0.2639 -0.1845  0.5021
17935TIP3    H175220   2.400   4.892   0.465  0.0740 -0.0999  0.3989
17935TIP3    H275221   2.375   4.871   0.318 -0.6534 -0.7009  0.6024
17936TIP3   OH275222   2.742   2.335   1.626  0.1686 -0.5535  0.0895
17936TIP3    H175223   2.774   2.345   1.716  0.7059  0.6324 -0.2236
17936TIP3    H275224   2.817   2.302   1.577  0.2589  0.0595 -0.1886
17937TIP3   OH275225   0.176   4.167   3.398  0.1201  0.0695  0.3090
17937TIP3    H175226   0.246   4.157   3.462  1.9026 -1.0741 -1.7013
17937TIP3    H275227   0.197   4.248   3.352  0.0311 -0.1949 -0.1986
17938TIP3   OH275228   4.180   4.823  16.963 -0.4955  0.5910  0.0461
17938TIP3    H175229   4.222   4.751  17.009 -0.3441  0.5168 -0.2047
17938TIP3    H275230   4.087   4.801  16.962 -0.4532  0.4153 -0.0021
17939TIP3   OH275231   3.186   1.951   2.584  0.2807 -0.5193  0.2695
17939TIP3    H175232   3.206   1.857   2.584  2.0052 -0.2048 -1.0949
17939TIP3    H275233   3.266   1.992   2.618 -0.3640  0.4858  0.6086
17940TIP3   OH275234   3.816   2.364  12.948  0.1636 -0.1187  0.1256
17940TIP3    H175235   3.749   2.304  12.915  1.1839 -1.3387  0.2000
17940TIP3    H275236   3.781   2.397  13.031 -0.7249 -0.0332 -0.2728
17941TIP3   OH275237   3.307   2.241  14.540 -0.0885  0.1632  0.3017
17941TIP3    H175238   3.216   2.213  14.542 -0.0730  0.1506  1.3448
17941TIP3    H275239   3.303   2.336  14.531 -0.1696  0.0397 -1.1740
17942TIP3   OH275240   6.254   2.469  11.686 -0.0455  0.4904  0.4669
17942TIP3    H175241   6.246   2.456  11.591 -1.5705 -1.7297  0.8220
17942TIP3    H275242   6.164   2.480  11.716  0.3849  0.7206  1.7201
17943TIP3   OH275243   2.542   4.319   5.585 -0.4250 -0.4504  0.2955
17943TIP3    H175244   2.576   4.400   5.623  0.6036 -0.8712  0.3063
17943TIP3    H275245   2.606   4.296   5.518 -1.0950 -0.8707 -0.2065
17944TIP3   OH275246   0.078   1.117  11.880 -0.7072 -0.5217  0.2823
17944TIP3    H175247   0.077   1.037  11.827  4.9034 -0.8614  0.0749
17944TIP3    H275248   0.055   1.186  11.818 -0.1850 -1.4810 -1.0468
17945TIP3   OH275249   2.610   4.962   3.727 -0.0069  0.2768 -0.3794
17945TIP3    H175250   2.628   5.040   3.673  1.7068  0.9539  1.0577
17945TIP3    H275251   2.696   4.928   3.749 -0.7237 -2.2560 -1.1925
17946TIP3   OH275252   4.354   5.853  14.401 -0.2845  0.2688  0.0341
17946TIP3    H175253   4.303   5.884  14.476  0.1319  0.7154  0.1374
17946TIP3    H275254   4.404   5.929  14.372  0.8255 -0.3050  0.3416
17947TIP3   OH275255   5.354   5.721   0.468  0.4657  0.7434  0.2920
17947TIP3    H175256   5.360   5.712   0.373  0.9154  0.3744  0.3515
17947TIP3    H275257   5.336   5.632   0.500 -1.1363  1.0925  0.4571
17948TIP3   OH275258   4.024   0.127  14.775  0.3694 -0.1139  0.1802
17948TIP3    H175259   4.018   0.137  14.870  1.1991  1.3972  0.0961
17948TIP3    H275260   4.056   0.038  14.763  0.4340 -0.2611  1.3178
17949TIP3   OH275261   0.394   0.448  14.848  0.1341  0.2425  0.5036
17949TIP3    H175262   0.379   0.379  14.911 -0.0661  0.3833  0.6128
17949TIP3    H275263   0.462   0.414  14.790  1.0734  0.5267  1.4209
17950TIP3   OH275264   0.465   0.106   1.279 -0.2302  0.6470 -0.3857
17950TIP3    H175265   0.436   0.138   1.194 -2.4367  0.0762  0.0826
17950TIP3    H275266   0.492   0.185   1.326  0.8960  0.9746 -1.5382
17951TIP3   OH275267   0.160   0.736   4.743 -0.4035 -0.2671  0.1927
17951TIP3    H175268   0.164   0.646   4.776 -2.0713 -0.4025  0.1129
17951TIP3    H275269   0.068   0.760   4.750 -0.0194  1.3761  0.0181
17952TIP3   OH275270   1.008   6.518   1.304  0.4069 -0.5524 -0.2992
17952TIP3    H175271   0.985   6.539   1.214 -1.0956  2.2621  0.6302
17952TIP3    H275272   1.099   6.546   1.313  0.7367 -1.3457 -1.0463
17953TIP3   OH275273   6.112   0.415   1.659 -0.0768  0.7271  0.1522
17953TIP3    H175274   6.036   0.470   1.640 -1.1442 -0.1579  1.6067
17953TIP3    H275275   6.084   0.327   1.635 -0.2695  0.1028  2.4437
17954TIP3   OH275276   0.232   5.726   4.519 -0.5456 -0.7616 -0.1516
17954TIP3    H175277   0.145   5.743   4.555 -0.7009 -1.3021 -0.2557
17954TIP3    H275278   0.221   5.732   4.424 -0.5902 -1.3326 -0.1893
17955TIP3   OH275279   3.457   4.401  16.498 -0.2087  1.0408  0.2315
17955TIP3    H175280   3.399   4.354  16.558  1.2591 -0.7671  0.3365
17955TIP3    H275281   3.398   4.451  16.442 -1.8022  0.1825  1.0577
17956TIP3   OH275282   1.252   1.001  16.657 -0.9414 -0.4026 -0.2143
17956TIP3    H175283   1.208   0.967  16.734 -0.6126 -0.1246  0.1031
17956TIP3    H275284   1.335   0.953  16.654 -1.1140 -0.6806 -0.6105
17957TIP3   OH275285   3.649   4.030  17.143 -0.0555  0.3806  0.2810
17957TIP3    H175286   3.638   4.121  17.171  2.7263  0.8765  0.0198
17957TIP3    H275287   3.718   3.995  17.199 -1.7523 -1.9691  1.0719
17958TIP3   OH275288   2.699   2.801  12.068  0.0389  0.3880  0.3203
17958TIP3    H175289   2.614   2.758  12.060  0.4827 -0.7891  1.5293
17958TIP3    H275290   2.694   2.849  12.150  0.2129  1.1218 -0.0917
17959TIP3   OH275291   4.623   2.073  16.034 -0.0585  0.7741 -0.3133
17959TIP3    H175292   4.708   2.108  16.008 -1.2869  2.9292 -1.7625
17959TIP3    H275293   4.560   2.123  15.982 -2.1988 -1.1418  0.2804
17960TIP3   OH275294   4.294   5.964  13.394 -0.0687 -0.1111  0.1913
17960TIP3    H175295   4.267   6.036  13.337  1.6301  0.1894 -0.2726
17960TIP3    H275296   4.301   5.888  13.336  1.2609  0.0996  0.0647
17961TIP3   OH275297   6.541   0.022  16.221 -0.0630  0.0827  0.1672
17961TIP3    H175298   6.570   0.038  16.310  2.8315  0.8330 -0.8122
17961TIP3    H275299   6.553  -0.072  16.208 -3.2901 -0.6296  1.3686
17962TIP3   OH275300   0.477   4.112   4.328 -0.7699 -0.1825 -0.6259
17962TIP3    H175301   0.419   4.180   4.364  0.2662  0.3085  0.1621
17962TIP3    H275302   0.432   4.082   4.249 -2.2776 -0.0770  0.1532
17963TIP3   OH275303   6.032   2.111  16.978 -0.4102  0.0631 -0.3200
17963TIP3    H175304   5.993   2.024  16.970  2.7594 -1.5377 -0.2357
17963TIP3    H275305   6.060   2.116  17.069  0.3592  0.7167 -0.5799
17964TIP3   OH275306   6.701   4.367   3.671 -0.2945 -0.4388 -0.7871
17964TIP3    H175307   6.746   4.315   3.738 -1.2503  0.3676  0.5146
17964TIP3    H275308   6.691   4.306   3.597  1.5269 -1.0993 -0.5572
17965TIP3   OH275309   6.379   4.341  12.914  1.1244 -0.7972  0.7551
17965TIP3    H175310   6.296   4.323  12.959  0.4463 -1.5342 -0.7242
17965TIP3    H275311   6.404   4.428  12.944 -0.2730 -0.4918  1.1073
17966TIP3   OH275312   5.171   0.721  11.928 -0.0983  0.3608  0.2778
17966TIP3    H175313   5.205   0.753  11.845 -0.0734 -0.7175 -0.1397
17966TIP3    H275314   5.104   0.785  11.953 -1.2213 -0.1081 -1.3739
17967TIP3   OH275315   3.411   2.889   1.046  0.0260 -0.0824 -0.1673
17967TIP3    H175316   3.484   2.942   1.078  0.7947 -1.3799  0.3043
17967TIP3    H275317   3.437   2.799   1.063 -1.6214 -0.5924 -0.1457
17968TIP3   OH275318   4.421   5.601   2.516 -0.1562 -0.1635 -0.3965
17968TIP3    H175319   4.416   5.613   2.422  0.8269 -1.5800 -0.6546
17968TIP3    H275320   4.402   5.688   2.552 -1.7122  0.1419 -1.8354
17969TIP3   OH275321   1.217   5.026   0.001  0.2604  0.0992  0.3982
17969TIP3    H175322   1.281   5.018   0.071  0.3076 -0.4476  0.2964
17969TIP3    H275323   1.261   5.076  -0.067 -0.0458  1.3167  1.0591
17970TIP3   OH275324   4.139   5.711   3.761 -0.0497 -0.0616  0.3468
17970TIP3    H175325   4.100   5.787   3.718 -1.3237 -1.9549 -2.1269
17970TIP3    H275326   4.080   5.639   3.739  0.3574 -1.5969  3.7019
17971TIP3   OH275327   1.075   2.661   3.468  0.4783 -0.4191  0.0442
17971TIP3    H175328   1.057   2.616   3.551 -0.3060  1.3688  0.8892
17971TIP3    H275329   1.009   2.627   3.408 -1.1084  0.6708  1.1023
17972TIP3   OH275330   2.737   2.844   3.035  0.5063 -0.6555  0.0695
17972TIP3    H175331   2.783   2.832   3.118  1.0487  2.4113  0.3282
17972TIP3    H275332   2.651   2.877   3.061  1.1329  1.5880 -0.5345
17973TIP3   OH275333   5.523   0.179  11.725  0.0193  0.0218  0.1123
17973TIP3    H175334   5.461   0.213  11.790 -1.1719 -1.8764  0.0453
17973TIP3    H275335   5.514   0.238  11.650 -1.4617 -0.0077  0.2450
17974TIP3   OH275336   5.150   3.846   2.701 -0.6145  0.2727  0.2674
17974TIP3    H175337   5.079   3.789   2.672 -0.3777  0.4213 -0.6191
17974TIP3    H275338   5.125   3.872   2.790 -0.3617 -1.7997  0.9918
17975TIP3   OH275339   4.429   2.800   0.391  0.0640  0.1981  0.2949
17975TIP3    H175340   4.369   2.831   0.458  0.4056  0.2956  0.5558
17975TIP3    H275341   4.414   2.706   0.387 -0.6775  0.3233 -0.2075
17976TIP3   OH275342   1.211   2.712   0.717 -0.4608  0.1658 -0.1890
17976TIP3    H175343   1.231   2.649   0.787 -0.5380  0.2154 -0.1217
17976TIP3    H275344   1.235   2.797   0.754 -1.3169  0.2921  0.1073
17977TIP3   OH275345   6.122   6.008   2.426 -0.5598 -0.8294  0.3942
17977TIP3    H175346   6.090   6.097   2.410 -0.1219 -0.5887  0.8315
17977TIP3    H275347   6.055   5.952   2.388 -1.3554 -0.3268  1.0064
17978TIP3   OH275348   3.416   5.394   0.297  0.1603 -0.1406 -0.5386
17978TIP3    H175349   3.411   5.357   0.385  0.6683  2.3224  0.6139
17978TIP3    H275350   3.507   5.423   0.287 -0.0871  0.3567 -1.5422
17979TIP3   OH275351   1.319   0.782  12.898 -0.5352  0.4331 -0.2155
17979TIP3    H175352   1.357   0.867  12.878 -2.1030  1.5682  1.3493
17979TIP3    H275353   1.228   0.789  12.871 -0.8470 -0.5057  0.5074
17980TIP3   OH275354   3.594   6.453   2.319  0.3529 -0.3384 -0.3800
17980TIP3    H175355   3.661   6.505   2.365  0.9953 -0.6919 -0.8976
17980TIP3    H275356   3.512   6.475   2.364  0.8299  0.0116  0.3486
17981TIP3   OH275357   2.076   5.637  11.718 -0.8765 -0.1865  0.1033
17981TIP3    H175358   2.078   5.730  11.742 -2.1265 -0.6164  2.0933
17981TIP3    H275359   2.153   5.625  11.662 -0.5442  1.9740  0.0147
17982TIP3   OH275360   6.519   3.759   2.554 -0.2051  0.3266 -0.2074
17982TIP3    H175361   6.547   3.668   2.553  1.4322  0.7849  1.1129
17982TIP3    H275362   6.523   3.786   2.462 -1.3365 -1.0780 -0.7060
17983TIP3   OH275363   3.670   0.435  15.188  0.2536 -0.3302  0.2259
17983TIP3    H175364   3.580   0.415  15.163 -0.1869  1.5537  0.1871
17983TIP3    H275365   3.668   0.526  15.215  2.1746 -0.2396  0.2020
17984TIP3   OH275366   2.006   1.971   2.528 -0.1429 -1.0310 -0.3827
17984TIP3    H175367   2.012   2.029   2.604  2.2036  0.8745 -1.8284
17984TIP3    H275368   1.913   1.965   2.508 -0.5967  0.6521  1.0343
17985TIP3   OH275369   4.652   1.052  15.769  0.2047 -0.3353 -0.0017
17985TIP3    H175370   4.689   1.140  15.775  0.8354 -0.6539  0.8579
17985TIP3    H275371   4.603   1.040  15.851  0.4077 -0.9138  0.0389
17986TIP3   OH275372   2.545   1.034   4.086  0.0530  0.0307 -0.0649
17986TIP3    H175373   2.579   1.047   3.998  1.1294  0.6347  0.4190
17986TIP3    H275374   2.462   0.988   4.073  0.3089 -0.1049 -1.3685
17987TIP3   OH275375   0.925   6.562   3.174  0.0332 -0.2462 -0.1119
17987TIP3    H175376   1.016   6.533   3.164 -0.0976 -0.6948 -0.0030
17987TIP3    H275377   0.922   6.600   3.262  0.2095  0.1159 -0.2621
17988TIP3   OH275378   0.561   6.221   6.730 -0.6797 -0.2402 -0.2088
17988TIP3    H175379   0.473   6.238   6.762 -0.1029  1.2365  0.7186
17988TIP3    H275380   0.586   6.302   6.685  0.2915 -0.5378 -0.2308
17989TIP3   OH275381   5.021   1.728   6.044 -0.1141  0.8828 -0.3109
17989TIP3    H175382   5.048   1.755   6.132 -1.0003 -0.9801  0.6141
17989TIP3    H275383   5.097   1.744   5.989  1.1357  0.3966  1.1935
17990TIP3   OH275384   4.335   6.070  16.723  0.3408  0.4191 -0.0242
17990TIP3    H175385   4.426   6.072  16.694  0.1294 -0.1202 -0.7445
17990TIP3    H275386   4.304   6.160  16.709 -0.2292 -0.1566 -3.1067
17991TIP3   OH275387   4.208   1.832   5.160  0.0715  0.2586  0.1905
17991TIP3    H175388   4.112   1.833   5.151 -0.0018 -1.6604  0.2843
17991TIP3    H275389   4.240   1.884   5.087 -1.0370  0.7384  0.0248
17992TIP3   OH275390   4.265   5.462   5.837 -0.4177 -0.7774 -0.3079
17992TIP3    H175391   4.247   5.368   5.836 -1.5824 -0.5970  1.1107
17992TIP3    H275392   4.273   5.484   5.930 -2.2957  0.8868 -0.4793
17993TIP3   OH275393   2.702   2.687  14.231 -0.0424 -0.3033 -0.7736
17993TIP3    H175394   2.737   2.767  14.192  2.3520 -0.6907  0.4081
17993TIP3    H275395   2.758   2.670  14.307 -2.0064 -1.7936  0.4485
17994TIP3   OH275396   1.315   6.001   3.747  0.3781 -0.2782 -0.0166
17994TIP3    H175397   1.302   6.096   3.746 -0.1067 -0.2602 -3.1123
17994TIP3    H275398   1.227   5.966   3.762 -0.1849 -0.1601 -2.6234
17995TIP3   OH275399   5.324   2.837   0.641  0.3502  0.5801 -0.1041
17995TIP3    H175400   5.243   2.880   0.669 -0.0393 -0.0178 -0.2841
17995TIP3    H275401   5.392   2.876   0.696  0.3075  2.7074 -1.4588
17996TIP3   OH275402   0.646   4.140   5.144 -0.2516 -0.5396  0.2749
17996TIP3    H175403   0.575   4.194   5.111 -1.2314 -1.2778  1.1072
17996TIP3    H275404   0.714   4.202   5.171  0.0909  0.1300 -1.9220
17997TIP3   OH275405   1.223   6.101  15.323  0.4366 -0.6187 -0.1542
17997TIP3    H175406   1.232   6.104  15.418 -1.5357  0.0735  0.0588
17997TIP3    H275407   1.280   6.171  15.291 -0.9885  1.0496  0.7643
17998TIP3   OH275408   0.354   5.727  16.050  0.4098  0.1287  0.5741
17998TIP3    H175409   0.350   5.821  16.032  0.1604  0.6219  2.9369
17998TIP3    H275410   0.384   5.720  16.141  1.0515 -2.1155  0.2675
17999TIP3   OH275411   5.469   5.732   6.080  0.2202 -0.5610 -0.0512
17999TIP3    H175412   5.502   5.714   6.168 -0.7205 -0.1947  0.3886
17999TIP3    H275413   5.433   5.821   6.086  0.1304 -0.5412 -0.8009
18000TIP3   OH275414   1.147   5.047   6.163 -0.4774  0.9484 -0.4375
18000TIP3    H175415   1.221   5.086   6.117 -0.9418  2.7352  0.2375
18000TIP3    H275416   1.071   5.070   6.110 -0.6899  0.2290 -0.4577
18001TIP3   OH275417   5.931   6.015  14.681  0.5317 -0.1570 -0.1474
18001TIP3    H175418   5.840   6.008  14.652  0.1306 -0.4534  1.1143
18001TIP3    H275419   5.947   6.109  14.685  0.5832 -0.1044 -1.2290
18002TIP3   OH275420   0.940   1.029   5.088  0.3099  0.1063  0.2547
18002TIP3    H175421   0.936   1.048   5.181  0.9747 -1.1594  0.5500
18002TIP3    H275422   0.875   1.088   5.049 -0.4100  0.2039  1.5705
18003TIP3   OH275423   0.754   4.156  14.520 -0.0488 -0.0473  0.4937
18003TIP3    H175424   0.773   4.249  14.505  1.4635 -0.5103 -0.7185
18003TIP3    H275425   0.823   4.128  14.580  1.0562 -0.9421 -1.1328
18004TIP3   OH275426   6.706   0.791  15.268 -0.0759  0.2096  0.0034
18004TIP3    H175427   6.666   0.758  15.188 -1.6530  0.8384  0.4929
18004TIP3    H275428   6.716   0.885  15.253  1.4962  0.0441 -0.1936
18005TIP3   OH275429   6.432   3.718   2.134 -0.3065  0.4535 -0.9195
18005TIP3    H175430   6.349   3.676   2.158 -0.8369  1.4965 -0.8641
18005TIP3    H275431   6.456   3.769   2.211  0.5579 -0.0628 -0.8265
18006TIP3   OH275432   3.222   4.035   0.076  0.1523  0.1135  0.3346
18006TIP3    H175433   3.168   3.970   0.030 -1.3834  0.5859  1.3765
18006TIP3    H275434   3.270   4.079   0.007 -0.1918 -0.8702 -0.5693
18007TIP3   OH275435   4.471   4.073  16.189 -0.0709 -0.3909  0.0930
18007TIP3    H175436   4.419   3.992  16.187 -1.4067  0.4488 -0.6787
18007TIP3    H275437   4.524   4.068  16.109  0.5235 -0.9085  0.5084
18008TIP3   OH275438   3.094   2.336  10.877  0.1490  0.4654 -0.1554
18008TIP3    H175439   3.040   2.411  10.901 -1.2677 -0.3387 -0.6861
18008TIP3    H275440   3.182   2.372  10.866 -0.4298  1.9796 -0.0779
18009TIP3   OH275441   2.743   1.263   2.011 -0.2215 -0.8820  0.0751
18009TIP3    H175442   2.659   1.236   2.048 -2.0660  2.2919 -1.3444
18009TIP3    H275443   2.767   1.341   2.063  1.9465 -1.7535  0.4841
18010TIP3   OH275444   1.005   5.020   0.176 -0.4253 -0.1493 -0.0070
18010TIP3    H175445   1.067   5.019   0.103 -0.3053 -1.4052  0.0844
18010TIP3    H275446   0.976   5.111   0.183  0.4529  0.2036 -0.8607
18011TIP3   OH275447   5.086   4.906  11.422 -0.0671  0.1905 -0.0745
18011TIP3    H175448   5.131   4.989  11.409 -1.0580  0.4526 -2.0765
18011TIP3    H275449   5.153   4.840  11.404  0.3930  0.5430  0.3030
18012TIP3   OH275450   0.649   1.888   0.433 -0.0555 -0.0934  0.1238
18012TIP3    H175451   0.707   1.829   0.386  0.8751  1.5619 -0.8715
18012TIP3    H275452   0.579   1.908   0.370 -1.3726 -1.4882  1.0638
18013TIP3   OH275453   3.687   5.060   2.022 -0.3284  0.1902 -0.0138
18013TIP3    H175454   3.674   4.974   1.982 -0.9540  1.0740 -1.8023
18013TIP3    H275455   3.618   5.065   2.088 -0.5713 -0.5020 -0.2020
18014TIP3   OH275456   6.453   1.963   5.393 -0.4015  0.2043 -0.3441
18014TIP3    H175457   6.493   1.923   5.470  0.5757  1.1338 -0.3601
18014TIP3    H275458   6.382   1.902   5.369  2.1808 -2.6254 -1.5435
18015TIP3   OH275459   0.603   6.068   5.639 -0.4426 -0.1945  0.4030
18015TIP3    H175460   0.522   6.100   5.679 -0.5677 -0.6253  0.4968
18015TIP3    H275461   0.666   6.067   5.711 -0.5067 -0.4071  0.4538
18016TIP3   OH275462   2.243   0.244  15.737  0.4938  0.4483  0.6281
18016TIP3    H175463   2.251   0.203  15.651 -0.2153 -1.1790  1.2818
18016TIP3    H275464   2.285   0.329  15.728  1.9254 -0.3716 -0.8602
18017TIP3   OH275465   3.581   4.789  15.829 -0.4693 -0.4224  0.3894
18017TIP3    H175466   3.572   4.694  15.838  1.1043 -0.7357 -1.0441
18017TIP3    H275467   3.609   4.803  15.739 -1.7046  1.5061  0.2416
18018TIP3   OH275468   4.842   0.279   1.963  0.5244  0.2790  0.2037
18018TIP3    H175469   4.906   0.283   2.035 -1.5937 -0.7933  2.2812
18018TIP3    H275470   4.891   0.241   1.890  2.7806  1.4498  1.0198
18019TIP3   OH275471   4.413   2.380   5.705 -0.3442  0.1817 -0.3679
18019TIP3    H175472   4.460   2.313   5.656 -0.6040 -0.8331  0.7260
18019TIP3    H275473   4.322   2.352   5.704 -0.2867 -0.1512  1.1046
18020TIP3   OH275474   4.411   3.794   2.385 -0.3499  0.2521 -0.1583
18020TIP3    H175475   4.417   3.823   2.476  0.6509  1.5750 -0.6173
18020TIP3    H275476   4.330   3.833   2.352  0.0865  1.0984 -0.2611
18021TIP3   OH275477   2.352   0.155   0.652  0.1729 -0.0137  0.1431
18021TIP3    H175478   2.352   0.203   0.735 -1.4794 -0.3710  0.3751
18021TIP3    H275479   2.443   0.160   0.622  0.8988 -0.1664  2.1372
18022TIP3   OH275480   4.922   4.166  14.847  0.3685  0.1554 -0.1068
18022TIP3    H175481   4.909   4.176  14.753 -0.0500  0.4134 -0.0230
18022TIP3    H275482   4.846   4.116  14.877  1.2891 -1.3335 -0.1470
18023TIP3   OH275483   5.854   3.675   2.159  0.2882 -0.7533  0.9550
18023TIP3    H175484   5.943   3.668   2.195  1.4281 -0.3059 -1.6070
18023TIP3    H275485   5.858   3.630   2.075 -0.7613  2.6099 -1.0962
18024TIP3   OH275486   2.694   3.375   0.616 -0.3170  0.8332  0.4638
18024TIP3    H175487   2.649   3.309   0.669 -2.3092 -0.7243 -2.8305
18024TIP3    H275488   2.787   3.362   0.635 -0.7570 -1.7933  1.2700
18025TIP3   OH275489   2.736   5.367  11.514 -0.1968 -0.2173  0.7146
18025TIP3    H175490   2.657   5.421  11.508  0.3108  0.7833  2.3129
18025TIP3    H275491   2.742   5.324  11.429 -2.5465 -0.4722  0.6052
18026TIP3   OH275492   4.981   1.432   4.588 -0.7128 -0.0448  0.7273
18026TIP3    H175493   5.058   1.412   4.641 -0.2441  1.9925  0.8946
18026TIP3    H275494   4.958   1.522   4.612 -0.8747  0.7306 -2.0479
18027TIP3   OH275495   4.669   3.442  12.828  1.1149 -0.3671 -0.0128
18027TIP3    H175496   4.744   3.391  12.797  0.1797 -0.4534 -2.3471
18027TIP3    H275497   4.705   3.499  12.895  3.2840 -0.3963 -1.0676
18028TIP3   OH275498   6.343   3.675   0.419 -0.2118  0.8108  0.1464
18028TIP3    H175499   6.409   3.619   0.462 -0.8195  0.9532  1.3150
18028TIP3    H275500   6.331   3.637   0.332 -0.4860 -0.7861  0.8569
18029TIP3   OH275501   6.077   0.041   5.449  0.5097 -0.2911  0.3369
18029TIP3    H175502   6.106   0.064   5.538  0.9358  0.2732  0.0565
18029TIP3    H275503   6.000  -0.015   5.463 -0.5748  1.3067  1.0519
18030TIP3   OH275504   5.753   2.440  11.879 -0.0456  0.4066 -0.5838
18030TIP3    H175505   5.659   2.456  11.869 -0.1221  0.4269  0.1571
18030TIP3    H275506   5.758   2.355  11.921  0.2820  0.2197 -1.0011
18031TIP3   OH275507   1.473   0.464  14.121  0.0501  0.8484  0.0836
18031TIP3    H175508   1.558   0.492  14.153  0.0710  0.4374  0.3975
18031TIP3    H275509   1.444   0.399  14.184  0.6250 -0.8806 -1.3492
18032TIP3   OH275510   3.064   3.384  16.113  0.1539 -0.1149 -0.4188
18032TIP3    H175511   2.971   3.363  16.127  0.2038 -1.1922 -1.5381
18032TIP3    H275512   3.069   3.407  16.020  0.6125  2.2827  0.1362
18033TIP3   OH275513   4.863   2.187   3.295 -0.2915 -0.0349  0.0685
18033TIP3    H175514   4.874   2.282   3.288 -0.2802 -0.0772 -0.4981
18033TIP3    H275515   4.844   2.158   3.206 -0.0904 -0.5919  0.2018
18034TIP3   OH275516   3.268   3.747   1.893 -0.2625  0.5004  0.1093
18034TIP3    H175517   3.354   3.732   1.931 -0.6619 -0.6476  0.6152
18034TIP3    H275518   3.265   3.690   1.816  0.3526  2.4343 -1.4225
18035TIP3   OH275519   4.993   4.622   5.852 -0.0616 -0.2619 -0.2216
18035TIP3    H175520   4.976   4.716   5.859 -1.0232 -0.3750 -0.8331
18035TIP3    H275521   5.008   4.594   5.942  1.4977  0.6867 -0.1559
18036TIP3   OH275522   2.295   1.924  13.184 -0.2316 -0.2792 -0.4275
18036TIP3    H175523   2.256   1.837  13.176  0.0701 -0.4485 -0.1032
18036TIP3    H275524   2.338   1.938  13.100 -0.0292 -0.5712 -0.3751
18037TIP3   OH275525   4.827   5.915   4.670  0.3265 -0.0627  0.1531
18037TIP3    H175526   4.794   5.993   4.715 -0.1053 -0.2165  0.1067
18037TIP3    H275527   4.858   5.947   4.585  0.1313  0.0520  0.1256
18038TIP3   OH275528   0.555   3.838   2.476 -0.2441  0.1868 -0.0706
18038TIP3    H175529   0.555   3.867   2.385  0.3750 -0.2656 -0.2179
18038TIP3    H275530   0.591   3.912   2.525  1.9644 -0.5139 -0.5241
18039TIP3   OH275531   5.865   3.458  12.324  0.0412  0.1886 -0.4029
18039TIP3    H175532   5.863   3.374  12.371 -1.8379  0.1553 -0.4399
18039TIP3    H275533   5.874   3.433  12.232  0.2902  0.0622 -0.3443
18040TIP3   OH275534   5.703   5.782   3.391 -0.1727 -0.2714  0.1647
18040TIP3    H175535   5.781   5.832   3.366 -0.3821  0.5435  1.0711
18040TIP3    H275536   5.630   5.842   3.375 -0.4201 -0.2393  1.3268
18041TIP3   OH275537   2.361   5.023  12.011 -0.1514 -0.3970 -1.0329
18041TIP3    H175538   2.386   5.105  12.054 -0.6980  0.0365 -1.5231
18041TIP3    H275539   2.267   5.032  11.996 -0.5381 -1.7459  0.2667
18042TIP3   OH275540   6.137   3.029   2.537  0.1205 -0.2020 -0.2779
18042TIP3    H175541   6.059   3.066   2.495  0.5859  1.2327  0.0747
18042TIP3    H275542   6.121   3.039   2.631  1.1599  1.1112 -0.2115
18043TIP3   OH275543   3.521   6.328   3.422  0.6919  0.7358  0.0471
18043TIP3    H175544   3.555   6.312   3.334  1.0393  0.2017  0.2730
18043TIP3    H275545   3.435   6.368   3.408  0.9483  1.1065 -0.5335
18044TIP3   OH275546   2.380   6.693  12.246  0.1024  0.2384 -0.4284
18044TIP3    H175547   2.439   6.741  12.188 -0.7031  1.0895 -0.5575
18044TIP3    H275548   2.415   6.604  12.247  1.8058  0.8858  0.0710
18045TIP3   OH275549   4.079   2.965  16.797  0.3273  0.2043 -0.3207
18045TIP3    H175550   4.029   2.991  16.874  1.2479  1.6254 -0.1770
18045TIP3    H275551   4.062   3.033  16.732  0.1312 -0.5981 -1.1417
18046TIP3   OH275552   1.800   4.017   6.095 -0.0968  0.0316  0.4974
18046TIP3    H175553   1.785   3.997   6.188 -0.2524  2.4995  1.0647
18046TIP3    H275554   1.719   3.991   6.052 -0.5916  0.2112  1.2955
18047TIP3   OH275555   1.895   1.783  11.133 -0.6568  0.2295 -0.0304
18047TIP3    H175556   1.829   1.736  11.184 -0.5860  0.3140  0.1400
18047TIP3    H275557   1.853   1.799  11.048 -0.4803 -0.6338 -0.2973
18048TIP3   OH275558   4.620   6.326   4.558  0.5020  0.2460 -0.2598
18048TIP3    H175559   4.535   6.295   4.528  0.1081  0.7572  0.2891
18048TIP3    H275560   4.682   6.258   4.531 -0.3133 -0.9869  0.8681
18049TIP3   OH275561   5.162   0.869  13.758  0.2550  0.2499 -0.0027
18049TIP3    H175562   5.151   0.833  13.846 -1.0858  0.4317 -0.0717
18049TIP3    H275563   5.077   0.908  13.738  1.0999  1.8234 -0.6611
18050TIP3   OH275564   3.165   5.308   4.217  0.3874 -0.0310 -0.4849
18050TIP3    H175565   3.131   5.338   4.302  0.2337  0.1751 -0.6176
18050TIP3    H275566   3.158   5.213   4.221 -3.3084  0.0081 -1.7128
18051TIP3   OH275567   3.589   5.110  11.988 -0.3710 -0.4100  0.5109
18051TIP3    H175568   3.612   5.152  12.070 -0.4231 -0.0315  0.3325
18051TIP3    H275569   3.500   5.139  11.970 -0.2832 -0.3188  0.2123
18052TIP3   OH275570   6.629   3.152  10.913 -0.3262  0.5939 -0.1233
18052TIP3    H175571   6.572   3.080  10.939 -0.6747  0.8819 -0.0888
18052TIP3    H275572   6.570   3.217  10.875 -0.2910  1.6836  1.5487
18053TIP3   OH275573   0.521   0.428  12.891 -0.2067  0.0951 -0.1823
18053TIP3    H175574   0.469   0.475  12.956  0.7481  1.0349 -0.0709
18053TIP3    H275575   0.461   0.412  12.819 -1.2880 -0.9658  0.9053
18054TIP3   OH275576   0.932   2.648   0.776 -0.4003  0.2578 -0.0212
18054TIP3    H175577   0.908   2.739   0.790 -2.9878  0.2001 -2.9520
18054TIP3    H275578   0.991   2.649   0.700 -0.3497 -0.4914 -0.0029
18055TIP3   OH275579   5.422   6.387   2.116  0.1559 -0.1934 -0.6715
18055TIP3    H175580   5.331   6.358   2.112 -0.1509  0.7499 -0.9897
18055TIP3    H275581   5.457   6.346   2.195 -1.5060  1.9715  1.3562
18056TIP3   OH275582   2.402   1.176  16.549 -0.3443  0.0510  0.0393
18056TIP3    H175583   2.384   1.270  16.541  0.4332  0.5890  3.3589
18056TIP3    H275584   2.383   1.156  16.640  0.6824 -2.7980 -0.2921
18057TIP3   OH275585   2.592   2.459  11.977  0.3805  0.4916 -0.2372
18057TIP3    H175586   2.613   2.485  12.066 -0.7808  1.0455 -0.1006
18057TIP3    H275587   2.502   2.490  11.964  0.5979  0.5787 -1.6639
18058TIP3   OH275588   4.885   5.739  14.819  0.2134  0.2085 -0.1524
18058TIP3    H175589   4.837   5.799  14.762 -0.4693 -2.2559 -2.3848
18058TIP3    H275590   4.932   5.681  14.759 -0.7480 -2.7388  1.7058
18059TIP3   OH275591   1.492   5.021  12.227 -0.3785  0.3923 -0.2607
18059TIP3    H175592   1.554   5.094  12.226  0.7997 -0.5733  0.7835
18059TIP3    H275593   1.462   5.016  12.318 -0.3694 -0.4921 -0.2973
18060TIP3   OH275594   1.296   0.833   3.080 -0.4807  0.2422  0.3396
18060TIP3    H175595   1.214   0.820   3.033 -1.7544  1.4912  2.0959
18060TIP3    H275596   1.275   0.810   3.171  1.0906  0.7231  0.8534
18061TIP3   OH275597   6.300   4.073  16.878  0.5047 -0.1601 -0.4660
18061TIP3    H175598   6.338   4.145  16.928  0.5403  0.3722 -1.2349
18061TIP3    H275599   6.212   4.103  16.856 -0.3634 -1.3341  1.1980
18062TIP3   OH275600   2.641   0.856   2.186 -0.1740  0.7783  0.0315
18062TIP3    H175601   2.610   0.792   2.123  1.2774 -1.2008  1.2122
18062TIP3    H275602   2.696   0.806   2.246  2.1099  3.3510  0.2703
18063TIP3   OH275603   5.407   3.473  11.340  0.0849 -0.1692 -0.3607
18063TIP3    H175604   5.331   3.488  11.284  0.4832  1.8603 -0.4128
18063TIP3    H275605   5.447   3.559  11.352  0.8046 -0.7441  1.9537
18064TIP3   OH275606   1.585   5.290  13.660 -0.4529 -0.3298 -0.4027
18064TIP3    H175607   1.572   5.369  13.712 -0.1765 -0.8982  0.5637
18064TIP3    H275608   1.643   5.236  13.713  0.8674 -0.4182 -1.8796
18065TIP3   OH275609   5.894   6.131   1.003  0.0258  0.0256 -0.1435
18065TIP3    H175610   5.881   6.037   1.015  0.2812  0.0740  0.5297
18065TIP3    H275611   5.989   6.143   1.005 -0.0435  0.4648  1.1205
18066TIP3   OH275612   4.511   6.108  14.081  0.1160 -0.1155 -0.2386
18066TIP3    H175613   4.419   6.084  14.092 -0.2843  1.7690  0.9853
18066TIP3    H275614   4.529   6.095  13.988 -1.9217  1.1438 -0.8722
18067TIP3   OH275615   6.663   4.714  10.524  0.5772  0.2889  0.3303
18067TIP3    H175616   6.708   4.678  10.601  1.7436  0.3330 -0.2972
18067TIP3    H275617   6.634   4.636  10.475 -0.1236  0.2609  0.7775
18068TIP3   OH275618   2.739   3.036  14.644 -0.0014 -0.0257  0.5212
18068TIP3    H175619   2.812   3.080  14.688 -0.7001  1.3170  0.4115
18068TIP3    H275620   2.677   3.016  14.714  1.2478 -2.9402  0.9148
18069TIP3   OH275621   2.056   1.916  11.520 -0.2585 -0.1841  0.0143
18069TIP3    H175622   2.111   1.874  11.454 -1.1803 -1.1035 -0.1970
18069TIP3    H275623   2.118   1.953  11.583  0.6120 -1.0942 -0.2759
18070TIP3   OH275624   1.604   1.101  11.070  0.7436  0.4515 -0.1771
18070TIP3    H175625   1.675   1.144  11.023  2.5146 -0.1671  1.7785
18070TIP3    H275626   1.627   1.008  11.070  0.0862  0.2721  0.7048
18071TIP3   OH275627   5.730   0.594   2.891  0.0803 -0.5673 -0.4866
18071TIP3    H175628   5.695   0.506   2.874 -0.0316 -0.4403 -0.9190
18071TIP3    H275629   5.817   0.578   2.927 -0.4795 -0.8949  0.7792
18072TIP3   OH275630   0.579   2.383   4.484  0.2590  0.1348  0.2501
18072TIP3    H175631   0.596   2.294   4.515  0.3290  0.0331 -0.0782
18072TIP3    H275632   0.483   2.391   4.483  0.2446 -0.1016 -0.1882
18073TIP3   OH275633   0.684   1.934  14.072 -0.7599  0.0260 -0.0756
18073TIP3    H175634   0.747   1.997  14.036  0.7498 -1.3996 -0.0394
18073TIP3    H275635   0.614   1.932  14.007  0.1243  0.2735 -1.0698
18074TIP3   OH275636   1.721   5.468   0.667  0.5751  0.6027  0.4097
18074TIP3    H175637   1.696   5.427   0.750  1.7259  1.9959  1.4937
18074TIP3    H275638   1.769   5.399   0.621  0.7631  0.0849  1.3385
18075TIP3   OH275639   6.212   6.550  16.093  0.1360 -0.2197 -0.0521
18075TIP3    H175640   6.163   6.549  16.010  0.4230 -2.0461 -0.2364
18075TIP3    H275641   6.232   6.643  16.108 -1.1446  0.2914 -1.2927
18076TIP3   OH275642   0.544   1.709  16.195  0.3665 -0.0799  0.2819
18076TIP3    H175643   0.595   1.775  16.146 -0.7639 -0.3092 -1.2980
18076TIP3    H275644   0.601   1.684  16.267  2.4308 -0.1872 -1.2841
18077TIP3   OH275645   4.235   5.543   1.854 -0.0944 -0.0624 -0.4021
18077TIP3    H175646   4.210   5.613   1.795 -1.8721 -1.3114 -1.2175
18077TIP3    H275647   4.249   5.467   1.798 -1.9808 -1.3246  0.7050
18078TIP3   OH275648   4.472   6.583  13.313 -0.5322  0.1680  0.2969
18078TIP3    H175649   4.406   6.647  13.340 -1.4196 -1.4813  2.3877
18078TIP3    H275650   4.555   6.630  13.321 -1.0667  0.8909  2.6439
18079TIP3   OH275651   0.925   0.198  17.219  0.0641  0.0586  0.8246
18079TIP3    H175652   0.832   0.184  17.202  0.3563 -2.1213  0.8353
18079TIP3    H275653   0.967   0.189  17.134  0.6223 -2.7733  1.2986
18080TIP3   OH275654   1.361   3.520  11.041  1.0190  0.3512 -0.3257
18080TIP3    H175655   1.435   3.525  10.981  0.7998 -0.7103 -0.7104
18080TIP3    H275656   1.296   3.467  10.995  0.3140  0.6386  0.3087
18081TIP3   OH275657   6.140   4.925   5.760 -0.0455 -0.3498 -0.3192
18081TIP3    H175658   6.222   4.891   5.796  0.1670  0.2271 -0.2515
18081TIP3    H275659   6.102   4.977   5.832 -0.4775 -0.6176 -0.3463
18082TIP3   OH275660   1.992   2.284   3.365  0.3416  0.3392 -0.0974
18082TIP3    H175661   1.939   2.242   3.433  0.9807 -1.4071 -0.6186
18082TIP3    H275662   2.052   2.215   3.336  0.4664  1.2106 -2.0417
18083TIP3   OH275663   1.203   2.156   5.570 -0.4148  0.4480  0.6983
18083TIP3    H175664   1.244   2.124   5.491 -2.7579  0.7542 -0.7471
18083TIP3    H275665   1.152   2.082   5.603 -0.3431  0.6456  1.2761
18084TIP3   OH275666   1.929   0.719   3.253 -0.2374 -0.3702  0.7343
18084TIP3    H175667   1.948   0.774   3.177  1.8417 -1.7091  0.1995
18084TIP3    H275668   2.015   0.699   3.290 -1.0636 -1.5717  2.1335
18085TIP3   OH275669   5.724   2.929  16.808  0.0564  0.1434  0.5043
18085TIP3    H175670   5.715   2.907  16.715  0.6975 -2.3587  0.9423
18085TIP3    H275671   5.818   2.935  16.823 -0.0693  2.8183  0.5922
18086TIP3   OH275672   0.584   5.688  15.719  0.5172  0.1296  0.2625
18086TIP3    H175673   0.601   5.635  15.797  1.1630 -0.0704 -0.0086
18086TIP3    H275674   0.594   5.628  15.646 -2.7130 -0.3626  0.0803
18087TIP3   OH275675   3.411   4.066   0.804  0.1845  0.2170 -0.5539
18087TIP3    H175676   3.392   4.141   0.860 -0.6464 -0.1175 -0.3722
18087TIP3    H275677   3.490   4.092   0.756 -0.4208  1.4549 -0.9372
18088TIP3   OH275678   3.684   4.119  14.297  0.2420 -0.0779  0.1007
18088TIP3    H175679   3.628   4.152  14.368  1.1249  0.0517  0.7520
18088TIP3    H275680   3.643   4.153  14.217 -1.9599 -1.9343  0.3420
18089TIP3   OH275681   6.293   3.978  13.755  0.0022 -0.2062 -0.1321
18089TIP3    H175682   6.335   3.892  13.761 -0.9675 -0.6137  1.1067
18089TIP3    H275683   6.350   4.036  13.804  1.4714  0.2417 -2.2140
18090TIP3   OH275684   0.306   5.121   1.869  0.3774  0.2360  0.5470
18090TIP3    H175685   0.272   5.207   1.895  0.5927  0.0314  1.5161
18090TIP3    H275686   0.371   5.100   1.935  1.1105 -0.1967 -0.2885
18091TIP3   OH275687   2.158   3.473  16.543  0.0716  0.3947  0.5002
18091TIP3    H175688   2.125   3.399  16.594  0.3555 -0.0367  0.0668
18091TIP3    H275689   2.252   3.476  16.563  0.3581 -0.3363 -0.6727
18092TIP3   OH275690   5.110   4.247   1.605  0.3826  0.3521  0.6486
18092TIP3    H175691   5.122   4.166   1.554  0.1777  0.4257  0.4842
18092TIP3    H275692   5.016   4.259   1.608  0.4240  0.7379  0.4327
18093TIP3   OH275693   2.185   3.858  13.528  0.6564  0.1039  0.6150
18093TIP3    H175694   2.244   3.798  13.573  0.8289 -0.0523  0.1875
18093TIP3    H275695   2.199   3.841  13.435  2.1295  2.1187  0.3961
18094TIP3   OH275696   4.102   4.437  15.967 -0.2796  0.4732  0.1645
18094TIP3    H175697   4.069   4.423  16.057  0.0999  1.6582  0.4952
18094TIP3    H275698   4.189   4.398  15.967  0.4073  1.9588  0.8198
18095TIP3   OH275699   1.068   6.623  11.748 -0.3643 -0.2825 -0.6579
18095TIP3    H175700   1.025   6.544  11.716 -3.3312  0.7631  0.4482
18095TIP3    H275701   1.015   6.695  11.714  0.1315  1.0772  1.2803
18096TIP3   OH275702   2.353   6.318   6.805  0.1102  0.4623  0.3388
18096TIP3    H175703   2.377   6.289   6.717 -0.5765 -0.5914  0.4890
18096TIP3    H275704   2.278   6.264   6.828  0.5051  0.4861  1.7217
18097TIP3   OH275705   3.608   3.173  16.257 -0.5858 -0.3128 -0.1649
18097TIP3    H175706   3.545   3.229  16.211 -0.6657 -0.6381 -0.4633
18097TIP3    H275707   3.686   3.228  16.268 -1.0866  0.2581  0.6525
18098TIP3   OH275708   0.999   4.962   1.942 -0.4363  0.3761 -0.2779
18098TIP3    H175709   0.929   4.906   1.974 -0.0733 -0.8206 -1.4414
18098TIP3    H275710   1.072   4.947   2.002 -0.0151 -1.2387 -1.1223
18099TIP3   OH275711   6.248   5.323  17.177  0.1991 -0.1300 -0.0414
18099TIP3    H175712   6.288   5.282  17.254  0.5797  0.6101  0.1713
18099TIP3    H275713   6.320   5.368  17.134 -0.0845 -0.2313 -0.6343
18100TIP3   OH275714   3.196   0.134  17.108  0.0541 -0.4369  0.5956
18100TIP3    H175715   3.114   0.145  17.157 -0.2615  0.2551 -0.0587
18100TIP3    H275716   3.181   0.058  17.053  0.2105 -0.8881  1.1649
18101TIP3   OH275717   3.297   5.061   0.326  0.3917  0.4178 -0.4747
18101TIP3    H175718   3.225   5.123   0.313 -0.1313 -0.1679 -0.4448
18101TIP3    H275719   3.292   5.003   0.251  0.8349  0.3644 -0.4667
18102TIP3   OH275720   4.095   6.016  10.938  0.3658  0.9057 -0.4744
18102TIP3    H175721   4.101   5.924  10.963 -0.6564  0.9242 -0.1402
18102TIP3    H275722   4.019   6.021  10.880 -0.2029  1.7068  0.3133
18103TIP3   OH275723   6.522   0.251  11.962 -0.1879 -0.3503  0.2238
18103TIP3    H175724   6.482   0.330  11.996 -0.3383  0.7410 -2.2756
18103TIP3    H275725   6.520   0.189  12.035  0.4119  2.0742  2.4263
18104TIP3   OH275726   2.021   4.098  15.241 -0.2764 -0.2537  1.0495
18104TIP3    H175727   2.078   4.170  15.267  0.1791 -0.7873  1.5388
18104TIP3    H275728   2.040   4.084  15.148 -1.2317  1.0339  0.6308
18105TIP3   OH275729   2.806   4.329   0.054  0.9174 -0.3719 -0.3233
18105TIP3    H175730   2.895   4.332   0.019  0.9101  0.3676 -0.2810
18105TIP3    H275731   2.797   4.408   0.106 -0.0428 -0.0123 -1.0111
18106TIP3   OH275732   6.685   5.918  16.642 -0.0647 -0.2293 -0.1704
18106TIP3    H175733   6.765   5.966  16.666 -0.2016  0.6082 -1.2859
18106TIP3    H275734   6.703   5.827  16.664  0.4441  0.2318  1.4367
18107TIP3   OH275735   3.872   4.536  10.661 -0.7947 -0.2601 -0.2883
18107TIP3    H175736   3.927   4.573  10.730 -1.2690 -1.6219  0.8605
18107TIP3    H275737   3.809   4.606  10.641  1.1638  1.2513 -1.4974
18108TIP3   OH275738   2.750   4.036   2.331 -0.2018 -0.5449 -0.5979
18108TIP3    H175739   2.762   4.128   2.358 -0.9795 -0.6666  0.2072
18108TIP3    H275740   2.812   4.025   2.258  1.1662  0.1279  0.3978
18109TIP3   OH275741   1.556   5.250   2.437  0.2555 -0.6461  0.2830
18109TIP3    H175742   1.463   5.230   2.446  0.1914  0.3064  2.2889
18109TIP3    H275743   1.586   5.266   2.526  2.2767 -0.5674 -0.3547
18110TIP3   OH275744   1.716   5.958  13.873 -0.4901  0.2781 -0.0449
18110TIP3    H175745   1.710   5.958  13.778  2.4395 -2.5187 -0.4275
18110TIP3    H275746   1.798   6.005  13.892  1.5077 -3.0625  0.5345
18111TIP3   OH275747   1.596   4.946  14.584 -0.1793  0.0184  0.4294
18111TIP3    H175748   1.633   4.858  14.573 -0.2356 -0.0434  0.7469
18111TIP3    H275749   1.526   4.936  14.649 -2.9774 -0.5170 -2.4035
18112TIP3   OH275750   6.440   1.777   2.314 -0.4602  0.0378 -0.3096
18112TIP3    H175751   6.522   1.727   2.317 -0.1256  0.5543  2.9698
18112TIP3    H275752   6.375   1.718   2.352 -1.1023  0.4671 -0.7209
18113TIP3   OH275753   4.039   6.103   3.413  0.5225  0.6687 -0.3773
18113TIP3    H175754   4.060   6.157   3.489 -3.0529 -1.6318  2.5994
18113TIP3    H275755   3.946   6.122   3.395  0.8799  0.1040 -3.3898
18114TIP3   OH275756   5.557   4.067  11.163 -0.3855  0.1789 -0.0816
18114TIP3    H175757   5.557   3.998  11.229  1.0713  0.6794  0.4720
18114TIP3    H275758   5.494   4.131  11.196 -1.8028 -0.8495 -0.6314
18115TIP3   OH275759   1.043   5.893   5.195  0.1928  0.2775 -0.5941
18115TIP3    H175760   1.025   5.799   5.196  1.3145  0.0435  0.1850
18115TIP3    H275761   1.018   5.922   5.108 -2.4090 -0.2594 -0.0979
18116TIP3   OH275762   1.900   1.442  15.836 -0.8420  0.2012 -0.4436
18116TIP3    H175763   1.957   1.449  15.913 -0.2703  0.2040 -0.8670
18116TIP3    H275764   1.892   1.531  15.803  0.2903 -0.0160 -1.3721
18117TIP3   OH275765   4.975   5.312   6.078 -0.5671  0.1357  0.6980
18117TIP3    H175766   4.978   5.336   6.170 -0.1723 -0.4003  0.8264
18117TIP3    H275767   4.918   5.378   6.038  0.2820  1.1352  1.0944
18118TIP3   OH275768   0.655   0.885  11.892 -0.2306 -0.1521  0.5738
18118TIP3    H175769   0.599   0.819  11.851 -0.7134 -0.1972  1.2957
18118TIP3    H275770   0.687   0.843  11.972 -0.4411  0.4349  0.9730
18119TIP3   OH275771   6.132   3.346   1.012 -0.4469 -0.1005  0.3304
18119TIP3    H175772   6.038   3.358   1.001 -0.3083  0.5710 -0.2052
18119TIP3    H275773   6.145   3.346   1.107 -0.8518  1.0152  0.4016
18120TIP3   OH275774   2.666   5.686   3.205  0.0665  0.6741 -0.1489
18120TIP3    H175775   2.604   5.740   3.253 -0.6682 -0.7312  0.5465
18120TIP3    H275776   2.720   5.644   3.272 -0.0837 -0.2733 -0.5911
18121TIP3   OH275777   2.551   2.782   5.002 -0.5999 -0.0677  0.1117
18121TIP3    H175778   2.584   2.801   5.090  3.3416 -2.2363 -0.6824
18121TIP3    H275779   2.495   2.705   5.014 -0.6328  0.0521  0.7851
18122TIP3   OH275780   1.942   0.693   2.876  0.4242 -0.8327 -0.5717
18122TIP3    H175781   2.024   0.656   2.907  1.7135  1.8481 -0.5589
18122TIP3    H275782   1.938   0.780   2.916 -0.5863  0.5613 -3.4518
18123TIP3   OH275783   0.509   4.352  11.671  0.6921  0.4200 -0.3237
18123TIP3    H175784   0.585   4.352  11.728  0.0706  0.8061  0.5325
18123TIP3    H275785   0.532   4.294  11.599  1.0708 -1.0031  0.9072
18124TIP3   OH275786   3.850   2.124  17.327 -0.5819  0.8611  0.3635
18124TIP3    H175787   3.757   2.142  17.338 -1.2229 -1.8637  0.0442
18124TIP3    H275788   3.876   2.081  17.409 -0.1363 -0.2511 -0.3391
18125TIP3   OH275789   0.403   0.795   0.243 -0.2893  0.1405 -0.2806
18125TIP3    H175790   0.427   0.702   0.246 -0.2875 -0.0939 -3.8353
18125TIP3    H275791   0.310   0.796   0.266  0.1078 -0.4620  1.5187
18126TIP3   OH275792   5.926   2.012  14.580 -0.3147 -0.0642  0.4837
18126TIP3    H175793   5.896   1.956  14.650  0.3906 -0.2596  0.6436
18126TIP3    H275794   5.974   2.082  14.625  1.4326 -0.9900  0.1571
18127TIP3   OH275795   6.420   2.430  15.251  0.1263  1.0006 -0.0477
18127TIP3    H175796   6.330   2.463  15.247  0.5963  2.3749  0.3081
18127TIP3    H275797   6.472   2.506  15.275  1.1140 -0.2481  1.9868
18128TIP3   OH275798   2.729   3.272   3.410 -0.5469  0.1388  0.4790
18128TIP3    H175799   2.694   3.201   3.355 -0.5601 -0.7731  1.6285
18128TIP3    H275800   2.818   3.244   3.431  0.0850  1.3256 -0.4940
18129TIP3   OH275801   1.273   1.453   6.174  0.0089  0.5035  0.3037
18129TIP3    H175802   1.339   1.517   6.148 -0.1390  0.0541 -1.2592
18129TIP3    H275803   1.192   1.483   6.132 -0.8907  1.1717  2.3683
18130TIP3   OH275804   3.546   2.233  13.812 -0.1099  0.1344 -0.3272
18130TIP3    H175805   3.487   2.232  13.887 -2.2628 -0.6627 -1.9386
18130TIP3    H275806   3.589   2.147  13.814  0.2286  0.3091  0.2458
18131TIP3   OH275807   6.137   3.294   2.307 -0.3243 -0.4006  0.3126
18131TIP3    H175808   6.210   3.241   2.341 -0.2874 -0.0926  0.7211
18131TIP3    H275809   6.091   3.325   2.385  0.0340  0.7002  0.1132
18132TIP3   OH275810   3.261   0.104   4.665  0.0070 -0.6100 -0.0823
18132TIP3    H175811   3.187   0.093   4.724 -0.7177  0.8622 -0.6742
18132TIP3    H275812   3.236   0.057   4.585  0.5926 -1.8044  0.4047
18133TIP3   OH275813   3.297   2.829   0.097  0.0366  0.1125 -0.5187
18133TIP3    H175814   3.282   2.804   0.006  0.3922 -1.6482 -0.1193
18133TIP3    H275815   3.234   2.777   0.147 -0.7953  1.7229  0.2171
18134TIP3   OH275816   0.906   0.725   0.880  0.0518 -0.3539  0.5964
18134TIP3    H175817   0.934   0.701   0.968 -0.2950  2.0022  1.3994
18134TIP3    H275818   0.979   0.699   0.824  1.7039  1.0469  2.0044
18135TIP3   OH275819   2.606   2.303  13.516 -0.5746  0.3858  0.4243
18135TIP3    H175820   2.628   2.396  13.525  0.0921  0.2166  0.5958
18135TIP3    H275821   2.559   2.282  13.597 -1.4251  0.7597  0.0406
18136TIP3   OH275822   5.989   0.113  14.640 -0.3023 -0.0738  0.3012
18136TIP3    H175823   5.949   0.063  14.711 -0.4932 -0.0683  0.2002
18136TIP3    H275824   5.982   0.204  14.669 -3.1910  0.2654 -1.0239
18137TIP3   OH275825   6.743   6.058   0.669  0.5484 -0.4036 -0.4225
18137TIP3    H175826   6.667   6.046   0.726  0.0487  0.8504 -0.7884
18137TIP3    H275827   6.813   6.088   0.729 -0.3886  2.4240 -0.5751
18138TIP3   OH275828   0.148   4.815  15.280 -0.2542 -0.4675 -0.4064
18138TIP3    H175829   0.205   4.779  15.212  0.4263  0.1787 -0.1902
18138TIP3    H275830   0.104   4.738  15.317  0.1143 -0.9283 -0.9078
18139TIP3   OH275831   0.366   0.394   5.107  0.3823  0.1672  0.2920
18139TIP3    H175832   0.428   0.362   5.173 -0.7063  1.7865  2.2007
18139TIP3    H275833   0.295   0.331   5.107  0.8181 -0.3315 -0.0362
18140TIP3   OH275834   1.999   4.486   0.258 -0.8564  0.0217  0.0048
18140TIP3    H175835   2.039   4.400   0.243  0.8344  0.4322  1.7685
18140TIP3    H275836   1.928   4.470   0.319  0.0948 -0.0273  1.1281
18141TIP3   OH275837   5.985   4.633  13.788  0.1554  0.0800 -0.4166
18141TIP3    H175838   5.997   4.539  13.801 -1.5926 -0.0730  0.4501
18141TIP3    H275839   6.022   4.673  13.867 -2.9614 -0.2580  1.3699
18142TIP3   OH275840   3.053   5.494   4.019 -0.0689 -0.1003  0.0473
18142TIP3    H175841   3.082   5.424   4.078 -2.6512  0.9023  2.7657
18142TIP3    H275842   2.984   5.453   3.967 -0.1174 -0.1225  0.1284
18143TIP3   OH275843   0.334   6.599   4.412 -0.1226 -0.0117  0.4880
18143TIP3    H175844   0.324   6.590   4.506 -0.4019 -1.3310  0.3463
18143TIP3    H275845   0.273   6.535   4.375  1.8061 -1.3432 -0.5522
18144TIP3   OH275846   2.574   1.986  12.821  0.5556  0.7294 -0.2203
18144TIP3    H175847   2.632   2.057  12.793  0.7250  0.0761 -1.6089
18144TIP3    H275848   2.568   1.929  12.744 -2.9479  1.3976 -0.5796
18145TIP3   OH275849   2.062   2.792  15.675 -0.1588 -0.4062 -0.5360
18145TIP3    H175850   1.975   2.792  15.633 -0.1806 -0.9880 -0.4893
18145TIP3    H275851   2.099   2.877  15.651 -0.1445 -0.7474 -1.7977
18146TIP3   OH275852   6.572   2.609   3.357  0.6248 -0.0071 -0.4367
18146TIP3    H175853   6.491   2.609   3.408  0.9934  0.4296  0.1651
18146TIP3    H275854   6.614   2.526   3.379  1.5356  0.8296  1.2435
18147TIP3   OH275855   4.242   0.146  16.396 -0.1537  0.3878  0.3631
18147TIP3    H175856   4.172   0.081  16.391 -0.1839  0.5116 -1.3511
18147TIP3    H275857   4.322   0.097  16.377 -0.2505  0.9207 -1.6068
18148TIP3   OH275858   6.205   2.397   3.162 -0.4101  0.2505  0.9363
18148TIP3    H175859   6.219   2.482   3.121 -1.1968  0.0451  0.1833
18148TIP3    H275860   6.166   2.417   3.247 -0.6086  0.6470  0.7542
18149TIP3   OH275861   0.807   0.729   3.678 -0.1928 -0.5159 -0.1375
18149TIP3    H175862   0.845   0.688   3.756  0.5476 -1.6575 -1.0595
18149TIP3    H275863   0.713   0.710   3.684 -0.1722 -0.4295  0.5531
18150TIP3   OH275864   3.124   5.909   1.954 -0.4025  0.0873  0.3983
18150TIP3    H175865   3.071   5.889   1.877 -1.7682 -0.5210  1.4510
18150TIP3    H275866   3.166   5.993   1.933 -0.4993 -0.2071 -1.1095
18151TIP3   OH275867   2.348   1.324  14.100  0.4528 -0.1120  0.4620
18151TIP3    H175868   2.417   1.292  14.157 -0.4171 -1.6120  0.7201
18151TIP3    H275869   2.283   1.253  14.098 -0.7118  0.9288 -0.3842
18152TIP3   OH275870   6.368   2.678   0.342 -0.3658 -0.3622  0.4715
18152TIP3    H175871   6.457   2.652   0.319 -0.0071  1.0245  0.2030
18152TIP3    H275872   6.378   2.765   0.381 -1.3392 -1.1636  2.6787
18153TIP3   OH275873   4.699   2.961   5.860 -0.4109  0.2974 -0.1464
18153TIP3    H175874   4.749   2.956   5.941 -1.5450  0.1813  0.5675
18153TIP3    H275875   4.619   3.009   5.883 -0.7474  0.2809 -1.1976
18154TIP3   OH275876   4.559   1.244   6.307 -0.4903 -0.0973 -0.2566
18154TIP3    H175877   4.534   1.252   6.399  0.7645  0.0230  0.0984
18154TIP3    H275878   4.636   1.187   6.308 -0.3561  0.0462 -1.2146
18155TIP3   OH275879   5.818   0.900   3.595 -0.3014  0.2407 -0.0431
18155TIP3    H175880   5.867   0.944   3.525  1.0944 -1.0938  0.0352
18155TIP3    H275881   5.777   0.971   3.644  1.7841  1.4851  0.0315
18156TIP3   OH275882   6.705   6.238  13.570 -0.5047 -0.4070  0.1999
18156TIP3    H175883   6.783   6.241  13.626 -1.6798 -0.4679  1.9322
18156TIP3    H275884   6.694   6.328  13.539 -0.8624  0.0915  1.6495
18157TIP3   OH275885   2.127   5.150   6.213 -0.2678 -0.5646  0.2413
18157TIP3    H175886   2.186   5.074   6.220  0.1220 -0.3365 -0.4236
18157TIP3    H275887   2.077   5.134   6.133  1.1225  0.7409 -0.9633
18158TIP3   OH275888   2.184   5.500   1.442  0.2739  0.2173 -0.7928
18158TIP3    H175889   2.277   5.509   1.425  0.2901 -0.7924 -1.3168
18158TIP3    H275890   2.143   5.512   1.356  0.0927 -1.3552 -0.9653
18159TIP3   OH275891   2.327   4.114   5.661  0.2683 -0.2047  0.0121
18159TIP3    H175892   2.235   4.126   5.683 -0.0755 -0.1384 -1.3630
18159TIP3    H275893   2.375   4.142   5.739 -0.8619 -0.0727  0.6753
18160TIP3   OH275894   2.383   6.619  15.844  0.4431  0.1638  0.6171
18160TIP3    H175895   2.470   6.652  15.820  0.6658 -0.9269 -0.1743
18160TIP3    H275896   2.340   6.693  15.887  1.3258  1.1129 -0.0676
18161TIP3   OH275897   0.544   4.090   6.181 -0.1299 -0.1886 -0.9206
18161TIP3    H175898   0.504   4.110   6.266 -0.1365 -1.2936 -0.6481
18161TIP3    H275899   0.501   4.010   6.152  0.1179 -0.0105 -1.8151
18162TIP3   OH275900   1.468   1.188   2.723 -0.3121 -0.4767 -0.6964
18162TIP3    H175901   1.531   1.247   2.682 -1.2374 -0.3055 -1.9132
18162TIP3    H275902   1.514   1.105   2.731  1.0501  0.3914  1.1416
18163TIP3   OH275903   3.731   4.744  12.206  0.2906 -0.0266  0.1900
18163TIP3    H175904   3.733   4.707  12.294  0.6073 -0.3823  0.0384
18163TIP3    H275905   3.748   4.837  12.218  0.3497 -0.0777  0.5021
18164TIP3   OH275906   0.177   3.610  16.894 -0.0447  0.1941 -0.5393
18164TIP3    H175907   0.109   3.553  16.859  0.5741 -0.0027 -1.4500
18164TIP3    H275908   0.242   3.616  16.824  1.4607 -0.6046  0.7531
18165TIP3   OH275909   5.732   2.431   1.123  0.0543 -0.1664  0.0839
18165TIP3    H175910   5.700   2.341   1.121  0.5126 -0.3759  1.4665
18165TIP3    H275911   5.655   2.484   1.145 -0.0173 -0.3193  0.1967
18166TIP3   OH275912   5.795   1.351  15.931 -0.5694  0.4967 -0.3535
18166TIP3    H175913   5.701   1.372  15.936 -1.0162 -1.3548 -0.0747
18166TIP3    H275914   5.811   1.337  15.838 -1.1682 -1.4428 -0.2136
18167TIP3   OH275915   6.298   5.044   2.662  0.3262 -0.0500 -0.9020
18167TIP3    H175916   6.217   4.995   2.649 -1.8452  2.6957  1.0761
18167TIP3    H275917   6.337   5.048   2.575 -2.0475 -0.8319 -2.0975
18168TIP3   OH275918   0.248   1.187   4.983  0.2813 -0.1288  0.1488
18168TIP3    H175919   0.314   1.155   5.044  0.4086 -2.7394 -1.2066
18168TIP3    H275920   0.171   1.203   5.037  1.3368  0.7669  1.4259
18169TIP3   OH275921   1.398   2.926  10.535 -1.0676 -0.3258 -0.4587
18169TIP3    H175922   1.444   2.842  10.542 -1.1121 -0.2139  2.1619
18169TIP3    H275923   1.387   2.940  10.440  2.0800 -1.5158 -1.1078
18170TIP3   OH275924   5.282   1.772  14.686 -0.2931 -0.0908  0.3751
18170TIP3    H175925   5.200   1.751  14.731  0.2230 -3.2002  0.0464
18170TIP3    H275926   5.344   1.707  14.717  1.7097  1.3062 -0.4910
18171TIP3   OH275927   3.518   6.409   1.134 -0.5375 -0.3543  0.4111
18171TIP3    H175928   3.539   6.332   1.187  4.1900  0.0662 -0.4016
18171TIP3    H275929   3.515   6.377   1.044 -2.3911 -0.1015  0.3470
18172TIP3   OH275930   5.202   5.792  17.084  0.3726 -0.2253 -0.1650
18172TIP3    H175931   5.136   5.848  17.125 -0.1631 -0.3857 -0.7959
18172TIP3    H275932   5.203   5.820  16.992  0.6234 -0.7652 -0.3281
18173TIP3   OH275933   4.301   1.166  15.433  0.5841  0.5260 -0.0349
18173TIP3    H175934   4.395   1.164  15.445  0.9349  1.6328 -2.0645
18173TIP3    H275935   4.274   1.074  15.438  1.7980  0.1743  0.3550
18174TIP3   OH275936   0.625   2.569  14.970 -0.3261 -0.1128  0.2907
18174TIP3    H175937   0.707   2.592  14.927  0.3272 -1.3932  0.7984
18174TIP3    H275938   0.637   2.478  14.998 -1.5200  0.0085  1.2961
18175TIP3   OH275939   5.872   6.170   5.358 -0.3006 -0.9758  0.0598
18175TIP3    H175940   5.841   6.257   5.332 -0.3206 -0.5655  1.3452
18175TIP3    H275941   5.948   6.153   5.302  1.7082  1.2891  1.8436
18176TIP3   OH275942   5.003   2.293   0.934  0.0227  0.3618  0.1479
18176TIP3    H175943   5.054   2.365   0.897  1.5533 -0.1481  1.1689
18176TIP3    H275944   4.987   2.319   1.025  0.3254 -0.4332  0.4367
18177TIP3   OH275945   3.345   0.380   2.595 -0.5228  0.5959  0.1234
18177TIP3    H175946   3.415   0.435   2.629  0.6284  0.6048 -2.0861
18177TIP3    H275947   3.376   0.291   2.606  0.6656  0.6251 -2.2812
18178TIP3   OH275948   4.800   2.959  16.863  0.1900 -0.3486  0.0374
18178TIP3    H175949   4.774   2.962  16.771 -1.1580 -0.4695  0.3837
18178TIP3    H275950   4.775   2.870  16.891 -1.9894  0.5297  1.1732
18179TIP3   OH275951   3.488   5.172   0.468 -0.4432  0.0001  0.3126
18179TIP3    H175952   3.566   5.154   0.415 -0.5721 -1.5582  0.6228
18179TIP3    H275953   3.416   5.132   0.420 -1.2209  2.0118 -0.3252
18180TIP3   OH275954   1.681   2.919  15.824  0.7087 -0.4492 -0.0371
18180TIP3    H175955   1.600   2.970  15.829  2.0474  1.8098 -0.0023
18180TIP3    H275956   1.725   2.952  15.746  1.9777 -1.0481  0.3971
18181TIP3   OH275957   5.953   6.153   6.775  0.4460 -0.3174  0.5303
18181TIP3    H175958   5.962   6.062   6.805  1.6807  0.0404  1.3329
18181TIP3    H275959   6.037   6.194   6.798 -0.1036  1.0401  0.2057
18182TIP3   OH275960   6.077   5.318  11.274 -0.3896 -0.5613  0.3412
18182TIP3    H175961   6.104   5.274  11.354 -1.0134 -0.9269  0.3498
18182TIP3    H275962   5.984   5.300  11.266 -0.2283 -0.9914 -0.7501
18183TIP3   OH275963   2.750   0.568  15.222  0.5032  0.1546  0.1467
18183TIP3    H175964   2.721   0.492  15.272 -2.6311  0.4384 -1.0144
18183TIP3    H275965   2.741   0.542  15.131  1.9234  1.0864 -0.2862
18184TIP3   OH275966   2.882   4.340   3.838 -0.0874 -0.2004 -0.3829
18184TIP3    H175967   2.896   4.428   3.872 -1.9153 -0.7147  1.9272
18184TIP3    H275968   2.967   4.297   3.845  0.2513  0.6324  0.8426
18185TIP3   OH275969   5.909   4.784   6.607 -0.2995 -0.6885  0.1939
18185TIP3    H175970   5.957   4.721   6.554  0.6652  0.1392  0.0402
18185TIP3    H275971   5.876   4.733   6.681  0.1760 -1.4378 -0.1003
18186TIP3   OH275972   0.235   5.005   3.387  0.5699  0.2591 -0.1488
18186TIP3    H175973   0.247   5.081   3.331  0.3455  0.3014 -0.1441
18186TIP3    H275974   0.294   5.020   3.461  2.4374 -0.8011 -1.3536
18187TIP3   OH275975   0.555   2.430   3.117  0.1697  0.9877 -0.2101
18187TIP3    H175976   0.508   2.377   3.053  1.2692 -1.0133  0.5326
18187TIP3    H275977   0.514   2.408   3.201  1.8260 -0.2436  0.3539
18188TIP3   OH275978   0.538   5.200  16.282  0.3598 -0.0681 -0.8724
18188TIP3    H175979   0.600   5.189  16.354  0.1485 -0.6336 -0.7670
18188TIP3    H275980   0.530   5.294  16.271 -1.1633  0.1034  1.2025
18189TIP3   OH275981   4.080   1.234   2.247  0.7363 -0.1064  0.1263
18189TIP3    H175982   4.016   1.292   2.205  1.8513  0.3760 -0.9861
18189TIP3    H275983   4.090   1.268   2.335  0.5993  0.7674 -0.1877
18190TIP3   OH275984   1.059   6.364  12.312 -0.4431 -0.0066 -0.2587
18190TIP3    H175985   1.102   6.402  12.236  2.0798 -0.5410  0.7790
18190TIP3    H275986   0.967   6.389  12.303 -0.6400 -1.4879 -4.3232
18191TIP3   OH275987   0.999   3.659  12.765  0.2679  0.6265  0.5708
18191TIP3    H175988   1.029   3.750  12.755  1.4767  0.1933  0.0655
18191TIP3    H275989   0.908   3.661  12.737  0.0110  1.8405  1.3803
18192TIP3   OH275990   6.478   2.101   4.714  0.2596  0.0436  0.2664
18192TIP3    H175991   6.533   2.043   4.662  0.7759 -0.5907  1.4960
18192TIP3    H275992   6.531   2.180   4.726  0.0333  0.3031 -0.3702
18193TIP3   OH275993   2.329   5.585  15.648  0.0024  0.3454 -0.3036
18193TIP3    H175994   2.244   5.559  15.612 -0.6526  0.4482  1.0931
18193TIP3    H275995   2.391   5.522  15.611 -0.9103 -0.6340 -0.2018
18194TIP3   OH275996   4.920   5.073   5.473 -0.1225  0.4313 -0.6226
18194TIP3    H175997   4.997   5.128   5.486 -1.0011  1.4078  0.6387
18194TIP3    H275998   4.949   4.985   5.498  0.7936  0.6314 -0.9433
18195TIP3   OH275999   5.581   0.989  12.074 -0.3511 -0.0585  0.4297
18195TIP3    H176000   5.634   1.063  12.105  0.3899  1.0768 -3.1111
18195TIP3    H276001   5.493   1.026  12.062  0.0693  0.3878 -1.5471
18196TIP3   OH276002   6.732   6.676   2.865 -0.0884 -0.0820  0.2314
18196TIP3    H176003   6.651   6.641   2.829 -0.7294  0.9561  0.6240
18196TIP3    H276004   6.723   6.663   2.960  0.0481  0.3531  0.3037
18197TIP3   OH276005   3.532   1.842   5.495 -0.2090 -0.3446 -0.4788
18197TIP3    H176006   3.576   1.839   5.410  1.7584 -1.8487  0.5148
18197TIP3    H276007   3.576   1.912   5.543 -1.0500  0.2364 -0.5311
18198TIP3   OH276008   2.994   5.518   3.518  0.3391 -0.2597  0.0186
18198TIP3    H176009   3.071   5.565   3.487 -0.3579  1.6916  1.1051
18198TIP3    H276010   2.923   5.547   3.461 -0.1394  0.1747  0.8215
18199TIP3   OH276011   4.043   0.536  11.623 -0.3343 -0.6558 -0.3267
18199TIP3    H176012   4.042   0.494  11.537 -0.2442 -2.1431  0.3601
18199TIP3    H276013   4.136   0.544  11.644 -0.3475  0.1263 -0.5598
18200TIP3   OH276014   2.332   1.311   4.099  0.1328 -0.6717 -0.4017
18200TIP3    H176015   2.394   1.353   4.040  0.5492 -0.4736  0.1676
18200TIP3    H276016   2.372   1.318   4.185 -1.2862  0.6467  0.1885
18201TIP3   OH276017   3.879   4.016  17.315 -0.2509  0.5576  0.4426
18201TIP3    H176018   3.971   4.040  17.310 -0.4545  1.5209  1.1920
18201TIP3    H276019   3.880   3.921  17.329  0.6103  0.5405  0.3377
18202TIP3   OH276020   5.273   0.294   6.028  0.3594  0.3875 -0.4836
18202TIP3    H176021   5.305   0.356   6.094  1.7786  0.0826 -0.8593
18202TIP3    H276022   5.314   0.211   6.052  0.7518  0.2378 -1.6421
18203TIP3   OH276023   2.223   4.907   1.107  0.4882  0.0537 -0.9181
18203TIP3    H176024   2.311   4.891   1.075  0.5149  0.5115 -1.0839
18203TIP3    H276025   2.216   5.003   1.110  1.1085  0.0906  2.1382
18204TIP3   OH276026   3.724   4.654  17.282  0.5020  0.3831  0.3342
18204TIP3    H176027   3.818   4.665  17.294  1.0024  1.6781 -3.2687
18204TIP3    H276028   3.688   4.742  17.295 -0.4229 -0.2473  2.4739
18205TIP3   OH276029   3.139   4.166   2.339 -0.7318  0.0042  0.1552
18205TIP3    H176030   3.119   4.206   2.424  1.0819 -1.0336  1.1208
18205TIP3    H276031   3.193   4.089   2.361  3.3558  1.9357 -2.0785
18206TIP3   OH276032   3.841   1.929  12.681 -0.2763 -0.2563  0.1124
18206TIP3    H176033   3.867   1.971  12.599  0.8226  0.8467  0.9820
18206TIP3    H276034   3.749   1.905  12.668 -0.5572  1.2567 -0.8944
18207TIP3   OH276035   0.134   1.150  14.781 -0.3802  0.0519 -0.3217
18207TIP3    H176036   0.216   1.105  14.800  0.6086  1.2379 -1.5604
18207TIP3    H276037   0.086   1.090  14.724 -0.2637 -0.5396  0.1996
18208TIP3   OH276038   1.145   2.389  11.351  0.3235 -0.2575  0.2873
18208TIP3    H176039   1.236   2.357  11.345  0.0884 -1.0984  1.0331
18208TIP3    H276040   1.128   2.394  11.445 -1.0368 -2.0291  0.1865
18209TIP3   OH276041   3.993   1.782   1.053  0.3810 -0.2231 -0.0888
18209TIP3    H176042   3.923   1.801   0.990 -1.8231 -0.9112  2.0144
18209TIP3    H276043   4.039   1.866   1.062 -1.4586  0.8387 -0.0324
18210TIP3   OH276044   1.062   5.573  14.150 -0.3799 -0.4555  0.4108
18210TIP3    H176045   1.018   5.587  14.233 -1.2930 -0.5032 -0.0478
18210TIP3    H276046   1.111   5.491  14.161 -0.9945 -0.7836  0.6958
18211TIP3   OH276047   4.895   3.439  15.902  0.5537 -0.2119 -0.1973
18211TIP3    H176048   4.910   3.523  15.946  0.1807 -0.3734  0.2378
18211TIP3    H276049   4.925   3.373  15.964  1.7652 -0.3793 -0.9211
18212TIP3   OH276050   5.818   0.530   0.736  0.2039  0.2205 -0.5709
18212TIP3    H176051   5.829   0.458   0.675  0.6500  0.1226 -0.3829
18212TIP3    H276052   5.872   0.601   0.699  0.0965  0.3185 -0.5407
18213TIP3   OH276053   4.786   3.913   0.470 -0.3083 -0.3387 -0.0619
18213TIP3    H176054   4.819   3.918   0.381  0.9330 -1.5364  0.2936
18213TIP3    H276055   4.806   3.999   0.508  2.7473 -1.0486  0.1880
18214TIP3   OH276056   4.828   5.870   4.967 -0.3547 -0.3378  0.1521
18214TIP3    H176057   4.800   5.786   5.003  0.4074 -0.9809 -0.6954
18214TIP3    H276058   4.886   5.847   4.894  1.5972  0.9078  1.2195
18215TIP3   OH276059   2.520   2.144   3.128 -0.0814 -0.5022 -0.0262
18215TIP3    H176060   2.550   2.130   3.038 -0.2825 -1.3773  0.0361
18215TIP3    H276061   2.446   2.204   3.119  0.4109  0.0671 -0.3622
18216TIP3   OH276062   2.452   6.087   5.681 -0.1219  0.0132  0.3268
18216TIP3    H176063   2.487   6.108   5.594 -0.1127  1.9793  0.7615
18216TIP3    H276064   2.458   5.992   5.686 -0.5215 -0.1995 -1.9887
18217TIP3   OH276065   1.352   5.506   5.493 -0.7036 -0.5071  0.3139
18217TIP3    H176066   1.297   5.579   5.464  1.0573 -0.3008 -3.0052
18217TIP3    H276067   1.416   5.546   5.552 -0.6637  0.4062 -0.3222
18218TIP3   OH276068   1.220   2.951  10.735 -0.1335 -0.2636  0.2720
18218TIP3    H176069   1.259   3.016  10.795 -0.4267  0.4296 -0.2695
18218TIP3    H276070   1.276   2.953  10.658  1.5716 -2.7746  1.3233
18219TIP3   OH276071   1.870   3.518  14.128  0.8830 -0.6559 -0.5068
18219TIP3    H176072   1.872   3.463  14.050 -2.7404  2.0265 -2.8421
18219TIP3    H276073   1.907   3.602  14.099 -0.5245  0.3927  0.5479
18220TIP3   OH276074   1.914   6.314   2.232 -0.2187  0.1505  0.0598
18220TIP3    H176075   1.960   6.300   2.314 -1.4177 -1.4951  0.5157
18220TIP3    H276076   1.827   6.344   2.258  0.1026  1.8887 -0.7318
18221TIP3   OH276077   2.408   6.492  16.561 -0.3502 -0.2464  0.0989
18221TIP3    H176078   2.395   6.545  16.640 -0.2589  0.2150 -0.1947
18221TIP3    H276079   2.492   6.522  16.525 -0.7480  0.0610 -0.5793
18222TIP3   OH276080   5.321   2.168   3.758  0.0997  0.0596 -0.0440
18222TIP3    H176081   5.242   2.197   3.714  1.0168 -0.8414 -2.4871
18222TIP3    H276082   5.294   2.151   3.848 -2.3568  0.1902 -0.6871
18223TIP3   OH276083   5.855   6.296  14.899  0.3769  0.1470 -0.3928
18223TIP3    H176084   5.846   6.377  14.949  1.7166  0.0403  0.0580
18223TIP3    H276085   5.857   6.227  14.966  1.2009 -0.0824 -0.6506
18224TIP3   OH276086   3.411   4.162  11.368 -0.6919  0.3766  0.5639
18224TIP3    H176087   3.429   4.163  11.275  0.7776  2.0201  0.8097
18224TIP3    H276088   3.487   4.204  11.408 -1.3161 -0.2113  2.4972
18225TIP3   OH276089   6.158   3.491  12.330 -0.1824 -0.2365  0.0632
18225TIP3    H176090   6.071   3.517  12.363  0.7505  1.2553  1.5199
18225TIP3    H276091   6.208   3.470  12.409  1.6227  1.7587 -0.4482
18226TIP3   OH276092   5.022   5.829   3.866 -0.1511  0.2602 -0.4352
18226TIP3    H176093   5.076   5.806   3.790  0.2997  2.5116 -0.8986
18226TIP3    H276094   5.053   5.917   3.890 -0.5019 -0.2612  2.1775
18227TIP3   OH276095   4.205   6.039  13.127 -0.4631 -0.3265  0.1772
18227TIP3    H176096   4.151   6.091  13.186  0.7820  0.4174  0.6897
18227TIP3    H276097   4.179   5.948  13.145 -0.7569 -0.0534  1.2087
18228TIP3   OH276098   2.277   0.291  14.637  0.7033 -0.3096 -0.0867
18228TIP3    H176099   2.373   0.290  14.636  0.7318 -0.3844  1.3708
18228TIP3    H276100   2.254   0.375  14.596  1.4090 -0.0166  0.1022
18229TIP3   OH276101   2.564   6.294   5.817  0.1906  0.5988  0.0597
18229TIP3    H176102   2.557   6.214   5.766 -2.4380  0.2521  0.8450
18229TIP3    H276103   2.610   6.268   5.897  1.8510  0.5456 -0.8703
18230TIP3   OH276104   6.442   0.420  14.667 -0.2676  0.1712  0.6177
18230TIP3    H176105   6.521   0.405  14.615 -0.4049  0.0392  0.4474
18230TIP3    H276106   6.381   0.353  14.637 -0.0276 -0.5329  1.6098
18231TIP3   OH276107   5.745   3.929  17.174  0.2509  0.2375  0.1761
18231TIP3    H176108   5.742   3.863  17.243 -1.1746 -0.3637 -0.4146
18231TIP3    H276109   5.767   3.880  17.094  1.1152  0.7991  0.0578
18232TIP3   OH276110   5.895   1.793   5.230 -0.6295 -0.3920  0.2919
18232TIP3    H176111   5.875   1.710   5.274 -0.2481  0.2010  1.6549
18232TIP3    H276112   5.892   1.772   5.137 -0.2864 -1.9899  0.6044
18233TIP3   OH276113   2.960   4.418   6.442 -0.5999  0.3157 -0.7178
18233TIP3    H176114   3.029   4.404   6.507 -1.4513  0.3198  0.2129
18233TIP3    H276115   2.991   4.372   6.364  0.6852  0.7528 -0.4896
18234TIP3   OH276116   0.544   5.169  12.237  0.1250 -0.4305  0.3462
18234TIP3    H176117   0.572   5.257  12.211 -0.0910 -0.6354 -0.6343
18234TIP3    H276118   0.624   5.123  12.262  0.2926 -0.1039  0.4062
18235TIP3   OH276119   4.333   2.068   2.015 -0.1302  0.4121 -0.5640
18235TIP3    H176120   4.322   2.114   1.931  1.2515  1.3074 -0.2961
18235TIP3    H276121   4.276   2.115   2.076  1.6167  2.1890 -0.1796
18236TIP3   OH276122   3.931   6.351  14.347  0.0409  0.4309  0.0440
18236TIP3    H176123   3.871   6.380  14.416 -0.2260 -0.7389  0.3352
18236TIP3    H276124   3.888   6.376  14.266 -2.2322 -2.6042  0.1124
18237TIP3   OH276125   4.252   5.252   0.050 -0.2383  0.4651 -0.1145
18237TIP3    H176126   4.206   5.228   0.131 -0.4085  0.7594 -0.1255
18237TIP3    H276127   4.337   5.208   0.058  0.6554  2.3385  1.2912
18238TIP3   OH276128   3.127   4.028  15.451  0.5839 -0.2268  0.4713
18238TIP3    H176129   3.219   4.001  15.455  0.3502 -0.9278  1.4983
18238TIP3    H276130   3.082   3.951  15.417  0.7673  1.2669 -3.8014
18239TIP3   OH276131   2.714   5.219  12.137  0.4231  0.2164  0.4045
18239TIP3    H176132   2.758   5.139  12.165  2.8200  1.5506  0.7138
18239TIP3    H276133   2.762   5.289  12.180 -1.0081  1.8876 -0.5904
18240TIP3   OH276134   0.040   4.523   5.307  0.2864 -0.1229 -0.8225
18240TIP3    H176135   0.128   4.557   5.322  0.0360 -0.3537  1.4661
18240TIP3    H276136   0.053   4.434   5.275  0.9463 -0.9379  1.5350
18241TIP3   OH276137   3.158   2.908   4.010 -0.1963 -0.4206 -0.1258
18241TIP3    H176138   3.196   2.952   4.086 -0.3050 -2.1002  0.9746
18241TIP3    H276139   3.098   2.972   3.972  0.5084  0.7614  0.6867
18242TIP3   OH276140   6.054   4.405   2.808  0.2317  0.0690 -0.0243
18242TIP3    H176141   6.049   4.439   2.719  0.6199 -1.1936 -0.5450
18242TIP3    H276142   5.965   4.373   2.826  1.0032 -3.3632 -1.5222
18243TIP3   OH276143   2.238   1.082  14.048 -0.2029 -0.3417 -0.5241
18243TIP3    H176144   2.177   1.011  14.026  0.5891 -0.8631 -1.0890
18243TIP3    H276145   2.317   1.038  14.079  0.4407  0.2731 -1.2327
18244TIP3   OH276146   2.439   5.599   0.701 -0.5574  0.2300 -0.5100
18244TIP3    H176147   2.405   5.656   0.770  2.2537  0.9026  0.4729
18244TIP3    H276148   2.474   5.660   0.635  1.5970 -0.2494  0.0886
18245TIP3   OH276149   3.208   5.386   4.696  0.1638 -0.4130  0.1189
18245TIP3    H176150   3.189   5.330   4.620  0.0596 -0.9691  0.5525
18245TIP3    H276151   3.199   5.329   4.772 -0.3928  0.2966  0.6062
18246TIP3   OH276152   4.332   1.052  13.035 -0.4110  0.8906 -0.3951
18246TIP3    H176153   4.380   1.063  12.953 -0.6926  0.4310 -0.6301
18246TIP3    H276154   4.344   1.134  13.082  1.2096  0.5341 -0.1272
18247TIP3   OH276155   6.582   2.214   0.920  0.0944 -0.4061  0.3264
18247TIP3    H176156   6.653   2.268   0.885  1.1819 -1.1128  1.3419
18247TIP3    H276157   6.510   2.274   0.934  0.9261  0.5841  0.4584
18248TIP3   OH276158   6.306   1.403   2.147  0.4191  0.3708  0.4777
18248TIP3    H176159   6.274   1.462   2.079  2.0902  0.6990 -0.0562
18248TIP3    H276160   6.241   1.332   2.149  1.0371 -0.4269 -2.5238
18249TIP3   OH276161   2.888   3.355   4.792  0.0760  0.0163  0.9491
18249TIP3    H176162   2.803   3.353   4.836 -0.6456 -0.6612 -0.3922
18249TIP3    H276163   2.898   3.446   4.763 -0.6680 -0.1055  0.2766
18250TIP3   OH276164   5.455   6.208   3.413  0.4680  0.2075  0.4177
18250TIP3    H176165   5.502   6.261   3.348 -1.5958  2.6205  0.7555
18250TIP3    H276166   5.513   6.209   3.490  1.5443 -0.0955 -0.3573
18251TIP3   OH276167   0.805   2.338   3.052 -0.2826 -0.1219  0.7209
18251TIP3    H176168   0.750   2.413   3.077  0.1975  0.4524  0.0833
18251TIP3    H276169   0.771   2.265   3.104 -0.7326  0.5472  1.3854
18252TIP3   OH276170   4.824   3.504   4.843  0.2569  0.1939  0.1423
18252TIP3    H176171   4.807   3.469   4.756  0.3439  2.2044 -0.7210
18252TIP3    H276172   4.774   3.585   4.847  1.1035  0.6857  1.5637
18253TIP3   OH276173   5.037   0.808   1.849 -0.6603 -0.6054 -0.0411
18253TIP3    H176174   5.058   0.716   1.868 -1.1155 -0.7407 -0.1914
18253TIP3    H276175   4.970   0.831   1.914 -0.7346 -0.4545 -0.1718
18254TIP3   OH276176   0.458   4.900   2.716  0.3216  0.2406  0.0890
18254TIP3    H176177   0.527   4.922   2.779 -0.0276  0.7467  0.2941
18254TIP3    H276178   0.403   4.836   2.762  0.8381 -0.4192 -0.1949
18255TIP3   OH276179   0.190   1.285   3.659  0.3011 -0.5498  0.3843
18255TIP3    H176180   0.100   1.265   3.634  0.0045  0.7265  0.3675
18255TIP3    H276181   0.223   1.340   3.588 -0.2749  2.4030  2.2172
18256TIP3   OH276182   0.997   4.534  16.531  0.3321 -0.3724  0.4332
18256TIP3    H176183   0.995   4.499  16.620 -0.7290 -1.5105 -0.0062
18256TIP3    H276184   0.905   4.546  16.508  0.5745 -0.4427 -0.6356
18257TIP3   OH276185   3.601   4.257  14.058  0.1458  0.4900 -0.8698
18257TIP3    H176186   3.629   4.275  13.969 -2.2163 -0.8393 -1.9649
18257TIP3    H276187   3.518   4.304  14.067 -0.4892 -0.7501  0.0274
18258TIP3   OH276188   4.277   6.072   2.164  0.3641  0.6768  0.2086
18258TIP3    H176189   4.199   6.120   2.136 -0.7155 -1.1974 -0.1175
18258TIP3    H276190   4.267   6.065   2.259  1.4106  2.5131  0.5132
18259TIP3   OH276191   5.892   0.063  10.901 -0.4367  0.3918  0.4190
18259TIP3    H176192   5.927   0.139  10.948 -2.3034  1.6763 -0.1457
18259TIP3    H276193   5.832   0.100  10.836 -0.8586 -1.5437 -0.3729
18260TIP3   OH276194   0.966   1.023   4.764 -0.1116 -0.1272 -0.0559
18260TIP3    H176195   0.883   0.977   4.777 -0.0563 -0.9151 -2.0936
18260TIP3    H276196   1.027   0.980   4.825 -0.9465 -0.1888  0.7574
18261TIP3   OH276197   4.549   0.398  16.118  0.0878 -0.7505 -0.1655
18261TIP3    H176198   4.632   0.385  16.072 -0.1741 -1.5117 -0.4373
18261TIP3    H276199   4.487   0.342  16.071 -0.4607 -0.5833  0.3548
18262TIP3   OH276200   4.386   6.123   0.735  0.1857  0.7239 -0.0373
18262TIP3    H176201   4.380   6.217   0.716 -0.6723  0.3504 -1.7929
18262TIP3    H276202   4.317   6.083   0.683  2.1486 -1.1568 -1.4076
18263TIP3   OH276203   5.856   1.479   1.196 -0.2165  0.6767 -0.0936
18263TIP3    H176204   5.856   1.401   1.140  0.1492 -0.4634  1.4210
18263TIP3    H276205   5.766   1.485   1.229  0.3726 -0.8828  2.0519
18264TIP3   OH276206   4.718   2.505  12.826  0.2693 -0.6028 -0.1596
18264TIP3    H176207   4.643   2.475  12.876  0.4508 -1.0351 -0.1387
18264TIP3    H276208   4.792   2.498  12.886  0.9625 -3.6193 -1.1969
18265TIP3   OH276209   2.561   3.211   1.853  0.0496 -0.0917 -0.2510
18265TIP3    H176210   2.553   3.245   1.764  0.1376 -0.4192 -0.3891
18265TIP3    H276211   2.588   3.286   1.906  1.2679 -0.1587 -0.7338
18266TIP3   OH276212   0.885   5.158  12.634 -0.2071 -0.1717  0.2030
18266TIP3    H176213   0.882   5.075  12.682  0.3063 -0.1365  0.3006
18266TIP3    H276214   0.860   5.224  12.699 -0.3792 -0.2260  0.1899
18267TIP3   OH276215   4.610   3.846  12.896  0.2435  0.2391 -0.1270
18267TIP3    H176216   4.599   3.904  12.971  1.5726 -1.1912  1.2530
18267TIP3    H276217   4.574   3.762  12.924  0.2231 -0.1705 -1.3072
18268TIP3   OH276218   2.265   3.987  15.437  0.3951 -0.4478  0.0228
18268TIP3    H176219   2.236   4.072  15.405  2.3822 -0.4204 -1.8809
18268TIP3    H276220   2.351   4.003  15.475  1.8032 -1.8672 -2.3097
18269TIP3   OH276221   2.807   2.887   3.532  0.3009 -0.1637  0.0251
18269TIP3    H176222   2.771   2.866   3.618 -0.5609 -1.1547 -0.5458
18269TIP3    H276223   2.827   2.980   3.536 -1.7560  0.3022  0.6116
18270TIP3   OH276224   5.174   3.154  11.562 -0.4459  0.5474 -0.4403
18270TIP3    H176225   5.144   3.166  11.652 -3.3085 -0.5086 -1.1292
18270TIP3    H276226   5.096   3.170  11.508  0.9300  0.2152 -2.6852
18271TIP3   OH276227   5.505   5.685  16.702 -0.1497  0.1031 -0.3735
18271TIP3    H176228   5.436   5.651  16.645  0.3096  1.8395 -2.0689
18271TIP3    H276229   5.564   5.733  16.643  0.5375  1.7285  1.5154
18272TIP3   OH276230   3.220   4.522   5.609 -0.5427  0.4193  0.1884
18272TIP3    H176231   3.217   4.608   5.650 -2.3664 -0.3998  1.9105
18272TIP3    H276232   3.254   4.464   5.677  3.1767  0.0578 -1.6991
18273TIP3   OH276233   6.593   0.869   1.036 -0.2247  0.2406 -0.6545
18273TIP3    H176234   6.580   0.896   1.126  1.1306  2.6550 -1.1095
18273TIP3    H276235   6.601   0.950   0.986  1.3129 -0.9760 -2.5855
18274TIP3   OH276236   2.828   0.759  12.085  0.5229 -0.0912  0.2103
18274TIP3    H176237   2.797   0.689  12.027 -0.4814  0.8971 -0.4954
18274TIP3    H276238   2.920   0.772  12.060 -0.3023  1.4839 -2.4778
18275TIP3   OH276239   1.443   1.904   4.695 -0.2863  0.8684 -0.4424
18275TIP3    H176240   1.506   1.869   4.632 -1.3362  1.9881 -2.1972
18275TIP3    H276241   1.357   1.884   4.657 -0.9701  1.1539  0.8915
18276TIP3   OH276242   4.013   0.657  16.639 -0.4045 -0.4777  1.0305
18276TIP3    H176243   4.067   0.735  16.649  1.8786 -1.7390 -0.6157
18276TIP3    H276244   3.951   0.679  16.569 -1.1043  0.4638  1.9054
18277TIP3   OH276245   4.624   3.780  15.949 -0.1257  0.0678 -0.4036
18277TIP3    H176246   4.656   3.758  15.862 -0.2173 -0.4047 -0.3194
18277TIP3    H276247   4.630   3.876  15.953  2.3712 -0.0231  0.0047
18278TIP3   OH276248   5.102   4.351   0.504 -0.1048 -0.2872 -0.2703
18278TIP3    H176249   5.177   4.294   0.486 -1.2462 -1.6621 -0.8306
18278TIP3    H276250   5.068   4.375   0.418 -0.5020  0.0623 -0.0187
18279TIP3   OH276251   2.524   1.409   2.835 -0.3127  0.1596  0.0730
18279TIP3    H176252   2.482   1.491   2.859  0.1306  0.6597 -0.8277
18279TIP3    H276253   2.452   1.350   2.813 -0.6366  0.2559  0.8497
18280TIP3   OH276254   4.205   4.256   6.073  0.7619 -0.3897 -0.8095
18280TIP3    H176255   4.181   4.341   6.108 -3.1884 -1.4100 -0.5858
18280TIP3    H276256   4.272   4.223   6.133  1.2224  1.8589 -0.0062
18281TIP3   OH276257   3.752   3.198  14.860 -0.1596  0.6502  0.4104
18281TIP3    H176258   3.780   3.181  14.771  1.4074 -1.3955  1.2233
18281TIP3    H276259   3.769   3.116  14.907  0.7779  2.2150  2.9881
18282TIP3   OH276260   2.107   5.573   3.667  0.6675 -0.4683  0.3165
18282TIP3    H176261   2.042   5.514   3.627  0.7535 -1.4485  1.5749
18282TIP3    H276262   2.186   5.519   3.676  2.1548  1.0329 -2.3260
18283TIP3   OH276263   4.889   4.648   1.518  0.0059  0.3270  0.4698
18283TIP3    H176264   4.904   4.565   1.472  0.0838 -1.4864  3.5102
18283TIP3    H276265   4.795   4.649   1.535 -0.1919  1.5044 -0.5581
18284TIP3   OH276266   4.207   4.129  10.711 -0.1096 -0.2633 -0.3246
18284TIP3    H176267   4.169   4.162  10.629 -0.3907 -1.1850 -0.5823
18284TIP3    H276268   4.227   4.037  10.692  0.3326 -0.3370  0.4759
18285TIP3   OH276269   4.132   4.604   0.634  0.6404 -1.2023  0.3558
18285TIP3    H176270   4.114   4.697   0.619 -0.6154 -1.6229 -0.9480
18285TIP3    H276271   4.217   4.603   0.677  0.2779  0.5974  1.2435
18286TIP3   OH276272   6.143   6.744  11.159 -0.0686 -0.3672 -0.6640
18286TIP3    H176273   6.238   6.742  11.170  0.2435 -1.0612 -2.8785
18286TIP3    H276274   6.121   6.837  11.159  0.4911 -0.2141  0.5280
18287TIP3   OH276275   2.938   1.928  16.390 -0.2373  0.2620  0.3969
18287TIP3    H176276   3.021   1.886  16.371  0.4310  2.0129 -0.9726
18287TIP3    H276277   2.937   1.941  16.484  1.1006  0.2835  0.4225
18288TIP3   OH276278   1.337   4.317   0.182 -0.2266 -0.3743 -0.1233
18288TIP3    H176279   1.317   4.340   0.091 -0.7165 -4.3012 -1.1892
18288TIP3    H276280   1.251   4.305   0.223 -0.1019 -2.0706 -0.2568
18289TIP3   OH276281   5.714   6.073  15.539 -0.0255 -0.1524  0.1114
18289TIP3    H176282   5.693   6.166  15.541 -0.6753 -0.2721 -0.8256
18289TIP3    H276283   5.682   6.039  15.622 -0.5381  0.3033  0.1027
18290TIP3   OH276284   3.163   5.810  13.294 -0.1050  0.1955 -0.2539
18290TIP3    H176285   3.255   5.834  13.278  0.4883 -0.0040  2.4549
18290TIP3    H276286   3.139   5.860  13.372 -1.9943 -0.5463 -0.3233
18291TIP3   OH276287   1.776   4.668  10.714  0.4867  0.2153  0.0430
18291TIP3    H176288   1.699   4.648  10.661 -1.7966  0.0696  3.1311
18291TIP3    H276289   1.802   4.583  10.751  1.8860  0.3391 -0.5980
18292TIP3   OH276290   2.187   1.398  12.207  0.2821 -0.0882 -0.0196
18292TIP3    H176291   2.200   1.473  12.265  0.9814 -0.1213 -0.1247
18292TIP3    H276292   2.118   1.346  12.249 -1.0234  1.1730 -0.5153
18293TIP3   OH276293   0.627   2.516  14.135  0.5626 -0.2254 -0.4100
18293TIP3    H176294   0.535   2.538  14.145  1.1105  2.0933  0.0004
18293TIP3    H276295   0.661   2.580  14.073  1.8142 -1.3374 -0.9265
18294TIP3   OH276296   3.757   3.149   1.420  0.1506 -0.0240  0.2673
18294TIP3    H176297   3.839   3.148   1.371  0.0142 -1.0414  0.0495
18294TIP3    H276298   3.699   3.205   1.368  0.8113  1.0332  0.6278
18295TIP3   OH276299   5.729   3.856  16.891 -0.3704  0.6726 -0.6450
18295TIP3    H176300   5.711   3.938  16.845 -0.3530  0.7762 -0.4661
18295TIP3    H276301   5.790   3.810  16.833 -0.8340  0.5233 -1.0301
18296TIP3   OH276302   2.852   1.016   2.291 -0.2831  0.5569  0.3391
18296TIP3    H176303   2.819   1.074   2.360  0.5521  1.9370 -0.3672
18296TIP3    H276304   2.774   0.976   2.254 -0.6949 -1.1136  2.7821
18297TIP3   OH276305   1.341   2.975   2.713  0.1876 -0.5776 -0.1540
18297TIP3    H176306   1.285   2.927   2.652  1.8736 -2.3936 -0.3552
18297TIP3    H276307   1.355   2.914   2.785 -0.7035  1.0632  1.4893
18298TIP3   OH276308   2.278   1.324   2.784 -0.2835 -0.6158  0.3538
18298TIP3    H176309   2.192   1.351   2.816 -0.6364 -0.5716 -0.5937
18298TIP3    H276310   2.260   1.282   2.700  0.4799 -1.8703  0.7982
18299TIP3   OH276311   1.515   6.345   2.163  0.2643 -0.1178 -0.0055
18299TIP3    H176312   1.579   6.378   2.227  0.3736  0.4248 -0.3846
18299TIP3    H276313   1.431   6.353   2.208  0.2200  1.2016 -0.2598
18300TIP3   OH276314   0.976   6.310   4.741  0.8355  0.1263  0.5580
18300TIP3    H176315   1.026   6.235   4.774  2.8061  1.5151  0.9226
18300TIP3    H276316   0.967   6.367   4.817  0.9865  1.0804 -0.1267
18301TIP3   OH276317   5.984   2.333   5.626  0.2975  0.1409  0.4128
18301TIP3    H176318   5.982   2.428   5.633  3.7033  0.3794 -0.0855
18301TIP3    H276319   6.060   2.306   5.678 -1.0897 -2.4385  1.3014
18302TIP3   OH276320   3.913   3.699  14.799  0.0870  0.0352 -0.2926
18302TIP3    H176321   3.903   3.746  14.882 -1.9581 -1.3884  0.3403
18302TIP3    H276322   3.857   3.746  14.738  1.8061  1.2474 -0.9976
18303TIP3   OH276323   6.585   2.885  16.048  0.2395 -0.6638  0.2890
18303TIP3    H176324   6.532   2.898  15.969  0.8748  1.4877  0.1513
18303TIP3    H276325   6.675   2.898  16.018  0.5074  0.0016  1.3469
18304TIP3   OH276326   6.320   4.197   4.557 -0.1506 -0.8643 -0.5325
18304TIP3    H176327   6.252   4.140   4.591  0.2123 -0.5915  0.6835
18304TIP3    H276328   6.380   4.212   4.631 -0.6956  1.7679 -0.5093
18305TIP3   OH276329   3.736   4.666  12.716  0.0415  0.5689  0.0317
18305TIP3    H176330   3.669   4.689  12.780  0.2726  0.9058  0.1511
18305TIP3    H276331   3.780   4.748  12.696  0.1272  0.4272 -0.3843
18306TIP3   OH276332   0.948   2.042   3.940 -0.1448 -0.4786  0.1844
18306TIP3    H176333   1.016   2.044   4.008 -1.4213 -0.9608  1.5438
18306TIP3    H276334   0.907   2.128   3.945  0.3478 -0.1863 -0.6420
18307TIP3   OH276335   0.767   0.106  11.801 -0.2009  0.1149  0.3268
18307TIP3    H176336   0.825   0.122  11.876 -1.0376 -2.6045  1.6603
18307TIP3    H276337   0.819   0.133  11.725  2.5350 -1.3698  1.5290
18308TIP3   OH276338   5.612   6.082  14.387 -0.4726  1.2229  0.2306
18308TIP3    H176339   5.613   6.041  14.474  2.2192  1.6441  0.4552
18308TIP3    H276340   5.587   6.011  14.328 -0.0362  0.3366  1.0813
18309TIP3   OH276341   4.952   6.102   3.624 -0.5254  0.6512  0.6976
18309TIP3    H176342   5.025   6.093   3.564 -0.9015  0.6184  0.2416
18309TIP3    H276343   4.984   6.160   3.694 -0.5587  1.8986 -0.2860
18310TIP3   OH276344   1.345   5.688   2.428  0.1067  0.3574  0.7393
18310TIP3    H176345   1.340   5.632   2.350 -0.7345 -0.3097  1.2533
18310TIP3    H276346   1.404   5.642   2.487 -2.0060 -1.0203  1.9200
18311TIP3   OH276347   2.429   2.735  12.044 -0.3076  0.1800  0.0423
18311TIP3    H176348   2.430   2.749  11.949  2.4605 -2.3174 -0.4389
18311TIP3    H276349   2.348   2.686  12.060  0.6898 -2.1733 -1.6189
18312TIP3   OH276350   2.447   1.467  16.525  0.1077 -0.1048  0.0960
18312TIP3    H176351   2.513   1.442  16.461 -0.9305 -0.1498 -1.0009
18312TIP3    H276352   2.431   1.560  16.507 -0.0685 -0.0759  0.3945
18313TIP3   OH276353   1.519   1.644   3.194 -0.0545 -0.0583  0.4473
18313TIP3    H176354   1.513   1.735   3.166 -1.2338 -0.3630 -0.3352
18313TIP3    H276355   1.583   1.605   3.135 -0.5803 -0.0631 -0.1256
18314TIP3   OH276356   3.170   4.033  11.907 -0.2396  0.0791 -0.1769
18314TIP3    H176357   3.238   4.096  11.881 -1.1474  1.3312  0.3634
18314TIP3    H276358   3.213   3.974  11.968  0.3040  1.0267  0.3736
18315TIP3   OH276359   3.795   0.333   1.444  0.2739 -0.4264 -0.0232
18315TIP3    H176360   3.860   0.388   1.400  2.1096 -3.7719 -1.9329
18315TIP3    H276361   3.722   0.328   1.383 -0.3823  0.7150  0.6488
18316TIP3   OH276362   4.259   1.314  14.433  0.1579  0.1817 -0.1372
18316TIP3    H176363   4.250   1.344  14.523 -1.9322  0.7266 -0.4839
18316TIP3    H276364   4.304   1.230  14.441  0.8274  0.6384  1.3199
18317TIP3   OH276365   5.772   1.891   1.227  0.0412  0.3396 -0.1814
18317TIP3    H176366   5.853   1.840   1.215 -0.4748 -0.6181  0.2778
18317TIP3    H276367   5.775   1.957   1.158  1.1158  0.1785 -0.3025
18318TIP3   OH276368   0.382   5.970   4.395  0.0027  0.0103 -0.0160
18318TIP3    H176369   0.397   5.878   4.373  0.5759  0.4377 -1.5619
18318TIP3    H276370   0.427   5.982   4.479  0.3520 -0.9906 -0.0454
18319TIP3   OH276371   3.791   6.017  12.819  0.5543 -0.1202  0.0280
18319TIP3    H176372   3.732   6.042  12.890 -0.2926  1.1125 -1.0549
18319TIP3    H276373   3.807   6.098  12.772  0.0563 -1.0907 -1.9354
18320TIP3   OH276374   5.841   0.872  11.801  0.1548 -0.4235 -0.0276
18320TIP3    H176375   5.816   0.792  11.754  0.2069 -0.3957 -0.1045
18320TIP3    H276376   5.763   0.927  11.798 -0.1921 -0.8546  0.8624
18321TIP3   OH276377   5.675   4.581   0.603  0.5763  0.1264 -0.2101
18321TIP3    H176378   5.639   4.636   0.533 -0.1149  1.0072  0.8251
18321TIP3    H276379   5.712   4.642   0.666  0.0281 -0.5860  0.8394
18322TIP3   OH276380   2.014   0.975   4.646  0.0274 -0.3310 -1.2486
18322TIP3    H176381   1.972   1.040   4.589  2.5147  0.2272 -2.6119
18322TIP3    H276382   2.059   1.027   4.712 -1.7259 -0.9363  0.5084
18323TIP3   OH276383   0.838   2.247  12.296 -0.7601 -0.2094 -0.5876
18323TIP3    H176384   0.826   2.319  12.234 -1.2635  0.2888  0.0715
18323TIP3    H276385   0.921   2.264  12.338 -0.9497  0.0714 -0.3260
18324TIP3   OH276386   3.949   5.662  13.338 -0.1291 -0.7407 -0.6286
18324TIP3    H176387   3.942   5.623  13.426  0.4472 -0.9002 -0.6498
18324TIP3    H276388   3.935   5.755  13.353  1.3595 -0.5633 -0.1424
18325TIP3   OH276389   4.040   0.207   4.383 -0.4703 -0.7567  0.3722
18325TIP3    H176390   3.986   0.147   4.332 -0.5630 -1.1996  0.9725
18325TIP3    H276391   3.982   0.281   4.403 -0.4523 -0.6140 -0.0968
18326TIP3   OH276392   6.721   6.683   4.355  0.0290 -0.7352  0.4128
18326TIP3    H176393   6.671   6.681   4.437 -0.7596  1.5454  0.0581
18326TIP3    H276394   6.808   6.715   4.381 -0.7241  1.6644  0.2148
18327TIP3   OH276395   2.597   4.271   4.298 -0.1859 -0.0542 -0.1104
18327TIP3    H176396   2.684   4.307   4.315 -0.0006 -0.0371 -1.0327
18327TIP3    H276397   2.584   4.283   4.204 -0.7208 -1.0802 -0.1867
18328TIP3   OH276398   3.434   3.260  13.250  0.1324  0.7777 -0.3265
18328TIP3    H176399   3.520   3.226  13.225  0.0222 -0.4785  0.8933
18328TIP3    H276400   3.422   3.338  13.195  0.2193 -1.2829 -3.5890
18329TIP3   OH276401   5.373   5.539   2.103  0.1030 -0.3414 -0.2289
18329TIP3    H176402   5.390   5.474   2.036  0.3893 -1.2670  0.7136
18329TIP3    H276403   5.455   5.545   2.152 -0.6612 -1.1278  1.2288
18330TIP3   OH276404   0.834   1.920  15.298  0.2879  0.0803 -0.4821
18330TIP3    H176405   0.889   1.842  15.289  0.9358  0.2150  1.7639
18330TIP3    H276406   0.744   1.886  15.303  0.6174 -0.6315  1.2159
18331TIP3   OH276407   2.486   0.697  12.794 -0.1115  0.4435 -0.5626
18331TIP3    H176408   2.509   0.715  12.703  1.7642  0.0995 -0.2043
18331TIP3    H276409   2.550   0.631  12.822 -0.7653  0.4145  0.9499
18332TIP3   OH276410   0.079   1.852  14.052 -0.2526 -0.7702  0.1585
18332TIP3    H176411  -0.003   1.891  14.082  0.1990  2.2186 -2.0559
18332TIP3    H276412   0.141   1.871  14.122 -0.5504  0.6498  0.0626
18333TIP3   OH276413   3.508   2.044  14.636 -0.0341  0.2187 -0.5093
18333TIP3    H176414   3.450   2.106  14.593  1.2900 -1.0139 -4.4733
18333TIP3    H276415   3.459   1.961  14.635  0.1619  0.0858  0.1186
18334TIP3   OH276416   0.553   0.401   1.962  0.0788  0.1826 -0.0025
18334TIP3    H176417   0.563   0.311   1.992 -0.4280 -0.2071 -0.9565
18334TIP3    H276418   0.458   0.413   1.954  0.1116  1.0207  0.7446
18335TIP3   OH276419   0.089   2.756  12.600  0.4137  0.5169 -0.0760
18335TIP3    H176420   0.072   2.704  12.522 -1.7680 -0.3174  0.8833
18335TIP3    H276421   0.013   2.815  12.606  1.3547  1.7150  0.5405
18336TIP3   OH276422   3.876   6.669   4.661  0.6100  0.2224  0.0697
18336TIP3    H176423   3.969   6.693   4.665  0.1314  2.4009 -0.7173
18336TIP3    H276424   3.830   6.745   4.695 -1.0333  0.6016 -2.6969
18337TIP3   OH276425   1.279   1.678   4.895 -0.4013  0.7889 -0.1674
18337TIP3    H176426   1.237   1.758   4.928  0.9926  0.9919  1.2395
18337TIP3    H276427   1.364   1.707   4.862  0.4632 -0.1838  1.0921
18338TIP3   OH276428   1.667   4.650  11.735  0.7846 -0.0973 -0.3487
18338TIP3    H176429   1.605   4.628  11.805  0.2433  0.4966 -0.6302
18338TIP3    H276430   1.726   4.714  11.775 -0.2119  1.1160 -0.7247
18339TIP3   OH276431   6.520   2.570   4.132  0.3186 -0.4725 -0.2166
18339TIP3    H176432   6.481   2.485   4.115 -1.6817  0.1744  0.8055
18339TIP3    H276433   6.500   2.622   4.054  0.5678 -0.6071 -0.3720
18340TIP3   OH276434   4.985   2.953   1.234 -0.1345 -0.1003  0.0567
18340TIP3    H176435   5.058   3.011   1.255 -2.2192  2.5311  0.6190
18340TIP3    H276436   4.907   3.007   1.247 -2.1242 -1.8716 -3.1433
18341TIP3   OH276437   0.919   0.115  16.406  0.5796  0.0925  0.6301
18341TIP3    H176438   0.837   0.163  16.393  0.8700  0.6132  0.6930
18341TIP3    H276439   0.930   0.112  16.501  1.4589  1.4841  0.6147
18342TIP3   OH276440   3.252   3.234   1.081 -0.2295 -0.0195  0.0105
18342TIP3    H176441   3.272   3.253   1.172 -0.1546 -0.5305  0.1033
18342TIP3    H276442   3.248   3.138   1.076 -0.1687 -0.0010 -0.5342
18343TIP3   OH276443   4.876   2.740  11.685  0.2064  0.0145 -0.1283
18343TIP3    H176444   4.821   2.816  11.665  0.1073 -0.1569 -0.5143
18343TIP3    H276445   4.849   2.673  11.622 -0.1965 -0.5840  0.6476
18344TIP3   OH276446   4.743   4.992  14.597  0.2929  0.3438 -0.1215
18344TIP3    H176447   4.827   4.996  14.642  1.3573  0.7051 -2.0526
18344TIP3    H276448   4.718   4.899  14.603  0.7981  0.2386  0.4978
18345TIP3   OH276449   1.778   1.032  16.987  0.5594  0.6088  0.3898
18345TIP3    H176450   1.724   1.107  16.963  0.7311  0.8156  0.6346
18345TIP3    H276451   1.868   1.060  16.968  0.5610  0.1641 -0.2817
18346TIP3   OH276452   0.853   5.722  15.687 -0.2097  0.2022  0.3560
18346TIP3    H176453   0.765   5.754  15.706  0.3432  2.6784 -0.7935
18346TIP3    H276454   0.911   5.781  15.737  0.8320 -1.0140  0.6356
18347TIP3   OH276455   2.438   2.535   6.485  0.5723  0.1223  0.3822
18347TIP3    H176456   2.494   2.465   6.519  0.4293  0.9031  2.4127
18347TIP3    H276457   2.353   2.493   6.472  0.9395 -0.4725 -0.1228
18348TIP3   OH276458   3.624   4.970   0.623 -0.1428  0.0395 -0.8257
18348TIP3    H176459   3.595   5.049   0.577 -0.6429  0.7578  0.6510
18348TIP3    H276460   3.571   4.969   0.703  0.9081 -0.9878 -0.1266
18349TIP3   OH276461   4.592   0.936   3.907 -0.0096  0.4737  0.1523
18349TIP3    H176462   4.656   0.864   3.905  0.0952  0.5712 -1.5946
18349TIP3    H276463   4.545   0.925   3.990  0.7794 -0.9146  0.4381
18350TIP3   OH276464   1.136   4.801   5.791 -0.6040 -0.2244  0.2781
18350TIP3    H176465   1.160   4.867   5.726  1.0320 -1.1355 -0.1113
18350TIP3    H276466   1.220   4.766   5.821 -1.3983 -1.1387  1.5018
18351TIP3   OH276467   5.325   1.298  12.947  0.5990  0.3209 -0.4668
18351TIP3    H176468   5.293   1.346  13.024  2.2345 -0.0120  0.4688
18351TIP3    H276469   5.320   1.361  12.875 -0.1799  0.9095  0.0896
18352TIP3   OH276470   2.433   2.201  11.810  0.5097 -0.4313 -0.2041
18352TIP3    H176471   2.395   2.137  11.870 -0.4899 -0.0982 -0.4735
18352TIP3    H276472   2.361   2.226  11.753  0.6475  1.6425  0.4744
18353TIP3   OH276473   4.741   5.750  13.901 -0.0225 -0.1391  0.2990
18353TIP3    H176474   4.701   5.792  13.978 -0.6849 -1.0208  0.4581
18353TIP3    H276475   4.835   5.753  13.918 -0.0581  1.1122  0.3784
18354TIP3   OH276476   1.320   1.349  15.738 -0.5473  0.4066  0.0631
18354TIP3    H176477   1.331   1.271  15.684  0.2629 -0.6069  1.6263
18354TIP3    H276478   1.408   1.368  15.771 -0.3356  3.1004 -1.6889
18355TIP3   OH276479   2.071   2.285  17.002  0.2204 -0.1398  0.0062
18355TIP3    H176480   2.016   2.353  17.041 -1.1897 -1.4273  0.3558
18355TIP3    H276481   2.016   2.245  16.935  1.5083 -0.0647 -1.1613
18356TIP3   OH276482   5.850   2.917  14.202 -0.1858 -0.1768  0.7149
18356TIP3    H176483   5.857   2.966  14.120  1.1384 -2.2536 -0.5119
18356TIP3    H276484   5.766   2.870  14.195  1.4767 -3.2338 -1.3257
18357TIP3   OH276485   4.178   1.774  16.607  0.1880  0.4167  0.0744
18357TIP3    H176486   4.189   1.804  16.517  1.1116  1.7441  0.5889
18357TIP3    H276487   4.090   1.736  16.609  0.0779  0.5338 -1.3291
18358TIP3   OH276488   3.348   4.342  14.175 -0.0817  0.2171 -0.6551
18358TIP3    H176489   3.358   4.419  14.231  1.0155 -0.6667  0.4305
18358TIP3    H276490   3.279   4.291  14.216 -0.1513  0.1750 -0.8257
18359TIP3   OH276491   0.456   0.417   0.895  0.5229  0.0335  0.0909
18359TIP3    H176492   0.471   0.498   0.847 -0.9216  1.1855  1.4928
18359TIP3    H276493   0.536   0.404   0.947  0.9513  0.2857 -0.4992
18360TIP3   OH276494   6.127   1.415  15.058  0.1613  0.1443 -0.5780
18360TIP3    H176495   6.201   1.468  15.088 -0.4184  1.7468 -1.8453
18360TIP3    H276496   6.162   1.366  14.983  0.1033  0.4422 -0.8014
18361TIP3   OH276497   2.408   2.815   3.931 -0.1460 -0.0936 -0.4306
18361TIP3    H176498   2.393   2.804   4.025 -1.0242 -0.9767 -0.6514
18361TIP3    H276499   2.410   2.725   3.897 -1.9620  0.2294 -1.5427
18362TIP3   OH276500   5.511   1.563  12.012 -0.0335 -0.2000 -0.5442
18362TIP3    H176501   5.499   1.471  12.037 -0.4077  0.1360  0.5694
18362TIP3    H276502   5.560   1.559  11.930 -0.2478 -1.3997 -0.6407
18363TIP3   OH276503   0.411   3.124  11.760 -0.1391 -0.3526 -0.1426
18363TIP3    H176504   0.362   3.151  11.682 -0.3524  0.1339  0.1500
18363TIP3    H276505   0.495   3.094  11.727  0.0782  0.6077 -0.5083
18364TIP3   OH276506   4.882   1.711  11.631 -0.1993  0.2473 -0.5169
18364TIP3    H176507   4.827   1.759  11.693 -0.5388  0.5089 -1.0045
18364TIP3    H276508   4.856   1.746  11.545  0.3919  0.0278 -0.7896
18365TIP3   OH276509   6.615   0.255   2.505 -0.2730  0.6394  0.1858
18365TIP3    H176510   6.654   0.309   2.574  0.5595  0.3966 -0.0815
18365TIP3    H276511   6.522   0.252   2.527 -0.6456  3.4715 -0.6129
18366TIP3   OH276512   1.482   3.191  13.696 -0.6419  0.2864 -0.1061
18366TIP3    H176513   1.397   3.147  13.703  0.2810 -1.3650  2.2313
18366TIP3    H276514   1.495   3.230  13.782  0.9865  0.4268 -0.3902
18367TIP3   OH276515   0.541   5.372   3.732  0.2738 -0.3173 -0.2276
18367TIP3    H176516   0.452   5.345   3.755  0.2902 -0.7533 -0.6491
18367TIP3    H276517   0.538   5.388   3.637  0.7151 -0.6275 -0.2988
18368TIP3   OH276518   5.158   3.863  16.520 -0.3347 -0.2042  0.3724
18368TIP3    H176519   5.149   3.948  16.476  1.0312 -1.3916 -2.4219
18368TIP3    H276520   5.217   3.880  16.593  2.1039  0.8560 -1.6978
18369TIP3   OH276521   2.272   2.735   4.686 -0.2838  0.1395  0.9847
18369TIP3    H176522   2.280   2.784   4.768 -0.7614  1.0226  0.5199
18369TIP3    H276523   2.279   2.643   4.712  1.3083  0.4628  1.7916
18370TIP3   OH276524   2.664   3.263   3.712 -0.5643  0.3753  0.5811
18370TIP3    H176525   2.736   3.229   3.766 -1.7668 -0.0266  2.0262
18370TIP3    H276526   2.706   3.319   3.647  1.0817 -0.2354  1.0717
18371TIP3   OH276527   2.061   2.357   4.829 -0.4836 -0.1171  0.7256
18371TIP3    H176528   2.042   2.307   4.750 -1.0302  1.4015 -0.1467
18371TIP3    H276529   2.082   2.291   4.895  1.8591 -1.4091 -1.1452
18372TIP3   OH276530   2.423   4.052   4.339 -0.1080 -0.1670  0.0827
18372TIP3    H176531   2.344   4.095   4.305  1.2680  1.4562 -1.2169
18372TIP3    H276532   2.492   4.118   4.331  1.3994 -1.5169  1.2392
18373TIP3   OH276533   4.059   3.070   3.739  0.4337  0.5498 -0.3276
18373TIP3    H176534   4.034   3.144   3.685 -2.2116  1.3725  1.8108
18373TIP3    H276535   4.037   3.097   3.828  0.8758 -2.2067  0.7151
18374TIP3   OH276536   4.252   6.324  15.918  0.0060  0.4173 -0.2693
18374TIP3    H176537   4.256   6.302  16.011 -0.5078  0.1291 -0.3129
18374TIP3    H276538   4.319   6.391  15.907  0.4038  0.1123  0.2127
18375TIP3   OH276539   5.347   5.786   2.337 -0.1455 -0.0431  0.5507
18375TIP3    H176540   5.253   5.781   2.355 -0.1270  1.7227  1.2914
18375TIP3    H276541   5.355   5.853   2.269  0.5195 -0.9390 -0.2982
18376TIP3   OH276542   6.111   6.360  14.079 -0.0407 -0.0671 -0.1111
18376TIP3    H176543   6.139   6.373  13.988  0.6634  1.1519  0.2693
18376TIP3    H276544   6.161   6.424  14.129 -2.4845  1.2594  0.7789
18377TIP3   OH276545   5.338   1.682   1.066  0.3068  0.3839  0.3383
18377TIP3    H176546   5.385   1.716   1.141  2.3951  0.8336 -1.0874
18377TIP3    H276547   5.393   1.610   1.033 -0.9299 -0.3005 -0.3293
18378TIP3   OH276548   1.705   3.353   4.579 -0.3809 -0.1965 -1.1036
18378TIP3    H176549   1.726   3.417   4.646  1.1635 -0.6330 -1.1313
18378TIP3    H276550   1.785   3.302   4.568 -1.7531 -2.6906 -0.4770
18379TIP3   OH276551   5.413   3.384   4.722  0.3099 -0.2686 -0.2483
18379TIP3    H176552   5.334   3.341   4.689 -0.8341  1.6492 -0.1703
18379TIP3    H276553   5.411   3.367   4.817  0.0289 -0.2846 -0.2561
18380TIP3   OH276554   4.892   0.114  11.722 -0.3523  0.4297  0.6678
18380TIP3    H176555   4.936   0.175  11.663  0.9133 -0.4549  0.6454
18380TIP3    H276556   4.869   0.039  11.668 -2.0745  0.9205  0.6549
18381TIP3   OH276557   3.012   6.333   6.100  0.5388  0.9656  0.3017
18381TIP3    H176558   3.093   6.383   6.108  0.5508  0.7043  2.4054
18381TIP3    H276559   3.031   6.269   6.031  2.5988  0.0951  1.5754
18382TIP3   OH276560   4.953   5.304  14.588  0.2617  0.5084 -0.3029
18382TIP3    H176561   5.021   5.237  14.597  1.2132  1.2998 -1.3840
18382TIP3    H276562   4.883   5.274  14.647  1.5621 -0.2732  0.9210
18383TIP3   OH276563   1.681   0.065  10.908 -0.1545  0.0381  0.0816
18383TIP3    H176564   1.697   0.150  10.869  1.0124 -0.3360 -0.3100
18383TIP3    H276565   1.588   0.065  10.930 -0.6658  0.6054 -1.8727
18384TIP3   OH276566   2.818   6.364   6.288  0.3282 -0.3663  0.4322
18384TIP3    H176567   2.904   6.363   6.244  1.0126  1.8699  1.6232
18384TIP3    H276568   2.760   6.406   6.225 -0.0248 -2.1140 -0.4840
18385TIP3   OH276569   2.683   5.263   1.318  0.7625 -0.3920  0.2456
18385TIP3    H176570   2.770   5.240   1.350  1.1491  1.6774  0.8412
18385TIP3    H276571   2.692   5.353   1.286 -1.2114 -0.0105  0.6094
18386TIP3   OH276572   6.690   3.863   1.189  0.3982 -0.2439  0.2047
18386TIP3    H176573   6.734   3.779   1.175  0.1604 -0.1452 -1.2742
18386TIP3    H276574   6.703   3.910   1.107  0.6943  1.2582  1.0738
18387TIP3   OH276575   3.743   4.420   0.168 -0.2657 -0.3536  0.5748
18387TIP3    H176576   3.778   4.468   0.243  0.2031 -1.8000  1.3273
18387TIP3    H276577   3.662   4.466   0.145  0.6746  1.4115  0.5554
18388TIP3   OH276578   6.027   4.444   4.359 -0.1434  0.4179  0.3629
18388TIP3    H176579   6.008   4.361   4.404 -0.2908  0.0804 -0.3133
18388TIP3    H276580   5.952   4.458   4.302  0.3359  0.5167 -0.2526
18389TIP3   OH276581   5.450   6.566   1.825 -0.0170  0.4518  0.1784
18389TIP3    H176582   5.495   6.559   1.741 -0.4968  0.2984 -0.0671
18389TIP3    H276583   5.484   6.493   1.877  0.3779  0.6236  0.1683
18390TIP3   OH276584   3.456   3.468  16.715  0.4480 -0.2901 -0.1305
18390TIP3    H176585   3.508   3.414  16.655  1.0944  0.9058 -0.6793
18390TIP3    H276586   3.456   3.555  16.675  0.2054  0.3404  1.1948
18391TIP3   OH276587   3.821   5.062   3.191 -0.1523 -0.2979 -0.5910
18391TIP3    H176588   3.872   4.994   3.148 -1.8050 -1.9887 -0.0093
18391TIP3    H276589   3.857   5.066   3.280 -0.3138 -0.7433 -0.5003
18392TIP3   OH276590   3.057   0.645  17.049 -0.3420  0.4145 -0.4056
18392TIP3    H176591   3.017   0.558  17.059  3.0443 -1.2606  0.1528
18392TIP3    H276592   3.019   0.697  17.120 -0.2593 -1.5974  1.1984
18393TIP3   OH276593   2.277   0.595  14.718 -0.6647  0.9509 -0.0330
18393TIP3    H176594   2.223   0.573  14.642 -2.0371 -0.0573  1.1670
18393TIP3    H276595   2.295   0.688  14.709 -0.5737  0.7944 -1.7184
18394TIP3   OH276596   5.140   0.281   1.590 -0.6154 -0.5208  0.7601
18394TIP3    H176597   5.132   0.219   1.517  0.7377  0.6195 -0.4187
18394TIP3    H276598   5.184   0.231   1.658 -1.1996 -1.3870  0.5261
18395TIP3   OH276599   1.698   4.752  12.610 -0.0378  0.3782  0.6144
18395TIP3    H176600   1.755   4.701  12.668 -0.7653 -0.0893  0.9431
18395TIP3    H276601   1.650   4.685  12.560 -1.0652  0.7315  1.1063
18396TIP3   OH276602   0.989   1.932  16.412  0.2629  0.1374  0.1394
18396TIP3    H176603   0.954   1.881  16.485  1.6838  0.6576  1.2439
18396TIP3    H276604   1.001   1.868  16.342 -1.2458 -0.3510  0.2917
18397TIP3   OH276605   5.866   1.654  16.757 -0.1397 -0.2393 -0.0938
18397TIP3    H176606   5.797   1.675  16.694 -1.2212 -0.4785  0.9572
18397TIP3    H276607   5.947   1.683  16.716 -1.0906  2.0992 -0.4548
18398TIP3   OH276608   0.927   4.091  16.121 -0.0877  0.6120 -0.0538
18398TIP3    H176609   0.996   4.113  16.059  0.7121  1.8162  1.2102
18398TIP3    H276610   0.949   4.002  16.151 -1.3842 -0.6678 -2.5936
18399TIP3   OH276611   5.791   6.076  15.074 -0.9087  0.2034  0.7459
18399TIP3    H176612   5.701   6.053  15.050 -1.1595  1.7103  0.0953
18399TIP3    H276613   5.815   6.013  15.142 -2.5066 -0.1280  1.0411
18400TIP3   OH276614   3.243   4.415   3.185  0.4072 -0.1257  0.4334
18400TIP3    H176615   3.184   4.378   3.120  1.4440  0.6162 -1.0128
18400TIP3    H276616   3.276   4.495   3.143  0.3155  0.9482  2.3200
18401TIP3   OH276617   3.500   1.326  12.577  0.4593 -0.4607  0.2071
18401TIP3    H176618   3.413   1.289  12.560  0.5636 -1.6515  1.9888
18401TIP3    H276619   3.532   1.277  12.653  1.9710  1.1489  0.6616
18402TIP3   OH276620   2.700   6.372  15.504  0.3746 -1.0127 -0.2115
18402TIP3    H176621   2.760   6.436  15.541 -1.6882  0.9061  0.0429
18402TIP3    H276622   2.634   6.358  15.573 -2.5720  1.2829 -2.2789
18403TIP3   OH276623   3.708   1.005  16.356 -0.3318 -0.3237 -0.1869
18403TIP3    H176624   3.680   1.050  16.435  0.3017 -0.4906  0.1449
18403TIP3    H276625   3.701   0.912  16.377  2.3439 -0.4263  0.6712
18404TIP3   OH276626   0.184   0.072   0.409  0.0828 -0.8038 -0.2719
18404TIP3    H176627   0.213   0.089   0.319  0.9779 -0.7918  0.0113
18404TIP3    H276628   0.133  -0.009   0.403 -1.1746  0.0194 -1.0359
18405TIP3   OH276629   1.021   0.582  17.079 -0.1505  0.5005 -0.0109
18405TIP3    H176630   0.961   0.529  17.132 -0.4205  1.6728  0.9087
18405TIP3    H276631   0.963   0.635  17.024  0.1139 -0.0504 -0.8291
18406TIP3   OH276632   6.295   0.348   4.510 -0.3068  0.2326  0.0378
18406TIP3    H176633   6.220   0.385   4.557 -1.9254  0.3912 -2.4470
18406TIP3    H276634   6.260   0.269   4.468  1.4682 -0.7572  0.3308
18407TIP3   OH276635   5.063   0.567  12.303 -0.2395 -0.0155 -0.2601
18407TIP3    H176636   5.012   0.617  12.240  0.8733  0.1352 -1.0617
18407TIP3    H276637   5.099   0.633  12.362  1.5789  0.2369 -1.5702
18408TIP3   OH276638   1.022   1.552  17.375 -0.3246  0.2178 -0.0785
18408TIP3    H176639   1.093   1.503  17.333 -0.7589  1.8018 -2.9606
18408TIP3    H276640   0.947   1.492  17.372  0.1301 -0.3647  0.1111
18409TIP3   OH276641   0.655   1.870  11.674 -0.2580 -0.2075  0.3149
18409TIP3    H176642   0.689   1.788  11.638 -1.0208 -0.3784 -0.0312
18409TIP3    H276643   0.572   1.846  11.714 -2.0454  0.8939 -2.4666
18410TIP3   OH276644   0.444   0.313   4.451  0.4716 -0.3461 -0.2792
18410TIP3    H176645   0.415   0.228   4.484  1.4574  0.0069  1.6504
18410TIP3    H276646   0.364   0.357   4.424 -0.5297 -0.5018  2.1775
18411TIP3   OH276647   2.445   0.241   6.060 -0.3981  0.2645 -0.3562
18411TIP3    H176648   2.460   0.154   6.098 -3.3984 -0.4452 -0.5771
18411TIP3    H276649   2.458   0.301   6.134 -2.1078 -0.7422  0.8436
18412TIP3   OH276650   4.117   3.457  17.119 -0.8744  0.1437  0.0861
18412TIP3    H176651   4.192   3.426  17.068 -0.5749 -0.2782  0.7705
18412TIP3    H276652   4.089   3.536  17.074  0.4300  0.7092  0.2274
18413TIP3   OH276653   3.136   0.589   3.493  0.5167 -0.1252 -0.0190
18413TIP3    H176654   3.177   0.598   3.579 -1.4368 -0.8012  1.0377
18413TIP3    H276655   3.127   0.495   3.481  0.7729 -0.0322 -0.9711
18414TIP3   OH276656   5.952   1.208  15.115 -0.3226  0.6764  0.3251
18414TIP3    H176657   5.900   1.211  15.035 -1.1013 -0.8422  0.7503
18414TIP3    H276658   6.013   1.282  15.107 -1.9569  1.9910 -0.5792
18415TIP3   OH276659   6.544   4.203  16.724 -0.7334  0.5325  0.4292
18415TIP3    H176660   6.450   4.213  16.738 -0.6656  2.4453 -0.1929
18415TIP3    H276661   6.584   4.277  16.770  0.4182  0.1512  0.0975
18416TIP3   OH276662   2.331   0.128  16.004 -0.0219 -0.1331 -0.3009
18416TIP3    H176663   2.277   0.203  16.031  0.8054  0.0526  0.9503
18416TIP3    H276664   2.353   0.146  15.913 -1.6228  0.0404 -0.6842
18417TIP3   OH276665   4.881   0.266   4.907  0.1677  0.0490 -0.2081
18417TIP3    H176666   4.827   0.192   4.879  0.2772 -0.0851 -0.0674
18417TIP3    H276667   4.968   0.229   4.918  0.1551  0.1309  0.1733
18418TIP3   OH276668   1.356   3.747   2.782  0.4384 -0.5613  0.1494
18418TIP3    H176669   1.329   3.656   2.792 -1.8232  0.0126 -0.2202
18418TIP3    H276670   1.317   3.775   2.699  1.6418  0.5741 -0.0764
18419TIP3   OH276671   4.060   2.951  12.611 -0.4813  0.1471 -0.5576
18419TIP3    H176672   4.017   3.010  12.550 -0.6648  1.7634  1.0492
18419TIP3    H276673   4.093   2.879  12.557 -2.3152  0.5187 -2.2629
18420TIP3   OH276674   5.219   2.282  12.445 -0.4624 -0.2504 -0.5971
18420TIP3    H176675   5.242   2.220  12.375 -0.4994 -0.2988 -0.5666
18420TIP3    H276676   5.129   2.307  12.427 -1.5395 -2.5233  1.0652
18421TIP3   OH276677   1.585   3.191  14.738  0.6178  0.6704 -0.0348
18421TIP3    H176678   1.645   3.196  14.664  1.2984  0.6844  0.5013
18421TIP3    H276679   1.595   3.102  14.772 -2.3845 -0.6289 -2.1237
18422TIP3   OH276680   1.556   2.800  12.445  0.9767  0.0927 -0.3098
18422TIP3    H176681   1.565   2.849  12.527  0.5123 -0.8357  0.3110
18422TIP3    H276682   1.472   2.754  12.454  0.2768  0.9840 -1.8618
18423TIP3   OH276683   4.234   4.207  13.786 -0.1160 -0.1136  0.3781
18423TIP3    H176684   4.164   4.264  13.753  0.0039  1.2974  2.3708
18423TIP3    H276685   4.206   4.119  13.761 -1.0555  0.6640 -1.5244
18424TIP3   OH276686   6.596   3.869   2.307  0.2231  0.0428 -0.4696
18424TIP3    H176687   6.687   3.844   2.291  0.1754 -0.4974  0.0674
18424TIP3    H276688   6.598   3.964   2.316  0.5998  0.1211 -1.3311
18425TIP3   OH276689   2.044   3.234  14.969 -0.3012  0.3666 -0.2605
18425TIP3    H176690   1.951   3.257  14.971 -0.2830  0.6796  2.9432
18425TIP3    H276691   2.088   3.316  14.947 -0.7232  0.2261 -1.7616
18426TIP3   OH276692   1.543   1.612  11.710 -0.1098 -0.0002 -0.2660
18426TIP3    H176693   1.568   1.704  11.705 -1.2099  0.4299  1.2428
18426TIP3    H276694   1.533   1.595  11.804 -3.1124 -0.7272 -0.6165
18427TIP3   OH276695   3.893   0.282  17.022  0.2135  0.1197 -0.0273
18427TIP3    H176696   3.887   0.309  16.930  2.9357 -1.0851 -0.6579
18427TIP3    H276697   3.919   0.190  17.018 -2.6106 -0.8824  2.0360
18428TIP3   OH276698   5.693   5.407   5.395 -0.2521  0.1280 -0.1518
18428TIP3    H176699   5.647   5.489   5.374  0.1769  0.8469  1.5409
18428TIP3    H276700   5.639   5.338   5.356 -1.9185  1.0542  0.4316
18429TIP3   OH276701   5.860   2.564  15.903  0.1715 -0.3008 -0.0594
18429TIP3    H176702   5.921   2.506  15.949 -0.3088 -0.1584  0.7737
18429TIP3    H276703   5.870   2.649  15.945  2.5030  0.9081 -2.6896
18430TIP3   OH276704   6.685   6.482  13.379  0.4673 -0.3527 -0.0324
18430TIP3    H176705   6.611   6.421  13.383  0.2010 -0.0053  0.3112
18430TIP3    H276706   6.684   6.515  13.289 -0.3555  0.3466  0.2224
18431TIP3   OH276707   1.446   5.704  17.374 -0.3045 -0.7617  0.6443
18431TIP3    H176708   1.468   5.615  17.346 -0.3886 -0.9146  1.0609
18431TIP3    H276709   1.449   5.701  17.469 -0.6813 -0.4129  0.6703
18432TIP3   OH276710   4.848   5.930   1.422 -0.0311 -0.3584 -0.5985
18432TIP3    H176711   4.910   5.861   1.398 -1.9350 -2.0425 -0.9275
18432TIP3    H276712   4.866   5.948   1.515  2.7571  1.2424 -1.3421
18433TIP3   OH276713   5.405   2.497   2.353 -0.3961  0.2222 -0.3834
18433TIP3    H176714   5.456   2.570   2.388  0.2715 -0.0606 -0.7536
18433TIP3    H276715   5.353   2.466   2.427  0.2453  0.2770  0.0955
18434TIP3   OH276716   5.611   3.726  15.314 -0.3366  0.0453 -0.8116
18434TIP3    H176717   5.624   3.768  15.229 -0.5179  1.1848 -0.2885
18434TIP3    H276718   5.516   3.727  15.327 -0.2175  1.1501  0.0293
18435TIP3   OH276719   0.626   3.502  16.625 -0.3623  0.1918 -0.1844
18435TIP3    H176720   0.650   3.448  16.701 -0.8187 -2.4664 -1.8001
18435TIP3    H276721   0.532   3.516  16.634 -0.0737  1.7165  0.7835
18436TIP3   OH276722   5.822   0.731  16.047 -0.2806  0.3400 -0.9864
18436TIP3    H176723   5.807   0.780  15.966 -1.3111 -0.4933 -1.3374
18436TIP3    H276724   5.904   0.765  16.082 -1.0739  2.4588 -1.0794
18437TIP3   OH276725   4.879   2.363  11.231  0.3364  0.6567  0.5020
18437TIP3    H176726   4.951   2.346  11.170 -0.0351  1.2374 -0.1098
18437TIP3    H276727   4.853   2.453  11.212  0.2588  0.8685  1.5743
18438TIP3   OH276728   1.311   2.825   4.749 -0.1603 -0.2486  0.0310
18438TIP3    H176729   1.298   2.743   4.795  1.0582  0.2779  1.3923
18438TIP3    H276730   1.235   2.878   4.773  1.8574  1.2028  4.2862
18439TIP3   OH276731   1.228   3.124   4.816  0.0649  0.1885 -0.5023
18439TIP3    H176732   1.226   3.189   4.886  0.3783  0.1618 -0.4654
18439TIP3    H276733   1.320   3.096   4.812 -0.4506 -1.9780  1.0644
18440TIP3   OH276734   0.177   2.831  11.745  0.3114  0.2379 -0.0682
18440TIP3    H176735   0.091   2.819  11.786  0.1006 -0.4536 -0.6831
18440TIP3    H276736   0.236   2.846  11.818 -0.4869  1.8233  0.3082
18441TIP3   OH276737   1.950   0.556   4.993 -0.4551  0.0505  0.1355
18441TIP3    H176738   1.959   0.651   5.005  0.6703  0.0084 -0.2071
18441TIP3    H276739   1.980   0.540   4.903  1.9730 -0.8957  1.0168
18442TIP3   OH276740   3.925   3.050   0.888 -0.4333 -0.1252 -0.7154
18442TIP3    H176741   3.865   2.976   0.877 -1.2653  0.4876 -0.4732
18442TIP3    H276742   3.997   3.033   0.828 -1.1053 -0.6469 -1.3828
18443TIP3   OH276743   1.659   4.579  12.409  0.5183  0.2055  0.2624
18443TIP3    H176744   1.717   4.502  12.406 -1.2366 -1.1827  0.3552
18443TIP3    H276745   1.580   4.551  12.362 -1.4575  0.7772  2.9908
18444TIP3   OH276746   4.723   1.078  12.614  0.0167  0.0073  0.1269
18444TIP3    H176747   4.751   1.023  12.541  0.5815  0.7189 -0.2044
18444TIP3    H276748   4.746   1.167  12.587 -1.6207  0.5160  0.3061
18445TIP3   OH276749   3.904   3.061  12.418  0.1180  0.2252 -0.1748
18445TIP3    H176750   3.971   3.116  12.377 -0.0624  1.0337  0.5541
18445TIP3    H276751   3.845   3.124  12.460 -1.4044 -0.4338 -1.2304
18446TIP3   OH276752   5.285   1.527  12.393  0.0587  0.1177  0.3309
18446TIP3    H176753   5.214   1.504  12.453 -1.4029 -0.1979 -1.4528
18446TIP3    H276754   5.297   1.448  12.340  1.3015  0.4064  0.1614
18447TIP3   OH276755   2.945   0.898  11.550 -0.2830 -0.6722 -0.6452
18447TIP3    H176756   2.938   0.993  11.535 -1.8712 -0.5705  0.5126
18447TIP3    H276757   2.899   0.859  11.476 -1.9420 -0.4066  0.1875
18448TIP3   OH276758   5.622   6.350  13.293 -0.7023 -0.0280 -0.0895
18448TIP3    H176759   5.586   6.401  13.366  1.4123  2.0571 -0.3878
18448TIP3    H276760   5.582   6.388  13.215 -1.1272 -0.6601 -0.1943
18449TIP3   OH276761   5.395   5.730   0.807 -0.6311  0.1226 -0.2182
18449TIP3    H176762   5.328   5.713   0.742 -1.3743  1.4771  0.1378
18449TIP3    H276763   5.429   5.817   0.784  1.6666 -0.8907 -0.9178
18450TIP3   OH276764   3.303   1.280  11.976 -0.0825  0.1137 -0.3823
18450TIP3    H176765   3.209   1.268  11.992 -0.0969  0.3247 -0.3047
18450TIP3    H276766   3.310   1.284  11.881 -0.0028 -1.0907 -0.4462
18451TIP3   OH276767   3.676   0.410  16.724  0.3291 -0.6010 -0.4554
18451TIP3    H176768   3.649   0.496  16.690 -0.4788  0.4379  2.4917
18451TIP3    H276769   3.766   0.423  16.753  0.6698 -1.1768 -1.2254
18452TIP3   OH276770   1.366   6.034  17.154  0.4216  0.3553 -0.2697
18452TIP3    H176771   1.416   6.076  17.084 -0.4493  0.8337 -0.6186
18452TIP3    H276772   1.297   6.096  17.175 -0.3970 -0.5504 -0.2254
18453TIP3   OH276773   0.344   5.101  12.425 -0.4592 -0.1450 -0.2035
18453TIP3    H176774   0.380   5.159  12.359  0.2807 -0.4166 -0.0488
18453TIP3    H276775   0.252   5.126  12.432 -0.5130 -0.0351 -1.2364
18454TIP3   OH276776   2.491   3.561  13.857 -0.6037  0.5106 -0.2960
18454TIP3    H176777   2.508   3.486  13.914 -1.6552 -0.5548 -1.3261
18454TIP3    H276778   2.470   3.633  13.917 -1.8084 -0.5981  0.6645
18455TIP3   OH276779   3.942   0.367   5.228 -0.2673 -0.0664 -0.0921
18455TIP3    H176780   4.022   0.363   5.281  0.0396  0.5049 -0.5092
18455TIP3    H276781   3.966   0.328   5.144 -0.4738 -0.0469 -0.1624
18456TIP3   OH276782   3.113   0.136  15.199  0.2499  0.2218  0.3906
18456TIP3    H176783   3.179   0.204  15.185  0.5353 -0.3551 -1.2497
18456TIP3    H276784   3.145   0.088  15.275  0.8981  0.9009  0.5628
18457TIP3   OH276785   2.182   5.251   0.975  0.4703 -0.5847  0.7072
18457TIP3    H176786   2.239   5.253   0.899  0.0204 -0.9679  0.3544
18457TIP3    H276787   2.097   5.282   0.942  0.4670 -0.0195  1.2218
18458TIP3   OH276788   2.961   6.713  12.322  0.0408  0.2787 -0.0122
18458TIP3    H176789   3.010   6.762  12.255  2.6266 -1.2106  0.6727
18458TIP3    H276790   2.941   6.779  12.389  1.9008  0.8240  0.0714
18459TIP3   OH276791   3.934   5.180  11.808  0.2453 -0.1550  0.0198
18459TIP3    H176792   3.861   5.158  11.749  0.8030 -0.7644 -0.4497
18459TIP3    H276793   3.969   5.096  11.835  0.8251  0.1376  0.1853
18460TIP3   OH276794   0.902   3.079   6.735  0.4485  0.0447 -0.3194
18460TIP3    H176795   0.955   3.143   6.784  1.0214  0.6065 -1.6309
18460TIP3    H276796   0.815   3.119   6.731  0.4440  0.0820  0.0746
18461TIP3   OH276797   4.327   4.440  13.212 -0.1139 -0.1441 -0.3116
18461TIP3    H176798   4.250   4.486  13.180  0.0394 -0.7474 -1.6590
18461TIP3    H276799   4.307   4.347  13.198  0.0349 -0.4444  1.2791
18462TIP3   OH276800   1.859   2.381  13.732 -0.4227 -0.2377 -0.3203
18462TIP3    H176801   1.888   2.468  13.705 -0.1925 -0.2797 -0.2134
18462TIP3    H276802   1.795   2.397  13.801 -0.2552 -0.1531 -0.1812
18463TIP3   OH276803   0.865   5.540  13.694  0.5254  0.4652 -0.5067
18463TIP3    H176804   0.814   5.616  13.721  0.9795  1.0938 -1.3551
18463TIP3    H276805   0.923   5.522  13.769 -0.9339 -0.2955  0.4835
18464TIP3   OH276806   1.538   4.518  11.533 -0.5949  0.2096  0.0916
18464TIP3    H176807   1.539   4.556  11.620 -0.5792  0.6111 -0.0818
18464TIP3    H276808   1.507   4.588  11.476  1.2977  0.6176 -0.5170
18465TIP3   OH276809   6.693   5.853  14.672 -0.4009 -0.2445  0.6554
18465TIP3    H176810   6.774   5.897  14.649 -1.3853  1.2293 -0.1313
18465TIP3    H276811   6.628   5.886  14.609 -1.6469 -1.2598  1.3460
18466TIP3   OH276812   6.601   1.527   0.842 -0.0074  0.0057 -0.4341
18466TIP3    H176813   6.607   1.617   0.808  2.4995 -0.0466 -0.3264
18466TIP3    H276814   6.606   1.537   0.937  1.2079 -0.2647 -0.4559
18467TIP3   OH276815   1.844   2.688   4.090  0.0185 -0.4078 -0.5384
18467TIP3    H176816   1.776   2.689   4.022  0.9077 -2.0579 -1.5207
18467TIP3    H276817   1.868   2.780   4.101 -1.7697  0.1285 -0.7608
18468TIP3   OH276818   3.742   0.865  17.125 -0.4228 -0.0600 -0.5394
18468TIP3    H176819   3.756   0.834  17.035  0.6407  2.6813 -1.3963
18468TIP3    H276820   3.803   0.938  17.135 -1.4039  0.4929  2.0202
18469TIP3   OH276821   3.723   5.471   4.342 -0.4689  0.1950  0.0380
18469TIP3    H176822   3.752   5.519   4.419 -0.5355 -0.2658  0.3570
18469TIP3    H276823   3.803   5.435   4.304 -0.6060 -1.1957  0.9983
18470TIP3   OH276824   1.842   0.737   4.322  0.0534 -0.1812  0.1703
18470TIP3    H176825   1.927   0.779   4.310 -0.0816 -0.1538 -0.7821
18470TIP3    H276826   1.781   0.810   4.336  0.1751 -0.1981  0.8017
18471TIP3   OH276827   5.330   2.501  13.690 -0.1577 -0.4054 -0.7237
18471TIP3    H176828   5.391   2.543  13.630  0.2387  0.0725 -0.0133
18471TIP3    H276829   5.319   2.413  13.656  0.0834 -0.1565 -1.4694
18472TIP3   OH276830   4.014   5.952   2.915 -0.0567 -0.5247 -0.8300
18472TIP3    H176831   4.061   5.868   2.913  1.3403  0.2347 -1.1013
18472TIP3    H276832   4.023   5.987   2.827  1.8486  1.1867 -0.0487
18473TIP3   OH276833   0.568   5.744   5.892  0.8123  0.3102  0.1389
18473TIP3    H176834   0.522   5.821   5.924  0.7947  0.7721 -0.9596
18473TIP3    H276835   0.546   5.739   5.799  0.4736 -1.2561  0.2652
18474TIP3   OH276836   0.230   0.332  17.139 -0.0274  0.0264 -0.6107
18474TIP3    H176837   0.276   0.273  17.079 -0.7031 -0.4544 -0.6701
18474TIP3    H276838   0.177   0.275  17.194  1.7681  0.3065  1.5723
18475TIP3   OH276839   4.374   5.329   0.425  0.2117 -0.2190  0.7201
18475TIP3    H176840   4.333   5.415   0.416 -2.8469 -1.6738 -0.8086
18475TIP3    H276841   4.432   5.322   0.349 -0.2033  0.1743  0.3635
18476TIP3   OH276842   4.535   5.828   2.383 -0.1820  0.8069  0.0456
18476TIP3    H176843   4.626   5.807   2.362 -0.4289  1.0979 -1.4367
18476TIP3    H276844   4.541   5.900   2.446  0.6037  0.5733  0.2529
18477TIP3   OH276845   1.871   5.252  16.194  0.4142  0.4427 -0.2505
18477TIP3    H176846   1.913   5.175  16.231  0.4359  0.7022  0.2659
18477TIP3    H276847   1.885   5.243  16.099  0.0720 -0.3851 -0.2331
18478TIP3   OH276848   1.242   5.062  14.276 -0.5852  0.2844 -0.1035
18478TIP3    H176849   1.318   5.004  14.266  0.2813  1.3783 -0.0576
18478TIP3    H276850   1.213   5.049  14.367 -1.9449 -1.8705 -0.7793
18479TIP3   OH276851   1.369   4.733  12.402  0.0232 -0.3192 -0.0164
18479TIP3    H176852   1.379   4.823  12.430  0.8361 -0.2791 -0.4187
18479TIP3    H276853   1.282   4.708  12.433 -0.3615  0.7155 -0.2240
18480TIP3   OH276854   3.511   4.704   1.206  0.7756  0.3841 -0.0878
18480TIP3    H176855   3.573   4.693   1.278  0.4866  0.3508  0.1534
18480TIP3    H276856   3.511   4.799   1.189  0.4386  0.4569  0.3122
18481TIP3   OH276857   0.633   3.890   2.927 -0.2131 -0.0894  0.2009
18481TIP3    H176858   0.607   3.922   3.014  0.0430 -0.8060  0.5559
18481TIP3    H276859   0.680   3.963   2.887 -1.1616  0.5808  0.2815
18482TIP3   OH276860   4.381   2.781   5.737  0.4697 -0.3768 -0.2259
18482TIP3    H176861   4.447   2.736   5.790  0.3378 -1.7655 -1.1877
18482TIP3    H276862   4.333   2.836   5.800  1.3123 -0.7938  0.8105
18483TIP3   OH276863   6.384   6.187  17.164  0.2703 -0.1653 -0.2947
18483TIP3    H176864   6.343   6.271  17.186  0.5056 -0.1532  0.0898
18483TIP3    H276865   6.478   6.205  17.167  0.3133 -0.2098 -1.1153
18484TIP3   OH276866   2.370   0.614   3.970 -0.3718 -0.3938  0.2403
18484TIP3    H176867   2.376   0.698   4.014  0.0288 -0.5584  0.5033
18484TIP3    H276868   2.460   0.593   3.945 -0.6223 -0.2160 -0.8266
18485TIP3   OH276869   0.058   5.113  16.199 -0.2003  0.3308 -0.3368
18485TIP3    H176870   0.088   5.023  16.189 -1.8504 -0.1961 -0.8626
18485TIP3    H276871   0.031   5.139  16.111 -0.2037  1.1785 -0.0974
18486TIP3   OH276872   4.460   5.368  15.827  0.0579  0.3563  0.2005
18486TIP3    H176873   4.455   5.456  15.865  0.1148 -0.0739  1.2275
18486TIP3    H276874   4.413   5.312  15.889  0.1284 -0.3681 -0.3800
18487TIP3   OH276875   0.719   2.681  16.835  0.0941 -0.3763 -0.1536
18487TIP3    H176876   0.812   2.697  16.816  0.2129 -0.7017  0.1385
18487TIP3    H276877   0.672   2.723  16.763  0.5340 -1.5576 -1.1681
18488TIP3   OH276878   3.701   4.533   3.216  0.0129  0.9006 -0.5180
18488TIP3    H176879   3.785   4.564   3.248  0.2800  1.5651 -1.8172
18488TIP3    H276880   3.663   4.486   3.291  1.3029  1.0130  0.2381
18489TIP3   OH276881   5.964   0.405  14.548  0.0155  0.2578 -0.2609
18489TIP3    H176882   5.874   0.435  14.532  0.0741  1.8966  1.9490
18489TIP3    H276883   5.991   0.364  14.465 -3.6913 -2.9238 -0.2242
18490TIP3   OH276884   1.950   0.930  15.589  0.0971  0.0780 -0.1657
18490TIP3    H176885   1.977   0.914  15.498  0.6640 -0.2684  0.0579
18490TIP3    H276886   2.031   0.958  15.633 -0.3637  1.1761  0.0208
18491TIP3   OH276887   2.243   6.653   1.458 -0.0795 -0.3237  0.1752
18491TIP3    H176888   2.215   6.640   1.367 -0.1387  1.5369 -0.1096
18491TIP3    H276889   2.323   6.705   1.451 -1.0070  1.3075  1.2237
18492TIP3   OH276890   5.419   3.073   5.718  0.7590 -0.8474  0.2043
18492TIP3    H176891   5.501   3.060   5.764  1.1125  0.2729 -0.0644
18492TIP3    H276892   5.427   3.161   5.680 -0.0434 -1.2227 -0.8869
18493TIP3   OH276893   1.229   5.352   1.566 -0.4086 -0.0190 -0.1265
18493TIP3    H176894   1.159   5.370   1.503  0.8025 -0.6763 -1.7161
18493TIP3    H276895   1.194   5.283   1.621 -1.4940  0.5657 -0.0479
18494TIP3   OH276896   2.086   4.324  11.493 -0.1205 -0.9508 -1.1681
18494TIP3    H176897   2.092   4.229  11.485 -3.0810 -1.2025 -1.6560
18494TIP3    H276898   2.005   4.339  11.542  0.4990  1.3291 -0.7363
18495TIP3   OH276899   2.577   4.891  12.159 -0.6354 -0.0051  0.3668
18495TIP3    H176900   2.615   4.816  12.114 -1.0073  0.2737 -0.4188
18495TIP3    H276901   2.495   4.908  12.114 -1.8185 -0.6980  2.1388
18496TIP3   OH276902   0.300   3.085  16.506  0.3506 -0.3109 -0.0355
18496TIP3    H176903   0.251   3.044  16.435 -1.6087 -2.6950  2.4949
18496TIP3    H276904   0.238   3.146  16.546  1.6599  1.5389 -0.7003
18497TIP3   OH276905   5.648   5.000   1.779 -0.5816 -0.4701  0.7116
18497TIP3    H176906   5.742   5.006   1.795 -0.6183  1.4265  0.4546
18497TIP3    H276907   5.640   4.976   1.687 -0.3447 -0.8876  0.8014
18498TIP3   OH276908   3.268   4.184   2.853 -0.0914 -0.4675  0.1337
18498TIP3    H176909   3.206   4.214   2.920  0.5214 -1.7978  1.3578
18498TIP3    H276910   3.351   4.223   2.879  0.3303 -1.6805  0.6879
18499TIP3   OH276911   4.509   5.951   5.196 -0.1380 -0.2190 -0.0264
18499TIP3    H176912   4.530   5.884   5.262  3.5774  1.2199  0.5233
18499TIP3    H276913   4.581   6.014   5.203 -1.0009  1.4286 -3.6711
18500TIP3   OH276914   6.113   4.114   0.946 -0.0915  0.3220  0.0281
18500TIP3    H176915   6.106   4.088   1.038  0.0557  1.7567  0.4641
18500TIP3    H276916   6.022   4.117   0.916 -0.1455 -0.0631  0.1356
18501TIP3   OH276917   5.906   6.671   3.742 -0.9928  0.2972 -1.2133
18501TIP3    H176918   5.843   6.736   3.710  0.0963  2.2038  0.3376
18501TIP3    H276919   5.988   6.719   3.752 -0.0768 -1.3755 -0.2104
18502TIP3   OH276920   4.536   0.894   5.671  0.5043  0.0918 -0.3402
18502TIP3    H176921   4.489   0.843   5.736 -1.0581 -1.3545 -2.4753
18502TIP3    H276922   4.498   0.982   5.676 -0.1149 -0.2026  0.1825
18503TIP3   OH276923   3.670   1.581  15.153  0.1945  0.0017  0.2798
18503TIP3    H176924   3.744   1.556  15.098 -0.3189 -1.2283  0.1263
18503TIP3    H276925   3.645   1.667  15.120  2.9797  1.5725  1.8285
18504TIP3   OH276926   2.178   0.983   0.724  0.0805 -0.1804  0.0486
18504TIP3    H176927   2.238   0.919   0.763  0.2884  0.1118  0.2093
18504TIP3    H276928   2.103   0.984   0.783  0.3018  0.1035  0.3324
18505TIP3   OH276929   3.726   2.931  14.985  0.1143 -0.1944  0.0054
18505TIP3    H176930   3.704   2.895  15.071 -0.9410  2.0898  0.7734
18505TIP3    H276931   3.647   2.975  14.955  1.4001  1.8776 -0.5995
18506TIP3   OH276932   5.823   1.389   3.954 -0.8230  0.2143 -0.4046
18506TIP3    H176933   5.730   1.388   3.974 -0.8025  0.4511 -0.2988
18506TIP3    H276934   5.858   1.462   4.005 -0.6445  0.3612 -0.7297
18507TIP3   OH276935   1.494   6.495  13.533  0.1018 -0.5421  0.2763
18507TIP3    H176936   1.521   6.582  13.560  0.2584  0.3109 -2.3377
18507TIP3    H276937   1.529   6.436  13.600 -0.2396  1.3742  2.2447
18508TIP3   OH276938   4.984   1.624   3.238  0.1252 -0.1266 -0.1252
18508TIP3    H176939   4.973   1.656   3.327 -0.4454 -1.2652  0.2431
18508TIP3    H276940   4.920   1.673   3.186  0.6299  0.7151  0.0378
18509TIP3   OH276941   0.908   4.015   4.523  0.4285  0.2695  0.4274
18509TIP3    H176942   0.991   3.967   4.521  0.4630  0.3427 -0.0908
18509TIP3    H276943   0.934   4.107   4.514  0.3636  0.3915  1.4171
18510TIP3   OH276944   2.363   2.005  11.990 -0.4050 -0.0210 -0.2613
18510TIP3    H176945   2.360   1.921  11.945  1.1937 -0.1350 -0.2071
18510TIP3    H276946   2.276   2.014  12.030 -0.6641 -1.5470 -0.4295
18511TIP3   OH276947   2.266   3.725  16.453  0.3811  0.1394  0.0269
18511TIP3    H176948   2.232   3.636  16.449  1.8077 -0.4462  0.4192
18511TIP3    H276949   2.227   3.762  16.533  1.6828 -0.9809  1.2290
18512TIP3   OH276950   6.542   1.048   3.909  0.0494 -0.4523  0.3541
18512TIP3    H176951   6.469   0.988   3.929  1.4769 -1.4557  3.1588
18512TIP3    H276952   6.533   1.118   3.973 -0.2163  1.1473 -1.3651
18513TIP3   OH276953   6.495   1.794   1.881 -0.0119 -0.2680  0.4815
18513TIP3    H176954   6.554   1.724   1.906  0.2208  0.4035  1.9247
18513TIP3    H276955   6.430   1.797   1.952  0.3942  1.4010  0.8331
18514TIP3   OH276956   4.453   5.995   3.200  0.1058 -0.1239 -0.0616
18514TIP3    H176957   4.431   5.904   3.181  0.1912 -0.1210 -0.1737
18514TIP3    H276958   4.369   6.040   3.204  0.1186  0.0370 -1.2410
18515TIP3   OH276959   1.134   3.358  15.809 -0.1694 -0.2395 -0.2733
18515TIP3    H176960   1.039   3.367  15.803 -0.2060 -0.8965 -0.8682
18515TIP3    H276961   1.165   3.372  15.720  0.1501 -1.3930 -0.3626
18516TIP3   OH276962   0.265   4.579  15.143  0.6308 -0.5648  0.3981
18516TIP3    H176963   0.187   4.525  15.146 -0.0813  0.3397 -0.6476
18516TIP3    H276964   0.315   4.546  15.068  0.6362 -0.3496  0.3042
18517TIP3   OH276965   6.185   5.595   4.792  0.0056 -1.1891 -0.1820
18517TIP3    H176966   6.172   5.683   4.829 -2.8544 -1.5423 -0.0911
18517TIP3    H276967   6.279   5.590   4.775  0.0980  2.7068 -2.1416
18518TIP3   OH276968   0.520   0.575   3.107 -0.2936 -0.7860  0.7884
18518TIP3    H176969   0.593   0.519   3.132 -0.0409  0.0064  1.8802
18518TIP3    H276970   0.520   0.572   3.011  1.0042 -1.0106  0.7731
18519TIP3   OH276971   4.397   1.548  12.939  0.4760  0.2983  0.8543
18519TIP3    H176972   4.374   1.614  12.874 -0.1865 -0.0995  0.6774
18519TIP3    H276973   4.313   1.509  12.965  0.8697 -0.5838  0.8364
18520TIP3   OH276974   1.393   2.373  14.205 -0.3146  0.2460  0.1388
18520TIP3    H176975   1.451   2.446  14.183  0.1890 -0.5338 -1.2012
18520TIP3    H276976   1.355   2.398  14.289  0.7956  1.4773  0.3116
18521TIP3   OH276977   5.672   5.045  13.693 -0.1074  0.4821  0.5461
18521TIP3    H176978   5.643   5.117  13.748 -1.4310  2.1710 -2.1567
18521TIP3    H276979   5.606   5.039  13.624  1.9021 -0.8438 -1.4123
18522TIP3   OH276980   4.574   4.291   4.319 -0.1035 -0.7073  0.0586
18522TIP3    H176981   4.558   4.200   4.295 -0.6087 -1.0473  1.5735
18522TIP3    H276982   4.633   4.324   4.251  0.0030 -2.1252 -0.5706
18523TIP3   OH276983   0.513   4.485   0.060 -0.2231 -0.8488 -0.1811
18523TIP3    H176984   0.529   4.560   0.003 -0.2897  0.3097  1.2475
18523TIP3    H276985   0.437   4.442   0.022 -1.3463  0.9013 -0.0627
18524TIP3   OH276986   2.741   4.590   0.955 -0.1668  0.1919  0.0800
18524TIP3    H176987   2.814   4.651   0.961 -1.7898  2.2038  0.2953
18524TIP3    H276988   2.758   4.540   0.875  0.9050  1.3414 -0.4360
18525TIP3   OH276989   5.891   3.277   4.395 -0.1208  0.2491 -0.0533
18525TIP3    H176990   5.896   3.319   4.308  0.2282  1.1283  0.3795
18525TIP3    H276991   5.799   3.286   4.419 -0.2143  0.0263 -0.3177
18526TIP3   OH276992   2.341   5.575   5.749  0.3960 -0.2583 -0.1985
18526TIP3    H176993   2.390   5.503   5.788  1.8117  0.7027 -0.1583
18526TIP3    H276994   2.330   5.639   5.819  1.0563  0.5156 -0.7806
18527TIP3   OH276995   5.614   0.873   1.827  0.0576  0.0902 -0.5640
18527TIP3    H176996   5.532   0.917   1.804 -1.6832 -1.8076  1.4972
18527TIP3    H276997   5.605   0.854   1.921  3.9896  1.9891  0.3752
18528TIP3   OH276998   4.242   4.887   6.301  0.7651  0.4031 -0.4781
18528TIP3    H176999   4.218   4.804   6.342 -0.8239  0.9206 -0.2759
18528TIP3    H277000   4.334   4.899   6.322  0.6641 -0.6412  0.6598
18529TIP3   OH277001   5.742   6.406  16.154 -0.3151 -0.4984  0.1539
18529TIP3    H177002   5.801   6.453  16.095  0.2060  1.2842  1.9731
18529TIP3    H277003   5.686   6.355  16.096  2.1466 -1.2640 -1.7199
18530TIP3   OH277004   3.184   6.362   2.027 -0.1840  0.2325  0.4429
18530TIP3    H177005   3.268   6.394   2.059  1.2314 -1.6622 -1.2160
18530TIP3    H277006   3.149   6.311   2.099  1.3121 -1.0710  0.2865
18531TIP3   OH277007   5.286   4.469  14.454 -0.0770 -0.9434 -0.2201
18531TIP3    H177008   5.241   4.410  14.394  2.1071 -2.8363 -0.1803
18531TIP3    H277009   5.243   4.455  14.538 -1.6996  0.0252 -0.8662
18532TIP3   OH277010   1.091   2.152  16.563 -0.2474 -0.0497  0.4494
18532TIP3    H177011   1.049   2.232  16.530  1.5665 -0.0925 -2.2171
18532TIP3    H277012   1.067   2.085  16.500 -0.7523 -1.3812  2.0089
18533TIP3   OH277013   4.364   2.980  16.840  0.4562 -0.0716 -0.3486
18533TIP3    H177014   4.392   3.065  16.806  1.3045 -0.1252  0.2028
18533TIP3    H277015   4.268   2.986  16.844  0.5960  1.6008  1.6396
18534TIP3   OH277016   4.050   6.220   2.107  0.1951  0.1507 -0.3383
18534TIP3    H177017   3.996   6.148   2.141 -0.6966  0.9578 -0.0184
18534TIP3    H277018   3.998   6.257   2.036 -0.0170  1.4158  0.4631
18535TIP3   OH277019   2.289   2.354   4.424 -0.2420  0.2491 -0.2224
18535TIP3    H177020   2.213   2.319   4.376 -0.1590 -0.4842  0.1640
18535TIP3    H277021   2.250   2.403   4.496 -0.3536 -0.2435  0.0572
18536TIP3   OH277022   5.974   0.658  14.956  0.3046 -0.6966 -0.1839
18536TIP3    H177023   6.020   0.643  15.039 -1.2246 -0.6734  0.7098
18536TIP3    H277024   6.017   0.600  14.894  0.0834 -2.3526  1.1461
18537TIP3   OH277025   1.501   5.781  15.146 -0.0392 -0.1118  0.4840
18537TIP3    H177026   1.475   5.824  15.227  0.1916  1.1987 -0.1227
18537TIP3    H277027   1.575   5.726  15.171 -1.5281 -1.6919  1.6470
18538TIP3   OH277028   0.792   4.816   3.333  0.3557  0.7045 -0.1172
18538TIP3    H177029   0.774   4.745   3.272  0.5053  1.6713 -1.3346
18538TIP3    H277030   0.730   4.804   3.405  1.8567 -1.9635  0.8945
18539TIP3   OH277031   0.183   6.325  13.767  0.3505 -0.3219  0.0462
18539TIP3    H177032   0.263   6.311  13.818  0.1910  0.1949  0.4358
18539TIP3    H277033   0.206   6.395  13.705  0.9548 -1.7941 -1.4989
18540TIP3   OH277034   4.852   4.686  11.093  0.0068 -0.0836 -0.3644
18540TIP3    H177035   4.844   4.647  11.180  0.9445 -1.4086 -0.8502
18540TIP3    H277036   4.890   4.773  11.110 -2.2392  0.7784  0.7383
18541TIP3   OH277037   2.662   4.258   3.983  0.1695  0.2261 -0.1690
18541TIP3    H177038   2.728   4.312   3.940 -1.5579  1.2892 -1.5969
18541TIP3    H277039   2.695   4.168   3.974  1.0088  0.6494 -1.5987
18542TIP3   OH277040   1.911   5.211  14.662  0.0503  0.3461 -0.5371
18542TIP3    H177041   1.889   5.303  14.648 -0.3824  0.2382 -0.5888
18542TIP3    H277042   1.955   5.209  14.747 -0.5626  0.5074 -0.2087
18543TIP3   OH277043   0.512   5.508   0.139 -0.3821  0.1011  0.1525
18543TIP3    H177044   0.491   5.529   0.230  0.4657  2.2078 -0.0825
18543TIP3    H277045   0.454   5.565   0.088  0.0627 -0.1114 -0.6079
18544TIP3   OH277046   2.519   6.380   4.512  0.2046 -0.0342 -0.8811
18544TIP3    H177047   2.612   6.387   4.488  0.4155  1.0229  0.1940
18544TIP3    H277048   2.514   6.298   4.561  0.8696  0.6308  0.3256
18545TIP3   OH277049   0.963   5.904   2.218  0.2308  0.1833 -0.0941
18545TIP3    H177050   1.012   5.881   2.139 -1.5377 -0.3586 -1.0909
18545TIP3    H277051   1.031   5.928   2.282  1.7119  0.8344 -1.8057
18546TIP3   OH277052   5.320   4.592  12.881  0.2249 -0.1141  0.7069
18546TIP3    H177053   5.349   4.505  12.851 -0.2312  0.5783 -2.0262
18546TIP3    H277054   5.229   4.597  12.854  0.1951  1.1615  1.0034
18547TIP3   OH277055   1.102   0.320  12.551 -0.3393 -0.2543 -0.5332
18547TIP3    H177056   1.135   0.236  12.582 -0.5165 -0.0979  0.0833
18547TIP3    H277057   1.165   0.347  12.483 -0.4766 -1.0440 -0.9839
18548TIP3   OH277058   0.126   0.207   5.198  0.3746  0.2145  1.0387
18548TIP3    H177059   0.201   0.149   5.211  1.2900  1.3717  1.0908
18548TIP3    H277060   0.063   0.154   5.149  0.3624 -1.4529  2.7320
18549TIP3   OH277061   5.744   5.348  10.764  0.0626  0.0487  0.1917
18549TIP3    H177062   5.743   5.404  10.841 -1.8113  0.6796 -0.2395
18549TIP3    H277063   5.791   5.399  10.698 -2.1251  1.4886 -0.3834
18550TIP3   OH277064   0.232   0.990   5.561 -0.1258 -0.4427  0.3203
18550TIP3    H177065   0.248   1.073   5.606  3.2345  0.5044 -2.2244
18550TIP3    H277066   0.198   1.015   5.475 -0.3290 -1.8049 -0.0230
18551TIP3   OH277067   6.102   5.517   4.519 -0.1145 -0.3635 -0.0708
18551TIP3    H177068   6.020   5.527   4.567 -1.5516  1.0362 -2.5952
18551TIP3    H277069   6.110   5.423   4.504 -3.8521 -0.4084 -3.6477
18552TIP3   OH277070   5.635   2.005  13.454  0.4477  0.0451 -0.2115
18552TIP3    H177071   5.600   2.048  13.533  0.5562 -1.0227  0.4323
18552TIP3    H277072   5.730   2.005  13.467  0.5898  1.2340 -1.0746
18553TIP3   OH277073   3.016   4.875  15.850 -0.6518  0.1376 -0.3247
18553TIP3    H177074   3.103   4.844  15.874 -0.6480 -1.1242 -1.8454
18553TIP3    H277075   2.997   4.944  15.913  1.9397  1.2736 -0.6757
18554TIP3   OH277076   1.559   2.918   4.877 -0.0512 -0.7251  0.3652
18554TIP3    H177077   1.482   2.870   4.848 -0.2077  0.8888 -2.1751
18554TIP3    H277078   1.529   3.009   4.885  0.7640 -0.5939  2.8882
18555TIP3   OH277079   3.826   2.400   0.751  0.4662 -0.2503  0.1117
18555TIP3    H177080   3.912   2.359   0.739  0.7723  0.3375  0.2933
18555TIP3    H277081   3.842   2.474   0.810  0.0455  0.5828 -0.7985
18556TIP3   OH277082   4.606   6.250   3.838  0.3623 -0.1838 -0.3152
18556TIP3    H177083   4.652   6.174   3.874 -1.7620 -1.1286  0.6240
18556TIP3    H277084   4.560   6.288   3.913  0.2418  1.1831 -1.0478
18557TIP3   OH277085   6.463   1.010   1.265  0.2502 -0.0778  0.5303
18557TIP3    H177086   6.433   1.098   1.240  0.1934 -0.3322 -0.3534
18557TIP3    H277087   6.439   1.001   1.357  0.3227  0.8619  0.6542
18558TIP3   OH277088   5.058   4.595  12.810 -0.0819  0.0136 -0.0747
18558TIP3    H177089   5.034   4.616  12.719 -0.8861 -0.3303  0.0495
18558TIP3    H277090   4.977   4.611  12.860  0.5092  0.7674  0.6761
18559TIP3   OH277091   5.695   5.626   3.130 -0.4697 -0.2657  0.1614
18559TIP3    H177092   5.757   5.663   3.193  0.2171 -0.4969 -0.3613
18559TIP3    H277093   5.619   5.601   3.183  0.1812 -0.6595  0.9414
18560TIP3   OH277094   0.743   0.581  14.056 -0.6725  0.6140 -0.6007
18560TIP3    H177095   0.756   0.505  14.112 -2.6311 -0.2091 -1.1629
18560TIP3    H277096   0.822   0.586  14.003  1.4461  1.6789  2.4224
18561TIP3   OH277097   4.051   4.643   3.676  0.1658  0.0621  0.2683
18561TIP3    H177098   4.147   4.649   3.683  0.2158 -0.9696  0.6551
18561TIP3    H277099   4.020   4.673   3.761  0.1122  0.8455 -0.0183
18562TIP3   OH277100   2.991   6.174   5.875 -0.2787 -0.0783  0.0841
18562TIP3    H177101   3.030   6.094   5.910 -0.7607 -0.8058 -0.9970
18562TIP3    H277102   2.902   6.149   5.850 -0.0753  0.5043 -1.2922
18563TIP3   OH277103   1.961   5.308  16.503 -0.0086 -0.2345 -0.0791
18563TIP3    H177104   1.874   5.315  16.542 -0.4849  1.5280 -1.3127
18563TIP3    H277105   1.948   5.256  16.423  0.5088 -1.7658  0.7873
18564TIP3   OH277106   4.810   5.606   2.951 -0.2884  0.0607 -0.1508
18564TIP3    H177107   4.865   5.561   2.886 -1.6005 -0.6238 -0.8531
18564TIP3    H277108   4.858   5.686   2.973  2.3035 -1.7706  1.3811
18565TIP3   OH277109   0.526   4.252   2.353  0.5315  0.2624  0.6249
18565TIP3    H177110   0.437   4.287   2.358  0.4732  0.0233  1.3797
18565TIP3    H277111   0.558   4.282   2.269  0.0237  1.0395  0.6936
18566TIP3   OH277112   0.428   4.851  16.577  1.0009 -0.1348  1.0529
18566TIP3    H177113   0.477   4.924  16.614 -0.1424  0.3907  1.5889
18566TIP3    H277114   0.338   4.864  16.608  0.1086 -0.0556 -1.2875
18567TIP3   OH277115   5.899   3.250   3.241 -0.1219 -0.1244 -0.2908
18567TIP3    H177116   5.920   3.235   3.333 -0.5074  2.8866  0.4022
18567TIP3    H277117   5.833   3.184   3.220 -0.2558 -0.6821  1.6950
18568TIP3   OH277118   5.872   1.425  16.425  0.5980  0.1547 -0.0693
18568TIP3    H177119   5.934   1.470  16.369  0.2171  1.5997  0.6291
18568TIP3    H277120   5.796   1.483  16.429  0.6646  0.1574  2.0334
18569TIP3   OH277121   5.139   3.713   5.974  0.4910  0.5488 -0.3373
18569TIP3    H177122   5.051   3.747   5.953 -0.0264  0.0561  0.9540
18569TIP3    H277123   5.126   3.619   5.987  0.5951  0.8819  2.7881
18570TIP3   OH277124   1.887   2.939   0.295 -0.5290 -0.0946  0.4949
18570TIP3    H177125   1.803   2.985   0.287 -1.2283 -1.6309 -2.2687
18570TIP3    H277126   1.941   2.976   0.226  0.3776 -0.5309  0.9567
18571TIP3   OH277127   2.677   1.860  14.756 -0.4745  0.4953 -0.7783
18571TIP3    H177128   2.704   1.927  14.694  0.7737 -0.5617 -1.4393
18571TIP3    H277129   2.746   1.860  14.823 -1.2023  0.8204 -0.0008
18572TIP3   OH277130   4.163   5.028  14.218 -0.7420  0.1503  0.0609
18572TIP3    H177131   4.103   5.003  14.148 -1.5678  2.3527 -0.1000
18572TIP3    H277132   4.221   5.093  14.178  0.4317 -0.4139  0.7750
18573TIP3   OH277133   3.411   4.589  12.033 -0.6628  0.5325  0.5445
18573TIP3    H177134   3.448   4.665  11.987  1.2453  1.5828  3.4960
18573TIP3    H277135   3.448   4.513  11.988 -2.2679  1.2382 -2.2119
18574TIP3   OH277136   4.409   3.292  17.219  0.1370 -0.0945 -0.2120
18574TIP3    H177137   4.356   3.332  17.150 -0.5186 -0.4107  0.0988
18574TIP3    H277138   4.393   3.198  17.211  0.5187 -0.1823 -0.0020
18575TIP3   OH277139   5.148   4.139  16.269 -0.5746  0.0694  0.4663
18575TIP3    H177140   5.184   4.175  16.350 -0.1383 -0.7383  0.6340
18575TIP3    H277141   5.053   4.141  16.283 -0.5438  0.7637  0.6344
18576TIP3   OH277142   2.512   4.703   5.883  0.9974 -0.8982 -0.1608
18576TIP3    H177143   2.507   4.758   5.961  0.0407 -0.1287 -0.7457
18576TIP3    H277144   2.551   4.759   5.816 -0.9862 -0.5366 -1.0674
18577TIP3   OH277145   6.029   0.955  13.894 -0.1465 -0.0684  0.0054
18577TIP3    H177146   6.073   0.925  13.973 -0.9134 -2.4926 -0.4073
18577TIP3    H277147   5.953   0.899  13.885 -0.5083  0.6387 -2.0406
18578TIP3   OH277148   1.411   5.859  12.822 -0.2574 -0.3424 -0.7283
18578TIP3    H177149   1.464   5.833  12.898  0.4857  0.1974 -1.0551
18578TIP3    H277150   1.344   5.917  12.858 -0.0175 -0.2319 -0.4624
18579TIP3   OH277151   2.472   2.147  16.568  0.3486  0.3592 -0.3318
18579TIP3    H177152   2.482   2.119  16.659  1.5356 -1.3291 -0.9268
18579TIP3    H277153   2.423   2.229  16.574 -3.1893 -1.6336  1.6072
18580TIP3   OH277154   4.683   1.100   4.960 -0.2302 -0.2923  0.0960
18580TIP3    H177155   4.700   1.101   4.865 -0.0112  0.9690  0.1416
18580TIP3    H277156   4.717   1.015   4.988  1.2073 -0.0275 -0.7015
18581TIP3   OH277157   5.812   0.858  11.000  0.3359 -0.0284 -0.4501
18581TIP3    H177158   5.771   0.835  10.916  0.9692 -0.4884 -0.6464
18581TIP3    H277159   5.892   0.906  10.976 -0.4784  1.5748 -0.0537
18582TIP3   OH277160   4.623   3.239  16.675 -0.0885  0.1210 -0.3308
18582TIP3    H177161   4.561   3.217  16.745 -0.7448  0.3374 -0.8424
18582TIP3    H277162   4.702   3.265  16.722 -0.3643 -0.1889  0.3312
18583TIP3   OH277163   1.340   1.148  11.059  0.8395 -0.3826  0.9166
18583TIP3    H177164   1.302   1.117  11.141  1.1286  1.6513  1.8873
18583TIP3    H277165   1.433   1.130  11.067  1.2385  1.8843  2.1245
18584TIP3   OH277166   0.094   6.027   5.896  0.2514  0.3778 -0.1962
18584TIP3    H177167   0.059   5.956   5.843  3.0011 -0.0693 -1.6033
18584TIP3    H277168   0.057   6.013   5.983 -2.2216 -0.5070 -1.3159
18585TIP3   OH277169   2.654   1.405   1.487  0.7223  0.8173 -0.5696
18585TIP3    H177170   2.730   1.367   1.531 -0.2328 -1.2794 -0.6224
18585TIP3    H277171   2.634   1.484   1.538  1.6571  0.2535  0.7169
18586TIP3   OH277172   4.312   1.042   4.380 -0.8556  0.2682 -0.1277
18586TIP3    H177173   4.385   1.096   4.411  2.5756 -2.9244 -1.8171
18586TIP3    H277174   4.283   0.994   4.458 -0.0388  0.4677  0.3173
18587TIP3   OH277175   1.384   5.568   3.394  0.0349 -0.0741 -0.4289
18587TIP3    H177176   1.357   5.564   3.486 -0.2206  1.2010 -0.4220
18587TIP3    H277177   1.336   5.497   3.351  0.2678 -0.7706  0.4406
18588TIP3   OH277178   3.672   4.554   4.150 -0.0608  0.0726 -0.1196
18588TIP3    H177179   3.670   4.480   4.089 -3.1398 -2.8008  3.0072
18588TIP3    H277180   3.727   4.525   4.222 -1.0917  0.9040  1.0605
18589TIP3   OH277181   2.474   5.078  14.350 -0.1933 -0.2647 -0.1374
18589TIP3    H177182   2.408   5.066  14.282  0.2414  0.4198 -0.6907
18589TIP3    H277183   2.504   4.989  14.369 -1.8554 -0.6781  0.7304
18590TIP3   OH277184   0.513   2.025  11.865  1.0638 -0.2825 -0.7608
18590TIP3    H177185   0.598   2.040  11.824  2.7207 -0.4857  2.3388
18590TIP3    H277186   0.465   2.107  11.852  1.8728  0.0070 -2.1440
18591TIP3   OH277187   4.813   6.492   1.207  0.0369 -0.4953  0.3118
18591TIP3    H177188   4.887   6.498   1.267 -0.2986  2.4255  0.5464
18591TIP3    H277189   4.829   6.559   1.141 -2.3308  0.1769  0.3184
18592TIP3   OH277190   3.012   1.650   0.885  0.0865  1.1775  0.2938
18592TIP3    H177191   3.048   1.584   0.944 -0.8786 -0.5331 -0.9509
18592TIP3    H277192   3.089   1.692   0.846  0.9211 -1.9675 -1.8471
18593TIP3   OH277193   5.643   6.475  13.521  0.4301  0.1856 -0.1339
18593TIP3    H177194   5.737   6.479  13.537  0.6130  2.5235 -1.4265
18593TIP3    H277195   5.608   6.429  13.598  2.5049 -0.0359  0.7594
18594TIP3   OH277196   5.100   6.332   1.542  0.4062 -0.0474 -0.4086
18594TIP3    H177197   5.155   6.268   1.497  0.0154 -0.9453  0.3635
18594TIP3    H277198   5.042   6.280   1.597 -0.9490  0.9047 -0.8905
18595TIP3   OH277199   5.387   0.837   1.469  0.6306 -0.2496  0.1549
18595TIP3    H177200   5.317   0.773   1.454  0.0138  0.3383  0.4783
18595TIP3    H277201   5.463   0.800   1.424  0.4125 -1.4398  0.7130
18596TIP3   OH277202   4.117   3.539  15.563  0.2198 -0.0301  0.2179
18596TIP3    H177203   4.157   3.621  15.592  1.3977  0.0081 -1.3912
18596TIP3    H277204   4.084   3.558  15.476 -0.8203 -0.8743  0.4143
18597TIP3   OH277205   3.054   5.946  16.054 -0.0637  0.4305 -0.2654
18597TIP3    H177206   3.004   5.981  15.981 -0.9549 -0.0751  0.0787
18597TIP3    H277207   3.142   5.933  16.019 -0.4065  0.4576 -1.1699
18598TIP3   OH277208   6.616   4.412   5.493  0.6228 -0.3884  0.5714
18598TIP3    H177209   6.655   4.483   5.442 -1.0479 -0.0618 -0.3253
18598TIP3    H277210   6.688   4.351   5.510  1.3594 -0.2533 -1.7631
18599TIP3   OH277211   2.752   5.668  13.477 -0.0111  0.5474 -0.3257
18599TIP3    H177212   2.805   5.742  13.505 -0.0163 -0.0438  1.3997
18599TIP3    H277213   2.814   5.595  13.473 -0.0241  0.5932 -1.9181
18600TIP3   OH277214   1.646   4.993   0.008  0.1681  0.2306 -0.0909
18600TIP3    H177215   1.724   4.943  -0.015  0.0738  0.3688 -0.7333
18600TIP3    H277216   1.648   5.069  -0.050 -0.7399 -0.0441 -0.4989
18601TIP3   OH277217   3.982   4.219  14.366  0.5337  0.3909  0.2348
18601TIP3    H177218   3.887   4.210  14.360  0.3223  1.4026  1.5783
18601TIP3    H277219   4.013   4.197  14.278 -0.6970 -2.5198  0.4242
18602TIP3   OH277220   4.468   6.538   4.379 -0.4484 -0.3254 -0.1247
18602TIP3    H177221   4.457   6.502   4.467 -0.6869 -1.2122 -0.5030
18602TIP3    H277222   4.413   6.617   4.379 -0.9042 -0.6307  0.3483
18603TIP3   OH277223   4.249   2.100   3.194  0.0934  0.2393  0.1967
18603TIP3    H177224   4.195   2.112   3.272 -1.2472  0.9941 -0.8035
18603TIP3    H277225   4.331   2.061   3.227 -1.2964 -1.6246  1.6922
18604TIP3   OH277226   1.339   1.901  16.974 -0.0716 -0.5630  0.4431
18604TIP3    H177227   1.382   1.875  16.893  1.2462  0.8569  0.6246
18604TIP3    H277228   1.371   1.990  16.990 -0.9703 -0.4916  2.0720
18605TIP3   OH277229   5.051   5.337   1.108 -0.1706  0.0429 -0.1651
18605TIP3    H177230   4.981   5.355   1.171  0.2231 -1.1652  0.6639
18605TIP3    H277231   5.014   5.270   1.051  0.2985 -0.6185  0.2918
18606TIP3   OH277232   5.886   5.683  13.112 -0.2017  0.5386  0.1114
18606TIP3    H177233   5.894   5.602  13.162 -0.3197  0.8866  0.7161
18606TIP3    H277234   5.867   5.655  13.023  3.0820 -0.2140 -0.4743
18607TIP3   OH277235   4.762   2.420   4.957  0.0688 -0.2503 -0.3234
18607TIP3    H177236   4.811   2.482   5.011 -0.0098 -0.1694 -0.3452
18607TIP3    H277237   4.686   2.397   5.010 -0.9884  1.2197 -1.1092
18608TIP3   OH277238   0.824   4.770   4.518 -0.1785  0.1015  0.1112
18608TIP3    H177239   0.737   4.807   4.511  0.2859  1.1672 -0.1477
18608TIP3    H277240   0.812   4.690   4.570 -1.2077  0.5379  0.5623
18609TIP3   OH277241   5.515   3.089   2.950  0.0940  0.1890 -0.0095
18609TIP3    H177242   5.456   3.055   3.017  0.8959  0.1651  0.6977
18609TIP3    H277243   5.511   3.184   2.961  0.3627  0.1768  0.1879
18610TIP3   OH277244   2.640   0.354   2.549 -0.1139  0.2577 -0.2270
18610TIP3    H177245   2.573   0.349   2.480 -2.2915 -0.0951  1.7642
18610TIP3    H277246   2.604   0.301   2.620  1.1495  2.0566  1.8697
18611TIP3   OH277247   5.808   6.380   4.323 -0.0750  0.2860  0.3442
18611TIP3    H177248   5.720   6.358   4.294 -0.1907  2.3064 -1.0328
18611TIP3    H277249   5.862   6.373   4.244  1.1110 -1.2151  1.2265
18612TIP3   OH277250   4.736   5.153   3.416  0.1952  0.4335  0.4504
18612TIP3    H177251   4.791   5.081   3.448 -1.6322 -1.4325 -0.3591
18612TIP3    H277252   4.796   5.209   3.366  2.0597  0.6122  2.7301
18613TIP3   OH277253   0.554   6.379  14.249  0.3216 -0.2297  0.5224
18613TIP3    H177254   0.464   6.374  14.218  0.5779 -1.0036 -0.1714
18613TIP3    H277255   0.605   6.395  14.169  0.7405  0.8641  1.0022
18614TIP3   OH277256   5.796   5.327  12.918  0.3450  0.2802  0.3974
18614TIP3    H177257   5.860   5.397  12.928 -0.3865  0.9387  0.5583
18614TIP3    H277258   5.848   5.247  12.921  1.3625  0.8344 -1.0957
18615TIP3   OH277259   5.311   5.253  12.395  0.9335  0.1483  0.4769
18615TIP3    H177260   5.402   5.246  12.365  0.5809 -2.8899 -0.2867
18615TIP3    H277261   5.271   5.316  12.335  1.8048 -0.9399 -1.3393
18616TIP3   OH277262   2.021   0.829  15.272 -0.3663  0.4703  0.1446
18616TIP3    H177263   2.112   0.828  15.240 -0.5115 -0.0392 -0.2594
18616TIP3    H277264   1.982   0.749  15.237 -1.3974  1.4045 -0.9083
18617TIP3   OH277265   1.068   1.259   5.441  0.1258  0.0647  0.2120
18617TIP3    H177266   1.042   1.350   5.452  0.4749 -0.0065  1.7821
18617TIP3    H277267   1.119   1.238   5.519  0.7955 -1.2256 -0.5328
18618TIP3   OH277268   4.905   6.517  14.026  0.2362 -0.0178  0.4681
18618TIP3    H177269   4.894   6.424  14.047  1.8822 -0.0103  1.5159
18618TIP3    H277270   4.891   6.562  14.109  0.9190  0.5358  0.2895
18619TIP3   OH277271   2.548   0.021  14.979 -0.1682  0.1938  1.2500
18619TIP3    H177272   2.606   0.085  15.020  1.7754 -0.8571  0.2938
18619TIP3    H277273   2.561  -0.059  15.029  0.4040 -0.4612  0.0807
18620TIP3   OH277274   1.848   1.740  11.445 -0.1196 -0.7064  0.1964
18620TIP3    H177275   1.861   1.656  11.491 -1.6252  0.3705  2.8649
18620TIP3    H277276   1.933   1.783  11.449  0.2902 -1.4817  0.1423
18621TIP3   OH277277   4.386   4.064  13.965  0.0661  0.2050  0.0961
18621TIP3    H177278   4.354   4.121  13.895  0.8546  1.7070  0.9132
18621TIP3    H277279   4.450   4.007  13.922  1.2511  1.7469 -0.2838
18622TIP3   OH277280   5.330   3.647  16.795  0.0303 -0.0562 -0.5854
18622TIP3    H177281   5.402   3.615  16.849  0.8058  1.4675 -0.6608
18622TIP3    H277282   5.291   3.568  16.758  0.9131 -0.9890  0.3912
18623TIP3   OH277283   1.414   4.690  12.967  0.4273 -0.5590  0.3633
18623TIP3    H177284   1.496   4.648  12.993  1.8183  2.6519  1.5849
18623TIP3    H277285   1.381   4.635  12.896  4.1629 -1.3850 -0.9489
18624TIP3   OH277286   5.400   3.541   1.089 -0.0959 -0.1068 -0.2939
18624TIP3    H177287   5.328   3.548   1.151 -1.2371 -0.4105 -1.5341
18624TIP3    H277288   5.399   3.449   1.061  0.4890 -0.0148 -0.6452
18625TIP3   OH277289   2.529   4.923   3.288 -0.1053  0.0903 -0.0712
18625TIP3    H177290   2.608   4.907   3.236  0.9785  1.7940  0.9500
18625TIP3    H277291   2.464   4.950   3.223 -0.4280 -2.8794 -1.1358
18626TIP3   OH277292   4.139   2.880   2.490  0.2311 -0.5810  0.1461
18626TIP3    H177293   4.126   2.861   2.397  1.2681 -1.1008  0.0979
18626TIP3    H277294   4.067   2.940   2.512  1.2459  1.3754 -1.5243
18627TIP3   OH277295   0.762   5.473  16.062  0.5094 -0.0252 -0.0334
18627TIP3    H177296   0.765   5.493  16.155 -0.1946 -0.1657  0.0237
18627TIP3    H277297   0.711   5.544  16.023  0.3188 -0.2690 -0.2311
18628TIP3   OH277298   4.765   5.780  16.230  0.2385  0.1453 -0.0458
18628TIP3    H177299   4.681   5.777  16.184  0.1285  0.8071  0.0964
18628TIP3    H277300   4.778   5.691  16.262  0.3860 -0.3761 -1.4641
18629TIP3   OH277301   1.589   2.754   2.249 -0.5023 -0.0706 -0.5171
18629TIP3    H177302   1.646   2.677   2.241 -0.8099 -0.2188 -1.3305
18629TIP3    H277303   1.523   2.728   2.314  1.2953  0.7044  1.7844
18630TIP3   OH277304   0.283   6.128  15.065  0.2935 -0.2050 -0.1492
18630TIP3    H177305   0.317   6.211  15.099  0.9555 -0.3522 -0.4350
18630TIP3    H277306   0.191   6.127  15.091  0.8462 -0.5050  2.0273
18631TIP3   OH277307   6.722   2.500  16.726 -0.1281 -0.2271  0.4402
18631TIP3    H177308   6.638   2.528  16.762 -1.0073 -2.7860  0.5526
18631TIP3    H277309   6.700   2.464  16.640  0.9556 -0.3321  0.1947
18632TIP3   OH277310   4.858   2.370   4.176 -0.2226  0.4746  0.0996
18632TIP3    H177311   4.946   2.333   4.181  1.1985  3.6123  0.8084
18632TIP3    H277312   4.815   2.340   4.256  0.6778 -0.0733  0.3954
18633TIP3   OH277313   0.276   0.634   3.276 -0.1807 -0.4130  0.3025
18633TIP3    H177314   0.315   0.703   3.329  0.1793 -1.9228  2.0561
18633TIP3    H277315   0.348   0.599   3.225 -0.1426 -0.2728  0.2578
18634TIP3   OH277316   4.738   3.600  14.514  0.6019  0.5120 -0.3976
18634TIP3    H177317   4.663   3.636  14.467 -0.8590 -0.3980  1.1458
18634TIP3    H277318   4.776   3.535  14.455  0.8358  1.6955 -1.5954
18635TIP3   OH277319   5.965   1.148   5.528 -0.0358  0.1068  0.5885
18635TIP3    H177320   5.926   1.199   5.457 -0.8022  0.1885  1.0657
18635TIP3    H277321   6.025   1.088   5.484 -0.9099 -0.2212 -0.1698
18636TIP3   OH277322   1.050   1.252   1.513 -0.2917 -0.0509  0.1735
18636TIP3    H177323   1.003   1.324   1.555  0.2859 -0.0906  0.8895
18636TIP3    H277324   0.980   1.194   1.481 -0.7448  0.4449  0.2505
18637TIP3   OH277325   2.701   2.222  15.042 -0.0198 -0.3560  0.2540
18637TIP3    H177326   2.633   2.176  14.993  0.7563 -0.1546 -1.0503
18637TIP3    H277327   2.700   2.311  15.007  1.2011 -0.4689 -0.0975
18638TIP3   OH277328   2.669   5.234   4.819  0.2345  0.2969 -0.4447
18638TIP3    H177329   2.675   5.162   4.882  1.6838 -1.7268 -2.7075
18638TIP3    H277330   2.756   5.237   4.779 -0.8073  1.0014 -2.8148
18639TIP3   OH277331   0.370   3.404  14.532  0.4435  0.7045  0.2007
18639TIP3    H177332   0.357   3.384  14.440  1.0544 -0.8536  0.4329
18639TIP3    H277333   0.283   3.395  14.571  0.6429 -1.4571  0.2549
18640TIP3   OH277334   1.601   4.141   2.239  0.4652  0.2997 -0.0851
18640TIP3    H177335   1.571   4.119   2.151 -0.9027  1.2497  0.1145
18640TIP3    H277336   1.696   4.135   2.234  0.6480  2.9367 -2.3943
18641TIP3   OH277337   5.591   2.949   2.582 -0.0246 -0.0888 -0.3017
18641TIP3    H177338   5.513   2.962   2.637 -0.1263  0.2161 -0.5167
18641TIP3    H277339   5.664   2.973   2.638 -0.1788  1.0598 -0.5607
18642TIP3   OH277340   1.018   3.089  11.552 -0.3022 -0.0718  0.2849
18642TIP3    H177341   1.104   3.049  11.536 -0.1653  1.0144 -2.2206
18642TIP3    H277342   0.977   3.033  11.617  2.0057 -1.0616  0.9803
18643TIP3   OH277343   2.691   1.293   0.289 -0.3455  0.0487 -0.4342
18643TIP3    H177344   2.775   1.334   0.267 -0.2268  0.4462  0.6620
18643TIP3    H277345   2.661   1.342   0.365 -1.0798 -0.7597 -0.1921
18644TIP3   OH277346   4.841   0.102  16.131  0.0992  0.1795 -0.4203
18644TIP3    H177347   4.749   0.078  16.135  0.4340 -1.0031  0.9324
18644TIP3    H277348   4.886   0.021  16.109  0.9172  0.4979  0.0485
18645TIP3   OH277349   2.443   0.354   1.549 -0.3959 -0.2697 -0.4860
18645TIP3    H177350   2.517   0.356   1.611 -0.6190 -0.9727 -0.1851
18645TIP3    H277351   2.397   0.437   1.564  1.6929  1.3489 -2.3973
18646TIP3   OH277352   4.074   1.983  10.986 -0.5817 -0.4612 -0.6638
18646TIP3    H177353   3.986   1.976  11.023 -0.6712 -0.0634 -0.7933
18646TIP3    H277354   4.062   2.031  10.904 -0.0125  1.4404  0.2989
18647TIP3   OH277355   1.409   4.513   1.280  0.0223 -0.6025 -0.2047
18647TIP3    H177356   1.382   4.527   1.371  1.4829 -1.7714  0.4626
18647TIP3    H277357   1.366   4.583   1.231  0.0145  0.7040  1.5481
18648TIP3   OH277358   5.393   1.107   0.191 -0.1766 -0.2710 -0.2160
18648TIP3    H177359   5.325   1.042   0.173 -0.4989 -0.5822  1.8159
18648TIP3    H277360   5.353   1.164   0.257  1.1345  0.2065  0.1793
18649TIP3   OH277361   3.515   1.000   1.930  0.8662  0.3573 -0.4445
18649TIP3    H177362   3.586   1.020   1.990  1.2456 -3.7219  0.7446
18649TIP3    H277363   3.557   0.996   1.844  1.0918  2.3803 -0.4680
18650TIP3   OH277364   5.615   0.855  14.457  0.3719 -0.1895  0.5486
18650TIP3    H177365   5.630   0.780  14.399  0.0030  1.6638 -2.1249
18650TIP3    H277366   5.701   0.894  14.468  0.1897  0.5310 -0.3990
18651TIP3   OH277367   6.367   5.856   2.334 -0.6937 -0.1710  0.1587
18651TIP3    H177368   6.321   5.800   2.396 -1.0988  1.8024  1.7465
18651TIP3    H277369   6.308   5.930   2.319 -0.3966 -0.3340 -2.2625
18652TIP3   OH277370   2.329   6.427   5.067  0.4770 -0.1548 -0.1220
18652TIP3    H177371   2.253   6.430   5.127  0.1536 -0.1047 -0.5309
18652TIP3    H277372   2.292   6.398   4.984  0.7897  0.4980 -0.4993
18653TIP3   OH277373   0.748   4.944   4.044 -0.2393 -0.2988 -0.4113
18653TIP3    H177374   0.840   4.935   4.071 -0.3525 -1.1290 -0.2750
18653TIP3    H277375   0.719   5.025   4.085  0.8516  0.7661 -1.6510
18654TIP3   OH277376   1.124   6.708   5.088 -0.0209 -0.5496  0.3361
18654TIP3    H177377   1.151   6.660   5.010  0.5703  0.3900 -0.0542
18654TIP3    H277378   1.028   6.711   5.082  0.0444 -0.0461 -0.6325
18655TIP3   OH277379   5.947   3.726  12.961 -0.0212 -0.6245  0.6278
18655TIP3    H177380   5.960   3.781  13.038  3.5358  0.8214 -0.7837
18655TIP3    H277381   5.900   3.782  12.900  0.1153 -0.5573  0.5835
18656TIP3   OH277382   1.258   5.340   4.281  0.5527  0.5606 -0.1066
18656TIP3    H177383   1.195   5.273   4.254  0.8712  0.5834 -0.9387
18656TIP3    H277384   1.324   5.340   4.212  0.5336  1.7674 -0.1378
18657TIP3   OH277385   2.910   6.485   4.802  0.1290 -0.3602  0.2905
18657TIP3    H177386   2.821   6.484   4.768  1.0661  0.8856 -2.4938
18657TIP3    H277387   2.918   6.567   4.850 -0.6460 -1.2615  2.0683
18658TIP3   OH277388   4.791   3.551   0.231 -0.1935 -0.3139 -0.0145
18658TIP3    H177389   4.721   3.612   0.207  1.1787  2.0601  1.6120
18658TIP3    H277390   4.855   3.559   0.160 -1.1732 -2.0118 -1.1776
18659TIP3   OH277391   3.403   6.532   0.301 -0.1713 -0.0312  0.4176
18659TIP3    H177392   3.488   6.495   0.280  0.1214  0.0103  1.4831
18659TIP3    H277393   3.423   6.616   0.342 -0.7537  0.2494  0.1514
18660TIP3   OH277394   5.393   2.983  16.547  0.2197  0.1629 -0.0554
18660TIP3    H177395   5.376   3.075  16.528  0.5403  0.3935  0.7404
18660TIP3    H277396   5.306   2.945  16.559  0.1237  0.6081  0.6990
18661TIP3   OH277397   3.078   4.209   1.470 -0.0946  0.0082 -0.1510
18661TIP3    H177398   2.989   4.242   1.456 -0.0845  0.7149  1.2622
18661TIP3    H277399   3.126   4.283   1.507  1.5012  0.0730 -2.1654
18662TIP3   OH277400   5.731   1.241   0.303  0.1729 -0.1882  0.1388
18662TIP3    H177401   5.697   1.280   0.222 -0.7016 -0.3947  0.4038
18662TIP3    H277402   5.758   1.316   0.356  0.1834 -0.0236 -0.0982
18663TIP3   OH277403   2.385   5.659  16.862 -0.7489  0.0095 -0.6512
18663TIP3    H177404   2.431   5.577  16.877 -0.8633  0.1077  0.2940
18663TIP3    H277405   2.370   5.662  16.768 -2.2900 -1.8670 -0.5191
18664TIP3   OH277406   6.415   3.542  13.980  0.1752  0.4879  0.0669
18664TIP3    H177407   6.331   3.559  14.024  0.0028  1.9444 -0.7488
18664TIP3    H277408   6.478   3.533  14.052 -0.1759  2.3659  0.6800
18665TIP3   OH277409   6.314   0.331   6.539  0.1360  0.3362  0.7165
18665TIP3    H177410   6.325   0.250   6.589  0.1274  1.1753  2.1337
18665TIP3    H277411   6.361   0.396   6.590 -1.1150  1.5301  0.3885
18666TIP3   OH277412   0.313   2.434   2.755 -0.1419 -0.5316  0.0031
18666TIP3    H177413   0.241   2.429   2.692 -1.2470 -0.9264  1.2495
18666TIP3    H277414   0.349   2.521   2.743 -1.3575 -0.0193 -0.1117
18667TIP3   OH277415   0.723   5.192  16.500  0.0849  0.3778  0.1921
18667TIP3    H177416   0.812   5.179  16.468  0.4358 -0.5670  1.4826
18667TIP3    H277417   0.729   5.271  16.554 -0.0020  0.6587 -0.2048
18668TIP3   OH277418   1.368   0.481   6.328 -0.1582  0.6040  0.2459
18668TIP3    H177419   1.461   0.462   6.340 -0.3086  0.0017  0.5211
18668TIP3    H277420   1.346   0.543   6.398 -0.4672 -0.9875  1.6158
18669TIP3   OH277421   1.792   3.456  12.454  0.4957  0.5029 -0.2890
18669TIP3    H177422   1.706   3.491  12.432  1.7244  3.4502 -0.7945
18669TIP3    H277423   1.825   3.420  12.372  0.2036  0.3584 -0.3477
18670TIP3   OH277424   3.177   0.402  14.971 -0.3474  0.4957  0.9076
18670TIP3    H177425   3.114   0.459  15.015  1.7709  2.4969  1.5412
18670TIP3    H277426   3.202   0.450  14.893 -0.2729 -0.7013  0.1695
18671TIP3   OH277427   4.924   1.733  12.340  0.1178 -0.0378 -0.1931
18671TIP3    H177428   4.876   1.812  12.366  2.1591  0.7747  1.3230
18671TIP3    H277429   4.901   1.721  12.248  0.2563  2.7331 -0.6959
18672TIP3   OH277430   5.615   1.712  17.259 -0.3734 -0.5206 -0.0277
18672TIP3    H177431   5.674   1.647  17.298  0.8538 -0.0318 -1.0214
18672TIP3    H277432   5.593   1.675  17.173  0.5292  0.4674 -0.7021
18673TIP3   OH277433   0.056   0.575   3.501  0.0608 -0.2183 -0.0810
18673TIP3    H177434   0.009   0.650   3.537  0.5136 -0.1980  0.4832
18673TIP3    H277435   0.134   0.612   3.460  0.1866 -0.3605  0.0288
18674TIP3   OH277436   2.475   4.217   5.872 -0.0176  0.3753  0.4816
18674TIP3    H177437   2.484   4.183   5.961 -0.3423  1.0312  0.7732
18674TIP3    H277438   2.419   4.294   5.881 -0.5286  0.1207 -0.3731
18675TIP3   OH277439   6.118   1.317   3.625 -0.0138 -0.1110 -0.0639
18675TIP3    H177440   6.169   1.374   3.681  1.4737 -2.0161  0.6375
18675TIP3    H277441   6.130   1.352   3.537  1.1705  0.4387  0.3022
18676TIP3   OH277442   4.572   4.963  15.432  0.3652 -0.1616  0.5147
18676TIP3    H177443   4.536   5.049  15.450 -1.4142 -1.1235  1.9541
18676TIP3    H277444   4.616   4.971  15.348  1.8011  2.5685  1.4121
18677TIP3   OH277445   4.038   3.517  16.343  0.2179  0.2012 -0.4771
18677TIP3    H177446   4.014   3.528  16.251 -1.0344 -1.9945 -0.4847
18677TIP3    H277447   4.083   3.598  16.366 -1.8511  1.9962 -2.2580
18678TIP3   OH277448   5.103   6.078   0.474 -0.4146  0.1743  0.1005
18678TIP3    H177449   5.182   6.081   0.420 -0.0459 -0.1106  0.6173
18678TIP3    H277450   5.135   6.063   0.562 -1.0974 -0.7221  0.2070
18679TIP3   OH277451   1.401   0.211  12.822  0.1810  0.3273 -0.1562
18679TIP3    H177452   1.427   0.206  12.914  1.0392 -1.4909 -0.4655
18679TIP3    H277453   1.375   0.303  12.810 -1.4705  0.2775  2.2793
18680TIP3   OH277454   5.621   6.708   0.460 -0.2932 -0.5269  0.9577
18680TIP3    H177455   5.656   6.636   0.513 -1.0579 -0.2539  1.8513
18680TIP3    H277456   5.652   6.690   0.372  1.4048 -0.7381  1.5690
18681TIP3   OH277457   0.678   1.083  12.720  0.3138  0.2805  0.0163
18681TIP3    H177458   0.737   1.157  12.737  1.3641 -0.1745 -1.4668
18681TIP3    H277459   0.717   1.010  12.768  1.2465 -0.1330 -1.3408
18682TIP3   OH277460   2.024   0.710   1.680  0.3855 -0.2031  0.0976
18682TIP3    H177461   1.966   0.783   1.701  0.8594 -0.6666  3.5866
18682TIP3    H277462   1.975   0.659   1.615 -0.1150  2.8894 -2.1971
18683TIP3   OH277463   0.927   1.719  16.630 -0.5349 -0.2541 -0.5187
18683TIP3    H177464   0.936   1.623  16.636 -0.9522 -0.2404  0.6813
18683TIP3    H277465   0.998   1.752  16.686 -0.1726  0.1530 -1.2092
18684TIP3   OH277466   1.971   0.345  14.139  0.2197  0.3339 -0.5664
18684TIP3    H177467   1.999   0.298  14.061 -0.6487  0.8471 -1.2115
18684TIP3    H277468   1.963   0.436  14.110 -3.8112  0.0277 -1.0027
18685TIP3   OH277469   2.299   1.338   3.088  0.1729  0.1081  0.0123
18685TIP3    H177470   2.339   1.327   3.002  0.1090  2.2918 -0.3495
18685TIP3    H277471   2.366   1.309   3.150  0.5369 -0.6617 -0.7256
18686TIP3   OH277472   4.974   6.160  13.827  0.2022  0.4721 -0.2178
18686TIP3    H177473   5.051   6.127  13.874 -1.3038 -2.6763  0.2570
18686TIP3    H277474   4.911   6.182  13.896 -0.9169 -1.3177 -0.6095
18687TIP3   OH277475   0.426   5.345  12.001 -0.2247 -0.1566  0.3672
18687TIP3    H177476   0.505   5.392  12.029 -0.4759 -0.6002  1.9490
18687TIP3    H277477   0.367   5.351  12.077 -1.7562  0.2389 -0.8152
18688TIP3   OH277478   4.045   4.899  15.677  0.0245  0.6027  0.6040
18688TIP3    H177479   4.091   4.825  15.715  0.2664  0.6285  0.3680
18688TIP3    H277480   3.992   4.935  15.749 -0.7238 -0.2856  0.5178
18689TIP3   OH277481   4.369   4.933   5.478 -0.2592 -0.0276 -0.0087
18689TIP3    H177482   4.363   4.860   5.417  1.2297  0.3939 -0.7138
18689TIP3    H277483   4.462   4.936   5.502  0.1015  2.6240 -1.3154
18690TIP3   OH277484   6.449   6.325  13.384  0.1691 -0.0081 -0.2401
18690TIP3    H177485   6.433   6.383  13.309  1.2335 -1.0828 -1.3314
18690TIP3    H277486   6.473   6.241  13.345 -0.2640 -0.8940  1.3159
18691TIP3   OH277487   1.982   3.318  16.978  0.2058  0.3670 -0.2990
18691TIP3    H177488   1.918   3.279  16.918 -1.8731 -0.6592  2.3515
18691TIP3    H277489   1.934   3.389  17.020  0.1630 -1.3255  2.8084
18692TIP3   OH277490   3.799   5.647   4.548 -0.6799  0.1411  0.1355
18692TIP3    H177491   3.893   5.657   4.563  0.1634 -1.2053 -3.3415
18692TIP3    H277492   3.758   5.684   4.627  2.6781  2.0043  1.2060
18693TIP3   OH277493   3.280   1.850   4.862  0.2413 -0.4655 -0.2182
18693TIP3    H177494   3.344   1.827   4.930 -0.3553 -0.3122  0.4080
18693TIP3    H277495   3.203   1.797   4.883 -1.4367  2.4730  1.6742
18694TIP3   OH277496   5.429   6.214  15.322 -0.1650 -0.6544 -0.7215
18694TIP3    H177497   5.490   6.285  15.303  1.1810 -1.5259  0.1337
18694TIP3    H277498   5.343   6.256  15.327  0.4265  0.6956 -1.4199
18695TIP3   OH277499   4.717   0.001   4.391  0.5430 -0.0945  0.1689
18695TIP3    H177500   4.729  -0.069   4.328 -1.4546 -0.5978  0.2575
18695TIP3    H277501   4.762   0.076   4.354 -1.5732 -0.0147 -2.5284
18696TIP3   OH277502   3.868   1.574   5.289 -0.0737 -0.5403  0.6336
18696TIP3    H177503   3.888   1.570   5.195 -2.4701 -1.3047  0.0684
18696TIP3    H277504   3.907   1.494   5.325 -0.6138 -1.1495 -0.0849
18697TIP3   OH277505   2.406   5.063   3.504  0.2019 -0.5327 -0.3083
18697TIP3    H177506   2.442   5.140   3.461 -1.7356  0.1793 -0.7608
18697TIP3    H277507   2.432   4.989   3.448  0.3200  0.0430 -1.0236
18698TIP3   OH277508   5.031   1.224  11.599 -0.1832 -0.4226 -0.1913
18698TIP3    H177509   4.980   1.304  11.589 -0.1855 -0.2124  1.3027
18698TIP3    H277510   5.082   1.217  11.518 -3.1568 -1.1055 -2.1831
18699TIP3   OH277511   5.684   4.779  11.783  0.4378  0.8809 -0.5384
18699TIP3    H177512   5.612   4.816  11.732 -0.1827  2.7476  1.5381
18699TIP3    H277513   5.662   4.687  11.793 -0.9832  1.1462 -1.0335
18700TIP3   OH277514   6.079   3.075   3.401  0.1036 -0.0655 -0.0895
18700TIP3    H177515   6.151   3.130   3.433  0.1187 -0.6648  0.9362
18700TIP3    H277516   6.008   3.091   3.462 -0.4713  0.1215 -0.7965
18701TIP3   OH277517   1.598   2.323   2.551  0.3217  0.6684  0.5558
18701TIP3    H177518   1.507   2.352   2.550 -0.3727 -1.3615  0.2793
18701TIP3    H277519   1.632   2.348   2.464 -1.2555 -2.1539 -0.9981
18702TIP3   OH277520   2.775   2.576  15.217 -0.0528 -0.3938 -0.0433
18702TIP3    H177521   2.823   2.504  15.259  0.9086  0.9958  1.3610
18702TIP3    H277522   2.758   2.545  15.128 -3.3927 -4.0725  1.5921
18703TIP3   OH277523   6.580   6.038  12.725 -0.9128  0.0549 -0.3941
18703TIP3    H177524   6.532   6.022  12.806  3.5666 -1.7780  2.2993
18703TIP3    H277525   6.623   5.954  12.705  1.6626  1.5970 -2.0282
18704TIP3   OH277526   3.145   1.593  11.329 -0.2242  0.2039 -0.0041
18704TIP3    H177527   3.226   1.644  11.329  0.1020 -0.2897 -0.8914
18704TIP3    H277528   3.141   1.554  11.241 -0.3103 -1.5174  0.7308
18705TIP3   OH277529   5.879   6.457   3.909  0.4723 -0.3072  0.3007
18705TIP3    H177530   5.885   6.532   3.850 -0.4724 -1.5709 -1.4951
18705TIP3    H277531   5.788   6.456   3.936  0.7493 -0.1477  1.2614
18706TIP3   OH277532   5.510   4.125  12.698 -0.5029 -0.4391  0.3874
18706TIP3    H177533   5.495   4.066  12.772 -1.2962 -1.6066 -0.6539
18706TIP3    H277534   5.605   4.126  12.687 -0.4074 -0.6010  1.1406
18707TIP3   OH277535   4.917   4.053  15.902  0.2373 -0.2658 -0.6646
18707TIP3    H177536   4.980   3.994  15.944  1.1288  1.3881  0.4233
18707TIP3    H277537   4.971   4.120  15.861 -0.7821  0.8077 -0.3029
18708TIP3   OH277538   4.889   5.124   4.744 -0.2387 -0.3459  0.2976
18708TIP3    H177539   4.927   5.038   4.762  0.8634  0.3033  1.2609
18708TIP3    H277540   4.874   5.125   4.650  0.0414 -1.4588  0.2258
18709TIP3   OH277541   2.895   3.972   0.264 -0.0122  0.4671 -0.1316
18709TIP3    H177542   2.807   3.981   0.228  0.4846  0.5399 -1.3586
18709TIP3    H277543   2.923   4.062   0.282  0.6456  0.6365 -1.8430
18710TIP3   OH277544   5.936   5.514   1.412 -0.5211  0.1003  0.6039
18710TIP3    H177545   5.960   5.446   1.476 -0.8941 -1.2962 -0.6661
18710TIP3    H277546   6.007   5.578   1.417  2.5422 -2.8123 -1.5444
18711TIP3   OH277547   0.438   2.463   2.087  0.2739  0.3289  0.1792
18711TIP3    H177548   0.428   2.557   2.104 -1.3678  0.0904  0.7550
18711TIP3    H277549   0.526   2.442   2.119  0.6208  1.6290  0.1546
18712TIP3   OH277550   3.689   3.790   0.298  0.4997 -0.4688 -0.5663
18712TIP3    H177551   3.597   3.813   0.301  0.6996  0.2474  1.6772
18712TIP3    H277552   3.696   3.727   0.226 -1.6563 -0.3131 -0.9578
18713TIP3   OH277553   5.698   1.334  14.400 -0.0212 -0.1167  0.7966
18713TIP3    H177554   5.609   1.369  14.403  0.3116  0.6925  1.9765
18713TIP3    H277555   5.711   1.308  14.309 -0.9023  1.2507  0.2532
18714TIP3   OH277556   5.442   3.586  16.448 -0.1222 -0.2495 -0.3781
18714TIP3    H177557   5.363   3.559  16.496  0.2449  1.8209  1.5379
18714TIP3    H277558   5.511   3.587  16.514  0.5796  2.0024 -1.0570
18715TIP3   OH277559   1.884   4.549   2.890 -0.0329  0.2276 -0.1542
18715TIP3    H177560   1.926   4.539   2.975  1.6652  0.0887 -0.9627
18715TIP3    H277561   1.861   4.460   2.863 -0.2167  0.2344 -0.0235
18716TIP3   OH277562   1.053   4.350   3.892  0.0002 -0.2470 -0.5114
18716TIP3    H177563   0.982   4.287   3.883  0.0522 -0.1348 -1.8462
18716TIP3    H277564   1.077   4.346   3.985 -0.6598 -1.4557 -0.3770
18717TIP3   OH277565   0.009   2.072  13.276  0.2193 -0.3106  0.0071
18717TIP3    H177566  -0.015   2.039  13.190 -0.7738 -2.1784  0.9288
18717TIP3    H277567  -0.068   2.119  13.306 -0.1971 -1.3432  0.6267
18718TIP3   OH277568   0.547   5.535   2.852  0.9458 -0.0580 -0.3900
18718TIP3    H177569   0.501   5.581   2.782 -1.2477 -0.0785  0.9229
18718TIP3    H277570   0.632   5.514   2.816  1.1314  2.8201 -1.9236
18719TIP3   OH277571   2.117   2.162   5.041 -0.0170 -0.0114 -0.0457
18719TIP3    H177572   2.187   2.199   5.094 -0.0394 -0.7365  0.4976
18719TIP3    H277573   2.156   2.085   5.000 -0.0901  0.3676 -0.8562
18720TIP3   OH277574   5.820   5.867  11.559 -0.0224 -1.2157  0.2228
18720TIP3    H177575   5.874   5.856  11.637  1.7577 -0.1644 -0.7945
18720TIP3    H277576   5.802   5.961  11.555 -1.6589 -1.4868  0.3182
18721TIP3   OH277577   3.647   0.136  12.368 -0.1505 -0.4953  0.7307
18721TIP3    H177578   3.638   0.073  12.440 -0.3077 -1.3160  0.0022
18721TIP3    H277579   3.694   0.209  12.407  0.5324 -1.2960  1.4487
18722TIP3   OH277580   4.506   3.435   3.758  0.6461 -1.0333 -0.8636
18722TIP3    H177581   4.423   3.446   3.804  0.5574  0.1192 -1.2731
18722TIP3    H277582   4.572   3.438   3.828  0.4151 -0.9809 -0.6446
18723TIP3   OH277583   1.319   0.494   2.950 -0.5139  0.1691 -0.1656
18723TIP3    H177584   1.286   0.525   2.866 -0.6722  2.2140  0.5976
18723TIP3    H277585   1.412   0.478   2.935 -0.8408 -0.9012 -1.0887
18724TIP3   OH277586   3.939   2.247  16.806  0.2613  0.2087 -0.3735
18724TIP3    H177587   3.996   2.180  16.768  1.1184  0.8686 -0.2828
18724TIP3    H277588   3.932   2.223  16.899  1.3783  0.7694 -0.1239
18725TIP3   OH277589   5.062   0.098   1.395  0.1986  0.2706 -0.2522
18725TIP3    H177590   5.020   0.161   1.337  1.3132 -0.2304 -1.6632
18725TIP3    H277591   5.108   0.038   1.337  0.9748 -0.5512  1.1376
18726TIP3   OH277592   1.992   3.193   2.073  0.8136  0.4457  0.2172
18726TIP3    H177593   1.975   3.182   1.979  0.7344 -1.9200  0.4507
18726TIP3    H277594   1.958   3.281   2.093 -2.2144 -0.2202 -1.3356
18727TIP3   OH277595   2.929   3.775   2.671 -0.1678 -0.0862  0.0755
18727TIP3    H177596   2.956   3.720   2.597 -0.2528  2.4162 -1.9558
18727TIP3    H277597   3.004   3.773   2.731  0.6529 -0.7933 -0.9363
18728TIP3   OH277598   4.020   4.980   5.014  0.0124 -0.1420 -0.0600
18728TIP3    H177599   3.986   4.951   4.929  1.2420 -1.6835 -0.0808
18728TIP3    H277600   4.037   5.073   5.003 -0.3557 -0.2103 -1.3374
18729TIP3   OH277601   2.312   3.704  15.482  0.2670 -0.4725  0.4945
18729TIP3    H177602   2.401   3.698  15.447  0.2243  0.0498  0.2805
18729TIP3    H277603   2.287   3.795  15.467  0.6147  0.0657  2.8102
18730TIP3   OH277604   2.006   6.231  13.452  0.9864 -0.2979 -0.2511
18730TIP3    H177605   2.066   6.249  13.380  0.1224  2.2483 -0.4122
18730TIP3    H277606   2.007   6.310  13.506 -1.1381 -0.7155  0.5090
18731TIP3   OH277607   3.338   0.529   0.561  0.5118  0.1862  0.0851
18731TIP3    H177608   3.254   0.552   0.520  0.3923 -1.7921 -0.8960
18731TIP3    H277609   3.404   0.550   0.495  0.7022  0.7610  0.4535
18732TIP3   OH277610   1.984   4.236  13.080 -0.4027 -0.1600  0.6523
18732TIP3    H177611   1.980   4.229  12.985 -3.1247  1.7609  0.5171
18732TIP3    H277612   2.035   4.315  13.096 -0.3580 -0.2187  0.8080
18733TIP3   OH277613   1.895   2.493  12.684  0.7084 -0.2949 -0.2880
18733TIP3    H177614   1.812   2.444  12.681 -0.2003  1.1212  0.6605
18733TIP3    H277615   1.908   2.523  12.594 -0.8255  1.0412 -0.1140
18734TIP3   OH277616   2.258   1.538   5.612 -0.6605 -0.5928  1.0134
18734TIP3    H177617   2.191   1.475   5.586 -1.3106  0.6212 -0.4112
18734TIP3    H277618   2.229   1.621   5.572  1.8397 -0.0789  0.1228
18735TIP3   OH277619   1.566   4.216   3.844 -0.9349  0.5137 -0.0350
18735TIP3    H177620   1.601   4.266   3.770  1.5484 -0.0769  0.6541
18735TIP3    H277621   1.551   4.128   3.810 -0.2939  0.3842 -0.0066
18736TIP3   OH277622   1.581   4.017   6.295 -0.4481  0.5208 -0.1519
18736TIP3    H177623   1.544   4.061   6.372  1.5538  1.6914  0.2136
18736TIP3    H277624   1.672   3.999   6.319  0.2621  0.9909 -2.2519
18737TIP3   OH277625   6.527   0.415  14.289  0.0602  0.1176  0.4710
18737TIP3    H177626   6.537   0.388  14.198 -0.3589 -1.5266  0.8649
18737TIP3    H277627   6.609   0.390  14.331  0.3166  1.0187  0.5300
18738TIP3   OH277628   0.347   3.021   0.576  0.3270  0.0393 -0.1899
18738TIP3    H177629   0.357   3.098   0.632 -2.4999 -0.3027  0.9370
18738TIP3    H277630   0.328   3.057   0.489 -1.9956  0.7060  0.5350
18739TIP3   OH277631   0.548   3.178  12.159  0.2539 -0.2978 -0.4921
18739TIP3    H177632   0.474   3.118  12.166  0.9177 -1.0721  0.0726
18739TIP3    H277633   0.622   3.128  12.192  1.0469  0.4450 -1.1120
18740TIP3   OH277634   3.107   6.303   2.499 -0.3361 -0.2502  0.4014
18740TIP3    H177635   3.077   6.292   2.409  0.2766  0.5153  0.0864
18740TIP3    H277636   3.072   6.227   2.545 -0.1358 -0.9915 -0.6185
18741TIP3   OH277637   2.598   1.801   2.193  0.2989 -0.1265  0.1783
18741TIP3    H177638   2.604   1.718   2.239  4.8715 -0.7606 -1.0498
18741TIP3    H277639   2.624   1.867   2.257 -1.1112  0.1245  0.5290
18742TIP3   OH277640   3.708   4.023  16.527 -0.7844  0.0637 -0.2739
18742TIP3    H177641   3.628   4.011  16.578  0.4372 -0.0918  1.7296
18742TIP3    H277642   3.741   4.108  16.554 -0.1900  0.0524 -0.9395
18743TIP3   OH277643   2.346   0.280  14.032 -0.2630  0.3031 -0.3504
18743TIP3    H177644   2.321   0.260  13.942 -2.7980 -0.2564  0.3854
18743TIP3    H277645   2.403   0.208  14.058 -3.2472 -2.1895 -0.1220
18744TIP3   OH277646   2.555   5.400  14.269 -0.4887 -0.3583  0.2384
18744TIP3    H177647   2.547   5.461  14.342  1.0905  1.2215 -0.8463
18744TIP3    H277648   2.578   5.317  14.309 -2.2353 -0.1931  1.7132
18745TIP3   OH277649   4.481   3.935   0.920 -0.2377  0.5859 -0.0874
18745TIP3    H177650   4.531   3.859   0.891  0.3720  0.6274  0.7946
18745TIP3    H277651   4.514   3.952   1.009 -1.3460  1.0277  0.2505
18746TIP3   OH277652   3.654   5.100  15.760  0.2272  0.5584  0.4128
18746TIP3    H177653   3.590   5.064  15.700  0.5816 -0.4894  0.6445
18746TIP3    H277654   3.702   5.165  15.707  0.5028 -0.3048 -0.4341
18747TIP3   OH277655   2.662   1.988   5.445 -1.0139 -0.3216 -0.1600
18747TIP3    H177656   2.670   2.072   5.489 -0.3385 -0.6100  0.2921
18747TIP3    H277657   2.665   2.009   5.351  0.2482  0.0712 -0.0497
18748TIP3   OH277658   0.294   2.748   3.028  0.4340 -0.1445  0.2287
18748TIP3    H177659   0.237   2.791   3.092 -0.3785 -0.1240 -0.4822
18748TIP3    H277660   0.241   2.678   2.992  0.4383  0.5756 -1.2619
18749TIP3   OH277661   3.579   0.330  15.589  0.1859 -0.1171 -0.1848
18749TIP3    H177662   3.565   0.294  15.677 -3.0939  0.8023 -0.1834
18749TIP3    H277663   3.511   0.289  15.536 -0.1935  1.9913 -1.4189
18750TIP3   OH277664   3.641   4.419   1.097  0.3108  0.0203 -0.8547
18750TIP3    H177665   3.546   4.410   1.084 -0.5337 -0.8173  3.9430
18750TIP3    H277666   3.652   4.509   1.129  0.4682 -0.9114  1.9277
18751TIP3   OH277667   0.246   6.709   3.964  0.5756  0.2871 -0.1636
18751TIP3    H177668   0.154   6.734   3.951 -0.4683 -1.9382  1.9920
18751TIP3    H277669   0.277   6.767   4.034  0.7213  0.8075 -0.6530
18752TIP3   OH277670   4.593   1.123  13.316 -0.2283  0.2427  0.2608
18752TIP3    H177671   4.579   1.043  13.265 -2.5042 -0.3756  1.7246
18752TIP3    H277672   4.533   1.187  13.278  0.7145  0.9375 -0.1197
18753TIP3   OH277673   0.112   0.338   2.060 -1.4102 -0.1001  0.9895
18753TIP3    H177674   0.020   0.355   2.081 -2.1611 -2.2559 -0.2566
18753TIP3    H277675   0.124   0.245   2.077 -0.3345 -0.5638 -1.7638
18754TIP3   OH277676   1.057   0.882  12.111 -0.4844 -0.3725  0.3112
18754TIP3    H177677   1.133   0.871  12.168  0.2943  0.7062 -0.4876
18754TIP3    H277678   1.061   0.808  12.050  0.6393  0.3320 -0.5020
18755TIP3   OH277679   4.504   5.307   3.381  0.1884 -0.0200  0.0730
18755TIP3    H177680   4.570   5.251   3.421 -0.2041 -0.6662 -0.1752
18755TIP3    H277681   4.486   5.374   3.446  3.2702  1.9949 -0.9329
18756TIP3   OH277682   6.698   0.790  13.938 -0.2976  0.4309  0.1651
18756TIP3    H177683   6.757   0.862  13.914 -0.2909  0.7605  1.1539
18756TIP3    H277684   6.621   0.833  13.974 -0.5395 -0.0450  0.2261
18757TIP3   OH277685   0.887   2.952   0.798 -0.5245  0.0395  0.1899
18757TIP3    H177686   0.902   3.045   0.783 -0.2658 -0.1926 -1.2160
18757TIP3    H277687   0.800   2.935   0.762 -0.8206 -0.1468  0.9915
18758TIP3   OH277688   0.430   2.535  16.730 -0.2473  0.4968 -0.3684
18758TIP3    H177689   0.513   2.496  16.702 -1.0732 -1.3753 -0.3469
18758TIP3    H277690   0.387   2.561  16.648 -1.2156 -1.9707 -0.7485
18759TIP3   OH277691   6.575   6.414   1.070  0.0441  0.9605 -0.0783
18759TIP3    H177692   6.661   6.376   1.049 -0.0545  1.4583 -1.4872
18759TIP3    H277693   6.586   6.451   1.157  1.0525  0.4008  0.0545
18760TIP3   OH277694   0.456   6.425   5.093 -0.0909 -0.1597  0.0280
18760TIP3    H177695   0.479   6.399   5.182 -2.3130 -0.6295  0.5264
18760TIP3    H277696   0.378   6.480   5.103  0.5431  1.1046 -1.5292
18761TIP3   OH277697   4.830   6.152   2.879  0.1699 -0.2795  0.0138
18761TIP3    H177698   4.852   6.079   2.821  1.9978 -0.4649  0.8827
18761TIP3    H277699   4.756   6.120   2.931  0.6024 -1.3257  0.0064
18762TIP3   OH277700   5.423   5.192  17.269 -0.2864 -0.4980  0.1963
18762TIP3    H177701   5.399   5.282  17.246  2.3143  0.9325  2.4532
18762TIP3    H277702   5.392   5.139  17.195  1.5066  2.7348 -3.2385
18763TIP3   OH277703   1.795   3.910  15.181  0.5494 -0.1081 -0.4913
18763TIP3    H177704   1.715   3.962  15.178  0.8755  0.3808 -1.1822
18763TIP3    H277705   1.844   3.946  15.255  0.0082 -0.6029  0.1115
18764TIP3   OH277706   1.720   1.727   1.918  0.6398 -0.2695 -0.3286
18764TIP3    H177707   1.635   1.687   1.905  0.4430  0.4204 -1.2795
18764TIP3    H277708   1.736   1.777   1.838  1.4977  0.3944  0.2312
18765TIP3   OH277709   2.047   2.166   2.997 -0.6256  0.4069 -0.3978
18765TIP3    H177710   2.132   2.171   3.042  0.7075  1.5034 -2.8326
18765TIP3    H277711   2.016   2.257   2.995 -2.0951 -0.0481  0.8371
18766TIP3   OH277712   6.720   4.074  13.118  0.3147 -0.4433  0.5000
18766TIP3    H177713   6.745   3.990  13.079 -2.5095 -1.0639 -0.1681
18766TIP3    H277714   6.701   4.053  13.209 -1.1165 -0.7246  0.1550
18767TIP3   OH277715   4.333   2.591  12.568 -0.2009  0.8058  0.8064
18767TIP3    H177716   4.425   2.602  12.541 -1.0749  1.2203 -2.4210
18767TIP3    H277717   4.335   2.514  12.626  2.0037 -0.1841 -0.4212
18768TIP3   OH277718   3.329   3.511   4.360  0.4310 -0.2557  0.1742
18768TIP3    H177719   3.281   3.518   4.278 -0.9419  0.8404  1.0306
18768TIP3    H277720   3.377   3.428   4.352  1.0922  0.2674 -2.0892
18769TIP3   OH277721   1.593   5.675   0.819  0.1801 -0.7244  0.3991
18769TIP3    H177722   1.586   5.665   0.914 -0.4836 -0.3750  0.3958
18769TIP3    H277723   1.576   5.587   0.784 -3.3338 -0.2390  0.4686
18770TIP3   OH277724   5.265   2.283   6.331 -0.2507  0.2238  0.1877
18770TIP3    H177725   5.330   2.251   6.269  0.0761 -0.2377  0.7581
18770TIP3    H277726   5.296   2.370   6.356  1.8068 -1.1021  2.6945
18771TIP3   OH277727   6.181   1.780   2.646  0.5788 -0.1331 -0.1261
18771TIP3    H177728   6.177   1.866   2.605  0.7808 -0.5396 -1.0199
18771TIP3    H277729   6.271   1.774   2.680  0.8061 -0.2954 -0.7493
18772TIP3   OH277730   1.108   2.828  12.105 -0.0484 -0.4242  0.2515
18772TIP3    H177731   1.180   2.796  12.159 -0.8208 -2.1232  0.3245
18772TIP3    H277732   1.109   2.923  12.118  1.6615 -0.4913  0.8652
18773TIP3   OH277733   1.220   1.476  10.606  0.6200  0.0463  0.2417
18773TIP3    H177734   1.184   1.419  10.539  1.1543 -0.5104  0.4091
18773TIP3    H277735   1.207   1.427  10.688 -0.5221  0.9577  0.6233
18774TIP3   OH277736   6.514   2.952   1.203  0.2288  0.7309 -0.8069
18774TIP3    H177737   6.424   2.984   1.194  0.0260 -0.0058 -1.5220
18774TIP3    H277738   6.511   2.892   1.277  0.4914  1.8905  0.1827
18775TIP3   OH277739   3.990   6.136   2.387  0.2523 -0.7719  0.1656
18775TIP3    H177740   3.946   6.072   2.331  1.1389 -1.1765 -0.0771
18775TIP3    H277741   3.919   6.193   2.417 -0.5515 -1.8054  0.3152
18776TIP3   OH277742   5.134   0.329  12.742  0.2066 -0.0605 -0.4079
18776TIP3    H177743   5.102   0.420  12.745  1.5061  0.4886 -1.9436
18776TIP3    H277744   5.119   0.301  12.652  1.8009 -0.5817 -0.5499
18777TIP3   OH277745   5.727   1.510  17.390  0.2594  0.0549  0.0360
18777TIP3    H177746   5.796   1.452  17.422  1.3158  1.9020  1.2998
18777TIP3    H277747   5.647   1.477  17.431  0.6733 -1.0396  0.0011
18778TIP3   OH277748   2.841   0.642  13.884  0.4984  0.0948 -0.2613
18778TIP3    H177749   2.782   0.715  13.903  1.6792  1.7443 -2.4446
18778TIP3    H277750   2.920   0.661  13.935  0.2674 -0.4559  0.3034
18779TIP3   OH277751   4.671   4.686   0.512  0.7153  0.2129  0.0795
18779TIP3    H177752   4.593   4.734   0.542 -0.9200 -1.2080 -1.6584
18779TIP3    H277753   4.725   4.752   0.469  0.5608  1.2398  1.3755
18780TIP3   OH277754   3.313   2.555  15.622  0.2996 -0.0749  0.8355
18780TIP3    H177755   3.290   2.545  15.715 -1.0280 -0.8302  0.4647
18780TIP3    H277756   3.353   2.641  15.616 -1.7761  1.0424  1.7540
18781TIP3   OH277757   1.665   4.063   5.019 -0.0290 -0.5362 -0.2303
18781TIP3    H177758   1.633   3.989   4.967 -0.3356 -0.2757 -0.4134
18781TIP3    H277759   1.706   4.022   5.096 -1.0709 -0.8772  0.1654
18782TIP3   OH277760   6.108   3.533   1.937  0.2231  0.6662  0.0961
18782TIP3    H177761   6.134   3.603   1.877  2.3302  1.2635  1.6273
18782TIP3    H277762   6.014   3.522   1.920  0.1695  2.6787 -1.3591
18783TIP3   OH277763   3.154   2.055   0.019  0.3044  0.0271  0.0418
18783TIP3    H177764   3.177   1.967   0.049  0.6923  0.2483  0.4075
18783TIP3    H277765   3.138   2.045  -0.074  0.5459 -0.3937  0.0427
18784TIP3   OH277766   1.577   2.725  12.751  0.5362 -0.2366 -0.3785
18784TIP3    H177767   1.520   2.649  12.760 -0.3229  0.5859  1.6442
18784TIP3    H277768   1.635   2.720  12.827  1.1168  0.6372 -0.7478
18785TIP3   OH277769   5.504   1.896  15.956 -0.0476  0.1573 -0.3612
18785TIP3    H177770   5.435   1.955  15.925  1.8738  1.7063 -2.1263
18785TIP3    H277771   5.570   1.955  15.994  1.1182 -1.0383 -0.4479
18786TIP3   OH277772   5.717   2.186   2.653  0.3765  0.2139 -0.4606
18786TIP3    H177773   5.694   2.260   2.596  1.0822  0.2019 -0.7677
18786TIP3    H277774   5.797   2.151   2.615 -0.1398 -0.9428 -0.5253
18787TIP3   OH277775   0.423   3.521   0.254 -0.5216  0.0527  0.2917
18787TIP3    H177776   0.473   3.597   0.283  1.4344 -0.7092 -0.8888
18787TIP3    H277777   0.483   3.473   0.197 -1.6071 -2.5003  1.1415
18788TIP3   OH277778   4.394   1.108  16.283 -0.1287 -0.7329  0.3692
18788TIP3    H177779   4.378   1.168  16.356  0.9799 -0.7548  0.6348
18788TIP3    H277780   4.337   1.141  16.213  0.4395  0.6233  0.5106
18789TIP3   OH277781   5.113   3.109   4.714 -0.5228 -0.5339  0.6010
18789TIP3    H177782   5.083   3.021   4.736  0.0092 -0.7639  0.4268
18789TIP3    H277783   5.151   3.101   4.627 -1.0419  0.0054  0.3177
18790TIP3   OH277784   4.608   3.381  14.970 -0.1560 -0.2874  0.6727
18790TIP3    H177785   4.609   3.476  14.965 -2.5240  0.0202  3.4293
18790TIP3    H277786   4.669   3.360  15.041  0.4784 -0.8849 -0.0278
18791TIP3   OH277787   2.757   2.667  16.308 -0.0038 -0.2082  0.3961
18791TIP3    H177788   2.823   2.598  16.302 -0.0048 -0.2087  0.3910
18791TIP3    H277789   2.686   2.628  16.358  0.2923  0.0229  1.0006
18792TIP3   OH277790   2.009   4.758   5.221  0.1107 -0.0876 -0.2174
18792TIP3    H177791   2.021   4.775   5.314  0.6669 -1.7556  0.0493
18792TIP3    H277792   2.079   4.806   5.178 -1.5327  2.6961 -0.0703
18793TIP3   OH277793   5.303   3.791  11.065  0.0373 -0.1865  0.1406
18793TIP3    H177794   5.314   3.787  11.160  1.6457 -0.1973 -0.0194
18793TIP3    H277795   5.261   3.708  11.043  0.2633 -0.4812  0.7754
18794TIP3   OH277796   1.644   0.191  16.988  0.8562  0.0265  0.2566
18794TIP3    H177797   1.664   0.119  16.929  0.7597 -2.1699  2.7551
18794TIP3    H277798   1.720   0.198  17.046  0.6237  1.5948  0.4373
18795TIP3   OH277799   3.946   1.741   3.402 -0.0720 -0.6109 -0.3602
18795TIP3    H177800   3.881   1.810   3.384 -1.3539 -1.4674  0.7881
18795TIP3    H277801   3.990   1.771   3.481  0.0448 -0.6495 -0.4112
18796TIP3   OH277802   4.044   0.973  12.737 -0.4418  0.0611  0.4805
18796TIP3    H177803   4.094   0.898  12.770 -2.2476 -0.9959  0.9183
18796TIP3    H277804   3.953   0.951  12.754 -1.2892  0.8271 -2.4530
18797TIP3   OH277805   4.706   6.634   0.822 -0.1778 -0.0393  0.3197
18797TIP3    H177806   4.742   6.550   0.851 -0.6827 -0.6452 -0.7681
18797TIP3    H277807   4.698   6.686   0.902 -0.9882 -1.4573  1.1849
18798TIP3   OH277808   5.895   6.531   1.525 -0.0752  0.3380 -1.0287
18798TIP3    H177809   5.888   6.487   1.609 -1.7438  1.0289 -0.7596
18798TIP3    H277810   5.975   6.496   1.486 -1.1651 -2.8215 -0.7664
18799TIP3   OH277811   4.089   0.274  15.686  0.1113 -0.3292  0.3264
18799TIP3    H177812   4.003   0.249  15.718 -0.1155  0.7475  0.6181
18799TIP3    H277813   4.071   0.341  15.620  0.6864 -0.7484 -0.2624
18800TIP3   OH277814   6.449   1.510   0.435 -0.2334  0.1921 -0.1876
18800TIP3    H177815   6.508   1.482   0.365  0.4536  0.3346  0.3258
18800TIP3    H277816   6.451   1.605   0.431 -0.9383  0.1981 -0.5785
18801TIP3   OH277817   1.539   0.330   5.252 -0.0211  0.3819 -0.0173
18801TIP3    H177818   1.521   0.236   5.243  0.9469  0.1657  0.2022
18801TIP3    H277819   1.481   0.371   5.188  1.0772 -0.5353 -1.6953
18802TIP3   OH277820   1.904   1.070   2.184 -0.4982  0.2420 -0.0691
18802TIP3    H177821   1.981   1.106   2.142 -0.2366 -0.6970 -0.4211
18802TIP3    H277822   1.830   1.115   2.142 -0.1565  0.9570  0.0925
18803TIP3   OH277823   6.599   5.459   4.012 -0.4018 -0.2931  0.2358
18803TIP3    H177824   6.532   5.524   3.990  0.0005  0.0510  0.0156
18803TIP3    H277825   6.616   5.413   3.930 -0.7525 -0.7464  0.4108
18804TIP3   OH277826   2.848   3.031  17.116 -0.4715 -0.1772  0.1530
18804TIP3    H177827   2.942   3.052  17.115 -0.5429  0.2068  0.7535
18804TIP3    H277828   2.809   3.094  17.055 -0.4040  0.0146  0.3045
18805TIP3   OH277829   3.743   2.878   4.679  0.1563  0.0694  0.1858
18805TIP3    H177830   3.774   2.924   4.601 -0.8088 -0.7829 -0.7295
18805TIP3    H277831   3.770   2.787   4.665  1.1999  0.1490  1.5178
18806TIP3   OH277832   4.314   3.495  16.581  0.4183  0.6129 -0.3595
18806TIP3    H177833   4.247   3.525  16.520  0.8504 -0.2560 -1.2708
18806TIP3    H277834   4.364   3.574  16.602  0.1543  0.9540 -0.9807
18807TIP3   OH277835   4.839   2.951  13.902  0.6099 -0.0458 -0.0356
18807TIP3    H177836   4.793   2.874  13.868 -0.1529  0.4131 -0.0778
18807TIP3    H277837   4.853   3.007  13.826  2.3637 -0.7118 -0.2446
18808TIP3   OH277838   4.038   6.340  11.488  0.5166 -0.2663  0.2793
18808TIP3    H177839   4.125   6.357  11.522  1.7944 -1.3599 -2.1883
18808TIP3    H277840   4.032   6.245  11.483 -1.1343 -0.2523  1.0482
18809TIP3   OH277841   0.290   4.030   2.383  0.2628  0.2686  0.1948
18809TIP3    H177842   0.280   4.124   2.398 -0.5900  0.1592  0.3626
18809TIP3    H277843   0.360   4.023   2.318  1.8210  0.9041  1.7398
18810TIP3   OH277844   2.343   4.777  13.678 -0.3894 -0.2253  0.8491
18810TIP3    H177845   2.324   4.857  13.629  0.7844 -0.8053 -0.6272
18810TIP3    H277846   2.259   4.752  13.717 -1.0134  1.1009  0.4029
18811TIP3   OH277847   2.806   4.455   0.726 -0.7900 -0.0235  0.0339
18811TIP3    H177848   2.817   4.360   0.739 -0.2567 -0.0063 -0.2263
18811TIP3    H277849   2.733   4.462   0.665 -1.4351 -0.2232  0.7745
18812TIP3   OH277850   3.619   1.098  16.678 -0.0638  0.4492 -0.2263
18812TIP3    H177851   3.581   1.036  16.740 -1.7709  0.2332 -1.4522
18812TIP3    H277852   3.630   1.179  16.729  0.0646 -0.1689  0.7600
18813TIP3   OH277853   1.493   1.302   0.044 -0.0947 -0.1990  0.2478
18813TIP3    H177854   1.557   1.238   0.076 -0.1663 -0.0183  0.7531
18813TIP3    H277855   1.408   1.260   0.058 -0.1207 -0.1613  0.2019
18814TIP3   OH277856   6.197   1.844   5.349  0.5366  0.1941 -0.4583
18814TIP3    H177857   6.170   1.814   5.435  1.3932 -0.6246 -0.4508
18814TIP3    H277858   6.124   1.823   5.291  0.8093 -1.2817 -0.3123
18815TIP3   OH277859   5.336   3.047  13.353  0.3119  0.7438 -0.3648
18815TIP3    H177860   5.268   2.986  13.324  0.5925 -0.8409  2.0921
18815TIP3    H277861   5.419   3.004  13.331  0.5202 -0.1790  1.9639
18816TIP3   OH277862   0.031   0.634   1.167 -0.2844  0.1679  0.4975
18816TIP3    H177863   0.069   0.557   1.211  0.3134  0.2617  0.1513
18816TIP3    H277864   0.059   0.626   1.076  0.1406  1.0211  0.5442
18817TIP3   OH277865   3.420   3.752  14.142 -0.6982 -0.2109  0.1767
18817TIP3    H177866   3.330   3.730  14.165 -1.0078  0.4631 -0.3494
18817TIP3    H277867   3.471   3.731  14.220 -1.2752 -0.8079  0.3999
18818TIP3   OH277868   1.253   1.386   2.304 -0.0068 -0.2328  0.6425
18818TIP3    H177869   1.274   1.328   2.231  1.3072 -1.9939  2.3188
18818TIP3    H277870   1.189   1.337   2.355 -0.4779  0.7288  0.9965
18819TIP3   OH277871   4.836   2.057   0.956  0.4497  0.0364  0.2483
18819TIP3    H177872   4.904   2.123   0.968  0.1728  0.3180  0.2612
18819TIP3    H277873   4.755   2.100   0.982  0.4659 -0.8145  1.8340
18820TIP3   OH277874   3.061   0.219   6.168 -0.2127 -0.3911 -0.3330
18820TIP3    H177875   2.970   0.229   6.195 -1.0120  0.2563 -3.0452
18820TIP3    H277876   3.068   0.268   6.086  2.2818 -1.3892 -0.8001
18821TIP3   OH277877   4.475   5.075  17.391 -0.2970 -0.4879 -0.7211
18821TIP3    H177878   4.461   4.981  17.384  1.4622 -0.7148 -2.0566
18821TIP3    H277879   4.468   5.107  17.301 -0.3914  0.5897 -0.3518
18822TIP3   OH277880   0.188   6.227  17.077 -0.1750 -0.2897  0.1694
18822TIP3    H177881   0.165   6.280  17.001  1.8675  0.6833  0.1543
18822TIP3    H277882   0.184   6.288  17.151  0.3131 -0.5690  0.4355
18823TIP3   OH277883   5.957   4.532  15.589  0.1812  0.2408  0.6488
18823TIP3    H177884   5.874   4.513  15.546  0.4289  2.4163 -0.9690
18823TIP3    H277885   5.952   4.625  15.612  2.0664  0.3784  0.7004
18824TIP3   OH277886   4.820   1.986  15.484  0.0076 -0.0769 -0.4097
18824TIP3    H177887   4.911   1.960  15.469 -0.1818 -0.8335 -0.3208
18824TIP3    H277888   4.786   2.006  15.397 -0.0340 -0.8285 -0.5760
18825TIP3   OH277889   1.092   5.326  15.185 -0.3321 -0.6468  0.2902
18825TIP3    H177890   1.018   5.327  15.246 -1.8881  0.5877 -1.4938
18825TIP3    H277891   1.141   5.406  15.207  1.2204 -2.0311  2.2184
18826TIP3   OH277892   3.970   6.357   3.889 -0.5383 -0.7136  0.0740
18826TIP3    H177893   3.935   6.445   3.883  1.5408  0.2008  0.4574
18826TIP3    H277894   3.942   6.325   3.974  2.2525  1.3322  1.9344
18827TIP3   OH277895   0.181   3.345   3.905  0.1764  0.2308  0.5343
18827TIP3    H177896   0.139   3.277   3.852  0.2579  0.1241  0.6059
18827TIP3    H277897   0.225   3.401   3.842  0.1575  0.1833  0.4787
18828TIP3   OH277898   0.304   1.285  11.964  0.6838  0.2031  0.2859
18828TIP3    H177899   0.217   1.254  11.941  0.0502  0.5882  1.9577
18828TIP3    H277900   0.316   1.364  11.911  0.8597 -0.9082 -1.3957
18829TIP3   OH277901   0.982   0.903  10.563 -0.4184 -0.0087  0.0325
18829TIP3    H177902   1.039   0.946  10.499 -0.5689 -0.7113 -0.5873
18829TIP3    H277903   0.898   0.894  10.518 -0.2005 -1.5525 -0.1201
18830TIP3   OH277904   3.718   3.321   2.370 -0.3195 -0.1335  0.1575
18830TIP3    H177905   3.747   3.296   2.282  0.3751 -1.7256  0.8071
18830TIP3    H277906   3.671   3.244   2.403 -1.0798  0.6564  0.9764
18831TIP3   OH277907   2.040   5.199   6.486  0.3240  0.0146 -0.0620
18831TIP3    H177908   1.960   5.249   6.467 -0.3022 -0.3136  1.5296
18831TIP3    H277909   2.069   5.165   6.402 -1.5179 -0.2901 -0.6016
18832TIP3   OH277910   2.754   3.108  16.841 -0.1749  0.0685 -0.0237
18832TIP3    H177911   2.675   3.162  16.835 -0.3293 -0.2155 -0.6509
18832TIP3    H277912   2.723   3.019  16.822  0.0875 -0.2412  0.9434
18833TIP3   OH277913   2.777   5.735   5.619 -0.2757  0.2032  0.0381
18833TIP3    H177914   2.800   5.650   5.657  0.1455  0.7149  0.9636
18833TIP3    H277915   2.782   5.721   5.524 -1.1641 -1.0507  0.1601
18834TIP3   OH277916   2.272   5.102   1.544  0.2283  0.6613  0.1610
18834TIP3    H177917   2.286   5.059   1.460  1.0980  1.1542  0.0389
18834TIP3    H277918   2.346   5.162   1.552  0.8106 -0.2349  1.8351
18835TIP3   OH277919   1.550   5.761   2.730  0.2157  0.3766  0.0711
18835TIP3    H177920   1.542   5.855   2.714 -1.5903  0.3526  0.5582
18835TIP3    H277921   1.502   5.746   2.812  1.8921 -0.7439  0.9126
18836TIP3   OH277922   1.878   2.092  13.617 -0.0632 -1.0762 -0.3214
18836TIP3    H177923   1.874   2.187  13.628 -1.0169 -1.0152 -1.0117
18836TIP3    H277924   1.802   2.059  13.665  0.4162 -1.5151  0.1395
18837TIP3   OH277925   2.926   6.737   5.856  0.4786 -0.7053  0.0913
18837TIP3    H177926   2.918   6.690   5.773  0.4596 -0.4194 -0.0707
18837TIP3    H277927   2.987   6.685   5.908  1.4351 -0.2549 -0.5577
18838TIP3   OH277928   0.080   5.560   3.638  0.6214  0.0400  0.0730
18838TIP3    H177929   0.016   5.627   3.616  0.3145 -0.0371  0.7042
18838TIP3    H277930   0.141   5.603   3.699  0.1623 -0.3705  0.8375
18839TIP3   OH277931   3.699   1.842  16.764  0.3534 -0.6093 -0.4000
18839TIP3    H177932   3.725   1.909  16.701  0.3843 -0.8702 -0.6646
18839TIP3    H277933   3.653   1.776  16.713 -0.6440 -0.2657  0.0315
18840TIP3   OH277934   5.491   2.327  14.662 -0.1142 -0.0015 -0.6928
18840TIP3    H177935   5.415   2.271  14.678  0.0768  0.5844  3.2391
18840TIP3    H277936   5.557   2.295  14.723  1.3356  2.1057 -1.0672
18841TIP3   OH277937   4.678   6.653  11.899  0.3842 -0.1792  0.6749
18841TIP3    H177938   4.741   6.632  11.829  2.3816  2.0544  1.6692
18841TIP3    H277939   4.698   6.591  11.969 -1.1277 -1.9333 -0.3485
18842TIP3   OH277940   2.603   1.190  13.218 -0.0516  0.4997  0.7752
18842TIP3    H177941   2.609   1.279  13.252 -0.3577  0.4034  1.0916
18842TIP3    H277942   2.544   1.196  13.144  1.6676  0.9580 -0.6301
18843TIP3   OH277943   6.502   6.219   5.509  0.3239  0.5821 -0.2348
18843TIP3    H177944   6.578   6.189   5.559  0.4095  1.5426  0.2257
18843TIP3    H277945   6.539   6.274   5.439  0.1951 -0.6157 -1.2949
18844TIP3   OH277946   0.842   0.045  13.078  0.0069 -0.0100 -0.3826
18844TIP3    H177947   0.890   0.078  13.154  0.0115 -1.2085  0.1624
18844TIP3    H277948   0.824   0.122  13.025  0.2792  0.8081  0.6862
18845TIP3   OH277949   5.246   5.810  11.106 -0.0166  0.3955  0.3270
18845TIP3    H177950   5.294   5.741  11.059  0.9005 -0.3924  2.3058
18845TIP3    H277951   5.157   5.803  11.073  0.4467 -0.5599 -0.8110
18846TIP3   OH277952   0.270   0.185   5.551 -0.3104 -0.4187  0.3860
18846TIP3    H177953   0.350   0.215   5.508 -0.8477  0.5685  0.0281
18846TIP3    H277954   0.201   0.198   5.485 -1.1834  1.3183  1.5438
18847TIP3   OH277955   3.801   5.417   5.276  0.2612 -0.2116 -0.0369
18847TIP3    H177956   3.777   5.371   5.356 -1.3840 -0.6098 -0.7058
18847TIP3    H277957   3.897   5.418   5.276  0.3661 -3.0866  0.3228
18848TIP3   OH277958   1.099   5.312  13.926 -0.5328 -0.3490 -0.4418
18848TIP3    H177959   1.092   5.331  14.019 -0.6745 -0.8439 -0.3468
18848TIP3    H277960   1.031   5.247  13.909 -0.6937 -0.0514 -0.9492
18849TIP3   OH277961   4.615   5.051   2.360  0.1554 -0.4065 -0.0802
18849TIP3    H177962   4.571   5.054   2.445  0.1208  1.2027 -0.1257
18849TIP3    H277963   4.562   4.990   2.308 -0.6796 -0.2718  0.5905
18850TIP3   OH277964   1.252   2.865   0.295 -0.3677 -0.0755 -0.2493
18850TIP3    H177965   1.158   2.866   0.275 -0.0532  0.8849 -1.8476
18850TIP3    H277966   1.292   2.910   0.221  1.4184 -0.9721  0.1365
18851TIP3   OH277967   5.745   0.418   4.513 -0.2251 -0.0519  0.1310
18851TIP3    H177968   5.763   0.326   4.499 -0.9758  0.0545 -1.7709
18851TIP3    H277969   5.651   0.423   4.527 -0.6513  0.6330 -2.4244
18852TIP3   OH277970   3.657   0.832   2.592 -0.0474 -0.8031  0.4458
18852TIP3    H177971   3.589   0.899   2.584  1.2966  0.5303 -0.6093
18852TIP3    H277972   3.729   0.866   2.539  1.8192 -1.6715  2.2806
18853TIP3   OH277973   1.537   0.767  10.795 -0.0515 -0.7087 -0.4490
18853TIP3    H177974   1.568   0.832  10.732  1.3340 -0.5929  0.3190
18853TIP3    H277975   1.448   0.795  10.815  0.4061  0.8100 -0.3575
18854TIP3   OH277976   1.087   0.958   6.297 -0.0825 -0.0444 -0.2292
18854TIP3    H177977   1.095   1.045   6.256  0.2708 -0.4609 -1.0747
18854TIP3    H277978   1.011   0.919   6.255 -0.1322 -0.2183  0.0217
18855TIP3   OH277979   0.544   4.822  13.879 -0.4703  0.0921 -0.0049
18855TIP3    H177980   0.550   4.866  13.794  0.3862  1.7041  0.8345
18855TIP3    H277981   0.534   4.729  13.858 -0.8588  0.5118 -1.8531
18856TIP3   OH277982   4.565   6.021  13.847 -0.6310  0.1176 -0.2653
18856TIP3    H177983   4.503   6.065  13.789 -0.0919  2.0225  0.5255
18856TIP3    H277984   4.633   5.987  13.789 -1.5441 -0.5580 -0.9786
18857TIP3   OH277985   2.674   1.208  14.673 -0.2020  0.4262 -0.2054
18857TIP3    H177986   2.654   1.302  14.676 -0.2702  0.4015  0.2265
18857TIP3    H277987   2.759   1.201  14.717  0.9847  0.5745 -2.3080
18858TIP3   OH277988   0.181   6.508   2.590  0.1498  0.3881 -0.1751
18858TIP3    H177989   0.145   6.575   2.648 -1.0292 -0.9301  0.6669
18858TIP3    H277990   0.274   6.531   2.583 -0.0399  1.5841  0.8235
18859TIP3   OH277991   6.241   6.333  11.433  0.0466 -0.0730 -0.0224
18859TIP3    H177992   6.229   6.403  11.498 -0.3972 -0.1614 -0.0017
18859TIP3    H277993   6.168   6.274  11.449 -1.1413  0.8219 -1.7565
18860TIP3   OH277994   5.348   3.055   1.933 -0.1326 -0.1319  0.4137
18860TIP3    H177995   5.287   2.990   1.966 -0.9216 -0.3304 -1.3045
18860TIP3    H277996   5.405   3.007   1.873  0.7186  0.3447  0.8215
18861TIP3   OH277997   0.216   1.780  12.233 -0.0641  0.2022  0.3734
18861TIP3    H177998   0.154   1.843  12.269 -0.7491  0.5646 -1.3259
18861TIP3    H277999   0.207   1.789  12.138 -0.2639 -2.4917  0.0370
18862TIP3   OH278000   4.735   5.999   5.854  0.6751  0.5214  0.0831
18862TIP3    H178001   4.675   5.928   5.831 -0.5075  1.2438  0.7947
18862TIP3    H278002   4.756   5.984   5.946  2.2765 -0.1791 -0.3664
18863TIP3   OH278003   6.567   5.446  12.802 -0.2586  0.2050  0.3620
18863TIP3    H178004   6.527   5.364  12.832  2.2850 -0.6833  1.6119
18863TIP3    H278005   6.500   5.513  12.817 -1.4997 -1.2555  1.6993
18864TIP3   OH278006   3.896   0.262  15.034  0.6368  0.6026  0.3039
18864TIP3    H178007   3.903   0.171  15.062  0.8521  0.4010 -0.3875
18864TIP3    H278008   3.801   0.279  15.031  0.6095  0.7103  1.3794
18865TIP3   OH278009   4.503   3.744  13.654  0.2077 -0.3682  0.3763
18865TIP3    H178010   4.461   3.677  13.600  0.7903  0.1606 -0.7736
18865TIP3    H278011   4.547   3.801  13.591 -0.1348  0.9986  1.3440
18866TIP3   OH278012   4.016   3.664   0.184  0.3170  0.0621  0.6465
18866TIP3    H178013   4.045   3.754   0.198  1.4044  0.0695 -1.3801
18866TIP3    H278014   4.042   3.618   0.264  1.2454  1.2003  1.0280
18867TIP3   OH278015   1.951   1.378  11.099 -0.1662  0.6529 -0.5974
18867TIP3    H178016   2.036   1.421  11.088  0.0644  0.5805  0.7225
18867TIP3    H278017   1.973   1.292  11.133 -0.7096  0.0303 -1.7653
18868TIP3   OH278018   6.197   6.517  16.873  0.4515 -0.4462  0.2660
18868TIP3    H178019   6.149   6.487  16.795 -0.2440  0.7639  0.2077
18868TIP3    H278020   6.288   6.497  16.854  0.1225 -1.6634 -0.1501
18869TIP3   OH278021   3.120   0.795   5.574  0.0759 -0.1063 -0.2503
18869TIP3    H178022   3.059   0.778   5.646 -0.2655 -1.4658 -0.8275
18869TIP3    H278023   3.111   0.889   5.557 -1.4058 -0.1580  0.0903
18870TIP3   OH278024   3.306   1.709   3.199 -0.6762  0.1982 -0.3156
18870TIP3    H178025   3.335   1.729   3.110 -1.2015  0.7838 -0.3624
18870TIP3    H278026   3.213   1.691   3.191 -0.2545 -2.3784 -0.2734
18871TIP3   OH278027   2.607   6.562   3.269 -0.2671 -0.1993  0.5780
18871TIP3    H178028   2.635   6.640   3.222  1.0332 -1.1910 -0.3546
18871TIP3    H278029   2.535   6.527   3.216 -0.4544  0.0407  0.6738
18872TIP3   OH278030   0.498   4.945  13.632  0.1510  0.1247  0.2078
18872TIP3    H178031   0.434   4.883  13.595 -0.6235  1.7246 -1.3030
18872TIP3    H278032   0.449   5.027  13.642  1.0607  0.4636  2.4415
18873TIP3   OH278033   5.077   6.520   1.319  0.6394  0.1161 -0.2340
18873TIP3    H178034   5.090   6.466   1.240  2.2622  1.9250 -1.2955
18873TIP3    H278035   5.097   6.461   1.392 -0.3585 -1.4527 -1.1668
18874TIP3   OH278036   0.417   5.992  16.002  0.3635 -0.5386 -0.3539
18874TIP3    H178037   0.502   6.029  15.980  1.6150 -2.4210  0.9951
18874TIP3    H278038   0.410   6.001  16.097 -0.7468 -0.8100 -0.3911
18875TIP3   OH278039   2.338   4.930   0.161 -0.7741 -0.2918  0.0829
18875TIP3    H178040   2.274   4.985   0.207 -1.1086 -0.9379  0.3881
18875TIP3    H278041   2.287   4.886   0.093 -0.3390  0.4353 -0.7338
18876TIP3   OH278042   2.931   5.290  14.833  0.1600  0.5547  0.3432
18876TIP3    H178043   2.932   5.197  14.812 -1.4954  0.8989 -1.5543
18876TIP3    H278044   2.854   5.301  14.890 -0.4980  0.9489 -0.6004
18877TIP3   OH278045   4.073   5.568  14.109  0.1196  0.4495 -0.4249
18877TIP3    H178046   4.158   5.559  14.154 -1.4784  0.4138  2.8702
18877TIP3    H278047   4.053   5.479  14.079  0.4722  0.0852  0.3720
18878TIP3   OH278048   2.147   1.577   2.720 -0.2237  0.1736 -0.3219
18878TIP3    H178049   2.228   1.603   2.675 -0.1396  0.2912 -0.1041
18878TIP3    H278050   2.159   1.607   2.810  0.3986 -1.6902  0.2576
18879TIP3   OH278051   1.994   3.184   6.448  0.0866 -0.6565  0.1947
18879TIP3    H178052   1.994   3.174   6.543  1.1814  3.1371  0.7497
18879TIP3    H278053   1.935   3.257   6.431 -1.3085 -2.2259 -2.2834
18880TIP3   OH278054   6.556   6.202   3.667  0.5137  0.0874  0.1148
18880TIP3    H178055   6.474   6.201   3.617  1.0380  0.2963 -0.7695
18880TIP3    H278056   6.560   6.289   3.707 -0.5404 -0.5146  1.6291
18881TIP3   OH278057   5.587   6.356   4.628  0.0169  0.1539 -0.2036
18881TIP3    H178058   5.585   6.260   4.625 -1.3432  0.0607  1.8155
18881TIP3    H278059   5.538   6.384   4.550 -0.9326 -0.8290  0.0233
18882TIP3   OH278060   6.374   2.267  11.902 -0.6370 -0.5321  0.4409
18882TIP3    H178061   6.317   2.254  11.826 -1.4588 -1.5330  1.2035
18882TIP3    H278062   6.322   2.322  11.961 -0.8093 -1.4324  1.1360
18883TIP3   OH278063   4.870   1.866   2.881 -0.6329 -0.6113  0.3673
18883TIP3    H178064   4.864   1.956   2.912 -0.5897 -0.0621 -1.1771
18883TIP3    H278065   4.788   1.851   2.834 -0.9183 -1.6089  1.1297
18884TIP3   OH278066   4.507   6.170  12.792 -0.0129 -0.2055  0.2486
18884TIP3    H178067   4.580   6.231  12.790  0.5927 -0.9366 -0.2623
18884TIP3    H278068   4.527   6.104  12.725 -0.1920 -1.4757  1.3901
18885TIP3   OH278069   2.317   1.166  12.402 -0.1363  0.4401  0.2645
18885TIP3    H178070   2.229   1.165  12.439 -1.1330  0.0363 -1.9307
18885TIP3    H278071   2.336   1.259  12.388  0.3045  0.6017  1.8195
18886TIP3   OH278072   2.507   4.959  11.731 -0.5047  0.5036  0.4902
18886TIP3    H178073   2.601   4.971  11.747 -0.6193 -1.3096  3.0369
18886TIP3    H278074   2.469   4.949  11.818 -2.9189  0.0981 -0.5418
18887TIP3   OH278075   5.554   2.461   0.293  0.6560  0.6130 -0.3415
18887TIP3    H178076   5.576   2.400   0.364 -0.3359 -0.8166 -1.2066
18887TIP3    H278077   5.487   2.518   0.330 -0.7009 -0.8616 -0.4304
18888TIP3   OH278078   4.310   6.614   2.603  0.2501  0.0518  0.2369
18888TIP3    H178079   4.335   6.671   2.531 -0.5048  0.0148 -0.0620
18888TIP3    H278080   4.337   6.661   2.682  1.2426  0.0100 -0.0625
18889TIP3   OH278081   5.115   2.967   2.207 -0.0081  0.5439 -1.0012
18889TIP3    H178082   5.130   3.039   2.268 -1.6452  1.4687 -1.6314
18889TIP3    H278083   5.109   2.889   2.263  1.4491  0.9286 -0.2809
18890TIP3   OH278084   4.300   1.439   6.422  0.3261  0.2548 -0.4371
18890TIP3    H178085   4.283   1.511   6.482 -0.2595 -0.4755  0.2974
18890TIP3    H278086   4.384   1.460   6.382  0.0266  1.4801 -0.4514
18891TIP3   OH278087   5.669   6.483   4.899 -0.4922  0.4762 -0.1236
18891TIP3    H178088   5.614   6.421   4.851 -0.3735  0.9864 -0.9398
18891TIP3    H278089   5.612   6.559   4.915 -0.2563  0.6939 -0.2971
18892TIP3   OH278090   2.567   3.352   2.225 -0.1273 -0.3498 -0.7017
18892TIP3    H178091   2.621   3.389   2.295  0.5712  0.6955 -1.7550
18892TIP3    H278092   2.512   3.287   2.269  1.7476 -1.2371  0.4704
18893TIP3   OH278093   1.933   5.239   1.179  0.0608 -0.4428 -0.2310
18893TIP3    H178094   1.965   5.233   1.269 -0.4140  1.3522  0.1107
18893TIP3    H278095   1.843   5.272   1.188 -0.1676 -0.7248 -1.3357
18894TIP3   OH278096   1.282   0.655   1.924  0.3734 -0.4412 -0.1884
18894TIP3    H178097   1.227   0.648   1.846 -0.9749 -0.3020  0.7125
18894TIP3    H278098   1.367   0.623   1.896 -0.4941 -1.9285 -1.3045
18895TIP3   OH278099   5.009   0.408   3.196 -0.5792 -0.4139  0.2302
18895TIP3    H178100   5.042   0.426   3.108  1.2723  2.3339  1.3425
18895TIP3    H278101   4.954   0.483   3.217  1.1158  0.3556  2.3033
18896TIP3   OH278102   6.525   6.092  15.277 -0.9792 -0.3197 -0.2209
18896TIP3    H178103   6.516   6.051  15.191 -1.0776 -0.9749  0.0985
18896TIP3    H278104   6.472   6.172  15.271 -0.9305 -0.3280 -0.7896
18897TIP3   OH278105   2.555   0.492  14.729 -0.6957  0.8849  0.7185
18897TIP3    H178106   2.593   0.408  14.703  0.2940  0.5664  2.9592
18897TIP3    H278107   2.465   0.472  14.752 -0.0599  0.0521  2.7135
18898TIP3   OH278108   1.415   6.208   0.095  0.0728 -0.6534  0.1862
18898TIP3    H178109   1.440   6.273   0.161  1.0021 -0.9761  0.1672
18898TIP3    H278110   1.422   6.124   0.142  0.8204 -0.8922 -0.3282
18899TIP3   OH278111   2.100   0.913  14.420  0.2655 -0.2646  0.5877
18899TIP3    H178112   2.141   0.827  14.412  2.2791  0.6185  0.7371
18899TIP3    H278113   2.174   0.974  14.428 -1.0415  1.6280 -0.8092
18900TIP3   OH278114   3.684   1.115   0.735 -0.8542 -0.4461 -0.3249
18900TIP3    H178115   3.724   1.085   0.816 -0.7010  0.0261 -0.2227
18900TIP3    H278116   3.616   1.177   0.762 -0.3734  0.1988 -0.5850
18901TIP3   OH278117   1.390   4.805  11.773  0.8635 -0.2043 -0.6694
18901TIP3    H178118   1.434   4.742  11.829  1.0281  1.3004  0.9717
18901TIP3    H278119   1.460   4.861  11.740  0.3279  3.3741  3.4201
18902TIP3   OH278120   2.789   3.052   2.613 -0.0004  0.5296  0.3459
18902TIP3    H178121   2.701   3.089   2.618 -0.0427  0.7095 -1.4036
18902TIP3    H278122   2.797   3.018   2.524  1.6191  0.2814  0.5467
18903TIP3   OH278123   0.201   5.983   0.835 -0.7181 -0.5344  0.0843
18903TIP3    H178124   0.180   6.000   0.927  1.5288  0.2975  0.4986
18903TIP3    H278125   0.297   5.988   0.831 -0.7982  0.2751 -2.4606
18904TIP3   OH278126   6.381   5.094  11.331  0.2981 -0.2472 -0.2097
18904TIP3    H178127   6.311   5.074  11.269 -0.1729  0.6446  0.0154
18904TIP3    H278128   6.437   5.016  11.330  0.1436 -0.3635 -1.5237
18905TIP3   OH278129   5.703   1.477   2.587 -0.5746 -0.5657 -0.5189
18905TIP3    H178130   5.650   1.555   2.601 -0.2180 -0.1689 -1.2933
18905TIP3    H278131   5.793   1.510   2.584 -0.5133 -0.7995 -2.1444
18906TIP3   OH278132   1.926   3.373  14.386 -0.4597  0.1067 -0.4210
18906TIP3    H178133   1.898   3.411  14.302  0.3251  1.1519 -0.2251
18906TIP3    H278134   2.016   3.346  14.372 -0.1797  0.6829  0.2038
18907TIP3   OH278135   5.294   6.755  11.973  0.2847  0.2582 -0.3998
18907TIP3    H178136   5.380   6.714  11.962  0.7015  1.5825 -2.7462
18907TIP3    H278137   5.314   6.845  12.001 -0.4368  0.0806  0.7428
18908TIP3   OH278138   2.409   3.841   5.658 -0.1475 -0.3697  0.0657
18908TIP3    H178139   2.392   3.935   5.666  0.0264 -0.0050 -2.8310
18908TIP3    H278140   2.351   3.801   5.724  0.1753  1.7391  1.7523
18909TIP3   OH278141   3.035   0.443   4.499  0.1629  0.4280 -0.3095
18909TIP3    H178142   3.101   0.419   4.434  0.2959 -0.3852  0.1214
18909TIP3    H278143   3.085   0.482   4.571  0.2492 -0.7787  0.2982
18910TIP3   OH278144   0.925   4.892  16.770 -0.6936  0.4182 -0.2419
18910TIP3    H178145   0.901   4.893  16.863  0.8874  0.0001  0.1973
18910TIP3    H278146   1.018   4.912  16.769 -0.7530  0.7488 -1.7808
18911TIP3   OH278147   2.486   4.283  15.089 -0.9829  0.9101  0.0884
18911TIP3    H178148   2.573   4.296  15.126 -0.4288  1.0013 -1.1708
18911TIP3    H278149   2.432   4.255  15.163  0.2672  0.2046  0.7806
18912TIP3   OH278150   2.766   3.133   6.415 -0.0347 -0.0467  0.3043
18912TIP3    H178151   2.710   3.164   6.486 -0.2263 -1.2382  0.6924
18912TIP3    H278152   2.729   3.048   6.390  1.0104 -0.4021 -0.1026
18913TIP3   OH278153   2.411   6.643  15.398 -0.1706 -0.1535 -0.5465
18913TIP3    H178154   2.475   6.661  15.329 -0.0119 -0.1427 -0.3956
18913TIP3    H278155   2.373   6.559  15.372 -0.4308  0.0651 -0.8856
18914TIP3   OH278156   5.818   6.490   3.331 -0.0132  0.2466  0.2247
18914TIP3    H178157   5.850   6.404   3.304 -1.7733  0.0991 -1.6618
18914TIP3    H278158   5.821   6.543   3.252 -1.9313  0.9470  0.5591
18915TIP3   OH278159   5.288   2.863  13.613  0.0092  0.4355  0.1231
18915TIP3    H178160   5.310   2.816  13.693  0.1608 -0.7200 -0.5795
18915TIP3    H278161   5.343   2.823  13.545 -1.1796  0.3787 -0.8440
18916TIP3   OH278162   3.307   6.076  12.543 -0.6752  0.1870 -0.3568
18916TIP3    H178163   3.336   6.087  12.453 -0.9374 -0.3794 -0.5125
18916TIP3    H278164   3.384   6.044  12.590 -1.3123 -2.5182 -1.0217
18917TIP3   OH278165   4.146   4.068  17.072  0.0276  0.5259  0.1951
18917TIP3    H178166   4.151   4.041  17.163 -2.4895 -0.2718  0.1771
18917TIP3    H278167   4.236   4.089  17.048  1.5000 -3.2155  1.6662
18918TIP3   OH278168   3.338   1.724  15.728 -0.0286 -0.2751  0.0281
18918TIP3    H178169   3.282   1.694  15.656  0.5142  1.3060 -1.1078
18918TIP3    H278170   3.422   1.744  15.686 -0.1785  2.2169  0.7716
18919TIP3   OH278171   2.725   4.260  15.331  0.0577 -0.1459 -0.1359
18919TIP3    H178172   2.769   4.204  15.267 -1.2261 -1.4097  0.0392
18919TIP3    H278173   2.773   4.246  15.412  1.3717  1.0721 -0.6420
18920TIP3   OH278174   3.710   2.104  14.155 -0.5589 -0.1558 -0.6053
18920TIP3    H178175   3.759   2.077  14.232  0.0539  1.9905 -0.1591
18920TIP3    H278176   3.620   2.111  14.185 -0.3072  0.7674 -0.0227
18921TIP3   OH278177   0.783   4.574  14.053 -0.5877 -0.4044  0.1980
18921TIP3    H178178   0.787   4.493  14.001 -2.3325  0.0059 -0.6493
18921TIP3    H278179   0.759   4.642  13.990 -0.8912  0.4565  1.2145
18922TIP3   OH278180   3.418   6.670  13.419 -0.5093  0.1482  0.3215
18922TIP3    H178181   3.388   6.623  13.341 -0.6902  1.1854 -0.2503
18922TIP3    H278182   3.474   6.740  13.384 -1.3280  1.1916  1.0379
18923TIP3   OH278183   0.725   1.329  11.952  0.1213  0.1927 -0.1575
18923TIP3    H178184   0.783   1.254  11.956  1.1374  1.0125  1.4007
18923TIP3    H278185   0.744   1.379  12.031 -1.1974  1.6077 -0.6732
18924TIP3   OH278186   6.041   2.588   0.508  0.0197  0.3309  0.1339
18924TIP3    H178187   6.057   2.618   0.597  0.4100  1.4073 -0.2775
18924TIP3    H278188   6.081   2.656   0.452  0.0690 -0.4764 -0.8513
18925TIP3   OH278189   3.072   2.607  17.334 -0.1544 -0.1250 -0.0947
18925TIP3    H178190   3.153   2.643  17.296 -0.3499 -0.8783 -1.2841
18925TIP3    H278191   3.002   2.649  17.286 -0.4883  0.4147  0.8380
18926TIP3   OH278192   4.410   6.681  14.462  0.0096  0.2722  0.3121
18926TIP3    H178193   4.483   6.681  14.400 -2.0846  1.2830 -2.3242
18926TIP3    H278194   4.388   6.588  14.473 -1.1473  0.0728 -2.6121
18927TIP3   OH278195   1.961   2.715   0.005 -0.1941  0.4343 -0.8018
18927TIP3    H178196   1.983   2.624  -0.014 -0.5976  0.8522 -3.8443
18927TIP3    H278197   1.904   2.711   0.082 -1.4677 -2.0671 -1.7656
18928TIP3   OH278198   5.165   1.242  12.338  0.3467  0.2545 -0.0944
18928TIP3    H178199   5.207   1.156  12.338 -0.2252 -0.0393 -1.0679
18928TIP3    H278200   5.190   1.281  12.254  0.5503  1.0152  0.3114
18929TIP3   OH278201   1.776   2.954   1.639 -0.3818  0.3273 -0.5121
18929TIP3    H178202   1.684   2.964   1.615 -0.1576  1.8581 -0.8047
18929TIP3    H278203   1.812   2.898   1.569 -0.9981  0.0004 -0.5802
18930TIP3   OH278204   5.756   1.950   4.793  0.0287 -0.3283 -0.1247
18930TIP3    H178205   5.793   1.878   4.742  2.1609 -0.5679  1.5794
18930TIP3    H278206   5.715   1.908   4.868 -0.7150  0.1438 -0.2557
18931TIP3   OH278207   5.144   1.784   1.735  0.6344 -0.4603  0.3202
18931TIP3    H178208   5.164   1.878   1.742 -1.3724 -0.0165  0.4511
18931TIP3    H278209   5.049   1.779   1.739  0.6526 -2.4375 -0.7420
18932TIP3   OH278210   6.373   5.199  16.610  0.1367 -0.6451 -0.1066
18932TIP3    H178211   6.339   5.220  16.697  0.4559 -0.2096 -0.0823
18932TIP3    H278212   6.418   5.279  16.583 -0.5214 -0.5476 -0.9453
18933TIP3   OH278213   2.942   4.958   4.182 -0.4725 -0.5551  0.1294
18933TIP3    H178214   3.037   4.970   4.182 -0.6387  1.0117  0.5214
18933TIP3    H278215   2.919   4.949   4.275 -0.7642 -0.2781  0.0864
18934TIP3   OH278216   4.420   1.260   3.725  0.7183 -0.0312  0.0915
18934TIP3    H178217   4.326   1.252   3.709  0.3365  0.4812  1.8908
18934TIP3    H278218   4.459   1.256   3.637 -0.9177 -0.8074 -0.6519
18935TIP3   OH278219   5.691   4.380   1.419  0.0154 -0.2837 -0.3961
18935TIP3    H178220   5.603   4.344   1.435 -0.5500  1.2224  0.1222
18935TIP3    H278221   5.746   4.339   1.485 -0.2245 -1.4638 -0.9095
18936TIP3   OH278222   2.640   1.298  16.390  0.0510 -0.1498 -0.5518
18936TIP3    H178223   2.689   1.336  16.463 -1.1294 -0.0641  0.2247
18936TIP3    H278224   2.629   1.206  16.414 -2.0936  0.3072  0.4106
18937TIP3   OH278225   5.725   5.280   2.075 -0.4727 -0.0767  0.9041
18937TIP3    H178226   5.681   5.351   2.122 -0.8396  0.4808 -0.2617
18937TIP3    H278227   5.778   5.236   2.143  2.6423  3.4827  1.0848
18938TIP3   OH278228   5.650   4.313  16.717 -0.2852  0.3323 -0.1641
18938TIP3    H178229   5.714   4.358  16.771 -0.6731  3.3070 -1.9856
18938TIP3    H278230   5.574   4.303  16.773  0.6025 -0.2320  0.9855
18939TIP3   OH278231   5.888   1.484   1.923 -0.1264  0.0343 -0.1782
18939TIP3    H178232   5.860   1.546   1.991  1.5908  2.2724 -1.3437
18939TIP3    H278233   5.861   1.525   1.841  2.7174  0.2925 -1.0973
18940TIP3   OH278234   0.952   5.950   0.022 -0.1588  0.1045 -0.2616
18940TIP3    H178235   0.946   6.001   0.103  0.2674 -0.0439 -0.1353
18940TIP3    H278236   0.994   5.868   0.048  0.1137  0.1155 -0.6627
18941TIP3   OH278237   1.394   0.946   5.662  0.2313  0.5546  0.8902
18941TIP3    H178238   1.303   0.921   5.645 -0.1523  2.6003 -0.3613
18941TIP3    H278239   1.394   0.977   5.753 -0.7554  2.1670  0.3818
18942TIP3   OH278240   2.842   3.489  12.584 -0.1591 -0.3901 -0.4273
18942TIP3    H178241   2.919   3.435  12.600  0.4430  0.7788  0.7786
18942TIP3    H278242   2.836   3.494  12.488  0.8037 -1.1088 -0.5435
18943TIP3   OH278243   4.589   1.679   1.034  0.2207 -0.4186  0.1868
18943TIP3    H178244   4.623   1.729   1.108  0.2547  0.1815 -0.2251
18943TIP3    H278245   4.524   1.620   1.072  0.1693 -0.0464  0.6826
18944TIP3   OH278246   3.494   6.291  16.732 -0.2044  0.2414  0.5574
18944TIP3    H178247   3.443   6.225  16.778  0.9655 -0.5370  0.7683
18944TIP3    H278248   3.448   6.374  16.750 -1.1374 -0.3753  1.0798
18945TIP3   OH278249   4.441   0.449   1.331 -0.0785  0.2395 -0.3709
18945TIP3    H178250   4.483   0.366   1.308  0.9653 -0.0046  2.0863
18945TIP3    H278251   4.427   0.443   1.426 -3.8733  1.1667 -0.6786
18946TIP3   OH278252   4.256   1.990   1.705  0.0422  0.5364 -0.0358
18946TIP3    H178253   4.275   1.950   1.621  0.1871  0.4354  0.0455
18946TIP3    H278254   4.326   2.053   1.719  0.0925  0.4569  0.0722
18947TIP3   OH278255   0.386   4.513   3.220 -0.2068  0.1888  0.5792
18947TIP3    H178256   0.342   4.597   3.237 -1.6239 -0.4627  0.2972
18947TIP3    H278257   0.443   4.530   3.145 -1.2197  0.6656 -0.1013
18948TIP3   OH278258   3.154   6.037  17.269  0.4842  0.4274  0.4331
18948TIP3    H178259   3.113   5.951  17.273 -0.8430  1.0578  0.9111
18948TIP3    H278260   3.220   6.029  17.200  0.3100 -0.9217  0.3866
18949TIP3   OH278261   4.603   3.611  15.279 -0.3912 -0.7256 -0.5115
18949TIP3    H178262   4.569   3.572  15.359 -1.9718 -1.2444 -1.3918
18949TIP3    H278263   4.541   3.585  15.211 -1.1257  2.6336 -1.2985
18950TIP3   OH278264   0.720   4.232   4.504  0.0512  0.2646  0.1893
18950TIP3    H178265   0.657   4.251   4.435 -1.6344  1.0965  1.8564
18950TIP3    H278266   0.685   4.154   4.547  0.9466 -0.1112  0.2455
18951TIP3   OH278267   6.608   3.126  12.363  0.3056 -0.1867 -0.2361
18951TIP3    H178268   6.599   3.115  12.458  0.1864  0.3844 -0.1777
18951TIP3    H278269   6.522   3.153  12.333  0.8552  1.7547 -0.1893
18952TIP3   OH278270   5.508   1.556  16.636  0.5522  0.2535 -0.2605
18952TIP3    H178271   5.527   1.617  16.707  0.8729  0.6478 -0.6819
18952TIP3    H278272   5.513   1.609  16.556 -1.1891  0.1437 -0.4928
18953TIP3   OH278273   4.338   3.565  14.077  0.2149  0.6102  0.0946
18953TIP3    H178274   4.258   3.513  14.070  0.9783 -0.6525  0.4213
18953TIP3    H278275   4.314   3.651  14.042 -1.1028  0.0656 -0.4033
18954TIP3   OH278276   5.768   4.739   0.812 -0.1473  0.6784  0.6879
18954TIP3    H178277   5.831   4.805   0.785  0.9744 -1.0110 -1.1794
18954TIP3    H278278   5.809   4.694   0.885  2.1901 -2.0002 -1.9809
18955TIP3   OH278279   6.468   2.918  15.801 -0.2317 -0.1183  0.3545
18955TIP3    H178280   6.383   2.883  15.827  0.6569 -2.6517  0.0780
18955TIP3    H278281   6.493   2.869  15.723  0.5255  2.1661 -0.9635
18956TIP3   OH278282   3.321   6.136   3.204 -0.5071 -0.1944 -0.9855
18956TIP3    H178283   3.245   6.110   3.256  0.1790 -1.7054 -0.6774
18956TIP3    H278284   3.284   6.187   3.132 -1.4292  2.3344  1.1307
18957TIP3   OH278285   0.176   5.817  15.636 -0.0415 -0.0032  0.6430
18957TIP3    H178286   0.259   5.864  15.630  0.1070 -0.3344 -0.0582
18957TIP3    H278287   0.114   5.881  15.670  0.1133  0.7604 -0.4371
18958TIP3   OH278288   3.585   5.832  15.961 -0.2327 -0.0231  0.0133
18958TIP3    H178289   3.586   5.742  15.929 -0.9229  0.2676 -0.8927
18958TIP3    H278290   3.627   5.828  16.046 -2.1347 -1.5812  0.9590
18959TIP3   OH278291   1.847   1.033  14.494  0.2162 -0.6695  0.7674
18959TIP3    H178292   1.856   1.038  14.590  1.4305  0.6950  0.6181
18959TIP3    H278293   1.934   1.009  14.463 -0.4917 -2.4836  0.0411
18960TIP3   OH278294   0.893   4.656   0.297  0.1291 -0.3267  0.0612
18960TIP3    H178295   0.879   4.750   0.308  0.8232 -0.2661  0.4674
18960TIP3    H278296   0.976   4.638   0.341 -0.1272 -1.1777  0.2232
18961TIP3   OH278297   6.169   0.029  15.639  0.0898 -0.5717 -0.0383
18961TIP3    H178298   6.201   0.113  15.674 -1.4279 -0.5710  1.5010
18961TIP3    H278299   6.197  -0.036  15.704 -0.7525 -0.9138 -0.0085
18962TIP3   OH278300   3.881   3.104   4.799 -0.1503  0.0216  0.0858
18962TIP3    H178301   3.803   3.050   4.806 -0.9051  1.0761  0.0748
18962TIP3    H278302   3.948   3.046   4.764 -1.3259 -0.5387 -1.3188
18963TIP3   OH278303   0.235   2.252  13.704 -0.1665  0.0867  0.1170
18963TIP3    H178304   0.193   2.187  13.646  2.0181 -2.5436  1.2566
18963TIP3    H278305   0.170   2.322  13.712 -2.7824 -2.0054 -1.0835
18964TIP3   OH278306   2.236   3.117   4.267  0.0049 -0.3896  0.0816
18964TIP3    H178307   2.259   3.147   4.355 -0.4379 -2.1628  0.8456
18964TIP3    H278308   2.181   3.040   4.281 -1.5734  0.3041 -1.7382
18965TIP3   OH278309   5.570   4.850  14.974 -0.5726 -0.0657 -0.3124
18965TIP3    H178310   5.501   4.914  14.958  0.4109  1.2043  0.3491
18965TIP3    H278311   5.638   4.870  14.910  0.2150  0.2867  0.6069
18966TIP3   OH278312   4.823   0.480   0.421  0.4918 -0.0193 -0.0025
18966TIP3    H178313   4.768   0.442   0.354 -0.4425 -0.1316  0.8071
18966TIP3    H278314   4.794   0.440   0.503  1.1704  0.5791  0.5556
18967TIP3   OH278315   2.948   6.013   4.760  0.0405 -0.6427 -0.0716
18967TIP3    H178316   2.934   5.960   4.838 -0.6838 -0.1478  0.1369
18967TIP3    H278317   2.953   5.950   4.688  1.1017 -1.1319  0.4087
18968TIP3   OH278318   4.097   2.920  14.321 -0.3593  0.4569 -0.0821
18968TIP3    H178319   4.007   2.936  14.349  0.1281 -0.3157  2.1686
18968TIP3    H278320   4.142   3.002  14.340 -0.0908  0.0262  1.2637
18969TIP3   OH278321   2.334   3.773  13.989 -0.4599 -0.1873 -0.3743
18969TIP3    H178322   2.254   3.825  13.991 -1.0789 -1.0650 -1.2577
18969TIP3    H278323   2.380   3.802  13.910  0.0836  0.2736  0.0986
18970TIP3   OH278324   0.245   1.219   2.388 -0.0780  0.5703  0.3810
18970TIP3    H178325   0.254   1.235   2.481  0.1620  0.1164  0.4383
18970TIP3    H278326   0.151   1.210   2.374 -0.1444  1.0221  0.5094
18971TIP3   OH278327   4.442   0.020  11.812 -0.1707 -0.0130  0.3222
18971TIP3    H178328   4.523   0.026  11.863  1.1585 -2.1377 -1.3627
18971TIP3    H278329   4.458  -0.051  11.750 -2.4955  1.0433 -1.6360
18972TIP3   OH278330   3.972   5.947  12.561 -0.3070 -0.4270 -0.4931
18972TIP3    H178331   3.945   5.918  12.648 -1.3371  0.0688 -0.6318
18972TIP3    H278332   3.891   5.978  12.519 -0.0873 -1.8702 -2.1116
18973TIP3   OH278333   5.961   0.039   3.438 -0.3268 -0.3184  0.3350
18973TIP3    H178334   5.917   0.112   3.482 -1.0772  0.2145 -1.1870
18973TIP3    H278335   5.900   0.014   3.368  1.7021  0.4266 -1.8581
18974TIP3   OH278336   5.443   2.317   4.020  0.1274  0.4655  0.2460
18974TIP3    H178337   5.349   2.317   4.005  0.0445  1.2599  0.7176
18974TIP3    H278338   5.468   2.225   4.020 -0.9055  0.1593  1.7011
18975TIP3   OH278339   2.987   6.266  13.633 -0.5526 -0.2278 -0.3993
18975TIP3    H178340   3.070   6.270  13.587  0.1465 -0.3195  0.8043
18975TIP3    H278341   3.011   6.248  13.724 -1.8943 -0.3804 -0.0519
18976TIP3   OH278342   2.747   2.637   2.635 -0.1437 -1.0867 -0.0968
18976TIP3    H178343   2.834   2.667   2.609 -1.4006  1.3130 -2.0046
18976TIP3    H278344   2.720   2.698   2.703 -1.1877 -0.2344 -1.2107
18977TIP3   OH278345   5.586   4.870  14.188  0.3972  0.0340  0.0083
18977TIP3    H178346   5.557   4.787  14.150 -0.5404  0.6586 -0.6749
18977TIP3    H278347   5.681   4.871  14.173  0.5220 -1.1870  0.5838
18978TIP3   OH278348   6.284   5.069  12.708  0.3764  0.0772 -0.1455
18978TIP3    H178349   6.334   5.107  12.635 -2.2365  0.9747 -1.5766
18978TIP3    H278350   6.233   5.142  12.743 -0.9492 -1.0529  0.3607
18979TIP3   OH278351   5.831   0.958   4.310 -0.1061 -0.2120  0.4158
18979TIP3    H178352   5.837   0.964   4.405  0.5093  0.2932  0.3464
18979TIP3    H278353   5.853   1.046   4.279 -0.2878 -0.3800 -0.1955
18980TIP3   OH278354   6.411   2.238  12.689  0.2207  0.0311 -0.2238
18980TIP3    H178355   6.369   2.313  12.647  1.9854  1.0567 -0.2640
18980TIP3    H278356   6.477   2.209  12.627  0.6503 -0.5299  0.4721
18981TIP3   OH278357   2.175   5.344  14.179 -1.0142  0.4763 -0.4993
18981TIP3    H178358   2.196   5.437  14.171  0.5956  0.4322  2.0508
18981TIP3    H278359   2.151   5.332  14.271  0.9015 -1.9389 -0.2102
18982TIP3   OH278360   4.843   0.220   4.299  0.6659  0.2700 -0.0034
18982TIP3    H178361   4.856   0.315   4.298  0.7096  0.2723  0.6911
18982TIP3    H278362   4.901   0.189   4.368  1.3763 -0.3721 -0.8731
18983TIP3   OH278363   4.354   1.603  13.765  0.2323 -0.8624 -0.1484
18983TIP3    H178364   4.287   1.581  13.831 -1.2994 -1.3305 -1.7747
18983TIP3    H278365   4.437   1.585  13.809 -0.7543 -2.2286  1.3038
18984TIP3   OH278366   1.592   0.790  14.673 -0.0421 -0.2463 -0.3626
18984TIP3    H178367   1.640   0.843  14.737 -0.6467  1.4391 -1.2427
18984TIP3    H278368   1.508   0.772  14.715 -0.2180  0.3597 -0.4494
18985TIP3   OH278369   1.196   4.950   3.540 -0.1564 -0.3006  0.3303
18985TIP3    H178370   1.171   4.878   3.482  1.2029 -1.0314  0.6020
18985TIP3    H278371   1.114   4.994   3.560 -0.8955 -1.1627 -0.6486
18986TIP3   OH278372   0.025   3.310  12.322  0.2719  0.1536 -0.0724
18986TIP3    H178373   0.028   3.337  12.414  2.6268  2.0074 -0.5848
18986TIP3    H278374  -0.043   3.243  12.319 -0.7450  0.9073  2.7686
18987TIP3   OH278375   1.769   0.612  12.619 -0.2907  0.6170 -0.4073
18987TIP3    H178376   1.830   0.686  12.622 -0.4623  0.7526  1.9011
18987TIP3    H278377   1.710   0.633  12.547  0.7465  1.8306 -0.9507
18988TIP3   OH278378   2.409   0.831   1.675  0.0346 -0.2260  0.1214
18988TIP3    H178379   2.369   0.870   1.597 -0.0621 -0.0628  0.2520
18988TIP3    H278380   2.433   0.906   1.730  1.1086 -0.2823 -0.2352
18989TIP3   OH278381   2.036   1.253   4.576  0.5203 -0.6169 -0.4603
18989TIP3    H178382   1.962   1.303   4.610  0.8997 -0.3930  0.0394
18989TIP3    H278383   2.030   1.263   4.481  1.0490  1.0570 -0.3472
18990TIP3   OH278384   5.268   3.109  17.020  0.2078 -0.0244  0.4368
18990TIP3    H178385   5.182   3.068  17.013  0.0763 -0.3687  3.1448
18990TIP3    H278386   5.326   3.051  16.970 -0.5924 -1.5953  1.2523
18991TIP3   OH278387   4.719   6.687  13.898  0.7426 -0.1939 -0.0227
18991TIP3    H178388   4.777   6.611  13.900  1.9307  0.6970  0.1242
18991TIP3    H278389   4.775   6.761  13.919 -0.5754  0.6314  0.7438
18992TIP3   OH278390   1.221   5.393   6.939  0.3458 -0.5140 -0.1565
18992TIP3    H178391   1.162   5.367   7.010  1.7268  0.9637  1.6354
18992TIP3    H278392   1.168   5.450   6.883 -0.5731 -1.1656  0.0317
18993TIP3   OH278393   0.113   6.499  11.709 -0.6444  0.5019  0.5122
18993TIP3    H178394   0.084   6.589  11.694  2.4224  1.2509 -2.0855
18993TIP3    H278395   0.175   6.505  11.782 -1.9942  0.0446  1.7441
18994TIP3   OH278396   3.878   1.383   1.131  0.0413 -0.2788  0.2152
18994TIP3    H178397   3.841   1.468   1.107 -2.1060 -1.2628 -0.1962
18994TIP3    H278398   3.882   1.335   1.048  0.0936 -1.0027  0.6345
18995TIP3   OH278399   4.068   0.451   1.900  0.2543  0.1670  0.0433
18995TIP3    H178400   4.034   0.499   1.824  1.5848  0.2858 -0.5119
18995TIP3    H278401   4.007   0.378   1.912  0.5449 -0.4310 -1.7732
18996TIP3   OH278402   5.277   0.929  14.734  0.5816 -0.0473 -0.1552
18996TIP3    H178403   5.186   0.940  14.760  0.1094  0.2989 -1.8757
18996TIP3    H278404   5.308   1.017  14.715  1.8069  0.0429  1.9624
18997TIP3   OH278405   4.825   3.277  14.066 -0.1442 -0.4562 -0.3324
18997TIP3    H178406   4.918   3.296  14.056 -0.3443  1.4467  0.9768
18997TIP3    H278407   4.799   3.241  13.981  0.9312  2.8067 -2.2296
18998TIP3   OH278408   1.505   4.682   6.758 -0.7313  0.1111 -0.2846
18998TIP3    H178409   1.521   4.728   6.675  0.4252 -0.1224 -0.1959
18998TIP3    H278410   1.476   4.751   6.818  0.4060  0.6416 -0.3240
18999TIP3   OH278411   5.924   3.271   1.542  0.4483  0.7485  0.2979
18999TIP3    H178412   5.922   3.175   1.533  2.5245  0.7755 -1.3479
18999TIP3    H278413   5.834   3.298   1.525 -0.0646 -0.8819  0.1811
19000TIP3   OH278414   2.374   4.575   1.453  0.1566  0.6801 -0.1306
19000TIP3    H178415   2.383   4.643   1.387  1.0455  1.3836  0.6999
19000TIP3    H278416   2.289   4.593   1.495 -0.2355  0.4518 -0.8200
19001TIP3   OH278417   2.595   5.132   2.894  0.0646  0.4715 -0.1540
19001TIP3    H178418   2.555   5.145   2.808 -1.3263  1.6388  0.6318
19001TIP3    H278419   2.616   5.220   2.925 -1.4173  0.2853  1.5658
19002TIP3   OH278420   1.078   2.588   5.833 -0.3635  0.6113 -0.1112
19002TIP3    H178421   1.081   2.496   5.807  1.0597  0.9518 -1.2558
19002TIP3    H278422   1.168   2.609   5.857 -1.0058  1.2379  1.9807
19003TIP3   OH278423   2.258   1.972   4.157 -0.3053 -0.4205  0.2449
19003TIP3    H178424   2.223   2.060   4.140  0.1786 -0.5027 -1.3880
19003TIP3    H278425   2.299   1.947   4.074  3.6210 -0.3442  1.9438
19004TIP3   OH278426   4.432   0.425   1.594  0.2757  0.5527 -0.4330
19004TIP3    H178427   4.452   0.518   1.607  2.4255 -0.1493  1.9596
19004TIP3    H278428   4.354   0.410   1.646  0.2212  0.9142 -0.4048
19005TIP3   OH278429   5.643   3.273  14.857  0.2225 -0.5581 -0.1798
19005TIP3    H178430   5.587   3.197  14.870 -0.2678 -0.1464  0.1588
19005TIP3    H278431   5.732   3.241  14.874 -0.0862 -0.7787  1.1226
19006TIP3   OH278432   1.968   3.714   4.551  0.1256 -0.2406 -0.3760
19006TIP3    H178433   1.884   3.681   4.582  0.7046 -1.7539 -0.3439
19006TIP3    H278434   1.958   3.809   4.553 -1.0039 -0.3549  1.2264
19007TIP3   OH278435   2.988   2.218   3.943 -0.3771  0.2721 -0.2840
19007TIP3    H178436   3.049   2.291   3.934 -0.0957 -0.1542 -2.1071
19007TIP3    H278437   3.035   2.153   3.996 -0.8738  1.6190  1.9105
19008TIP3   OH278438   2.984   4.599   3.094  0.4239  0.0254  0.8810
19008TIP3    H178439   2.968   4.624   3.185  1.1701 -0.7578  1.2500
19008TIP3    H278440   2.972   4.504   3.094  0.5342  0.0107  0.1873
19009TIP3   OH278441   5.680   5.710  17.284 -0.2318  0.7661  0.2442
19009TIP3    H178442   5.667   5.707  17.379 -0.2765  1.8350  0.2770
19009TIP3    H278443   5.696   5.802  17.264 -0.6783  0.6241 -0.8485
19010TIP3   OH278444   0.405   4.599  12.484  0.1974 -0.1668  0.5195
19010TIP3    H178445   0.434   4.550  12.408  0.8559  0.2404  0.4979
19010TIP3    H278446   0.393   4.688  12.452 -0.6604 -0.2398  0.6307
19011TIP3   OH278447   2.300   4.847  12.791 -0.5658 -0.3516 -0.0697
19011TIP3    H178448   2.281   4.762  12.750 -1.9806  0.6497 -1.6232
19011TIP3    H278449   2.386   4.872  12.757 -0.3534 -0.9333  0.0307
19012TIP3   OH278450   3.942   5.099   3.449  0.4072  0.4654  0.0390
19012TIP3    H178451   4.028   5.122   3.484  0.2084 -0.1885  0.9906
19012TIP3    H278452   3.930   5.007   3.473  0.8814 -0.5050 -3.0129
19013TIP3   OH278453   1.566   3.182   1.377  0.3816 -0.2572  0.8555
19013TIP3    H178454   1.520   3.213   1.298 -0.3366  0.7037  1.6244
19013TIP3    H278455   1.657   3.209   1.364  0.1164  0.5912  0.6905
19014TIP3   OH278456   2.552   1.123  17.215  0.1145 -0.0530 -0.2244
19014TIP3    H178457   2.469   1.082  17.239 -0.1576  0.7659  0.2780
19014TIP3    H278458   2.527   1.211  17.186  0.9078  0.5897  0.9887
19015TIP3   OH278459   5.229   1.198   3.493 -0.4352  0.5749 -0.3523
19015TIP3    H178460   5.147   1.247   3.499 -0.2687  0.8014  0.1704
19015TIP3    H278461   5.206   1.117   3.448 -1.2425  0.0220  1.0028
19016TIP3   OH278462   2.940   2.789  17.159 -0.9043  0.3972  0.3189
19016TIP3    H178463   2.889   2.870  17.156 -0.7630  0.4688 -1.8318
19016TIP3    H278464   3.018   2.808  17.108 -1.1663 -1.2649 -0.7734
19017TIP3   OH278465   0.354   5.147  16.085 -0.5252  0.1445 -0.7738
19017TIP3    H178466   0.427   5.178  16.138  1.1568  0.7435 -3.2252
19017TIP3    H278467   0.342   5.215  16.019 -0.4634 -1.7715 -2.9238
19018TIP3   OH278468   4.701   3.755   1.461 -0.1275 -0.4635  0.2788
19018TIP3    H178469   4.775   3.802   1.499 -1.0499  1.2169  0.1381
19018TIP3    H278470   4.662   3.707   1.534  0.8169 -0.9789  0.4486
19019TIP3   OH278471   3.400   3.361  11.291  0.1454  0.1963 -0.9188
19019TIP3    H178472   3.455   3.375  11.213  0.8361 -0.3088 -0.5356
19019TIP3    H278473   3.314   3.338  11.256  0.3897  0.1867 -1.5336
19020TIP3   OH278474   4.936   4.245   4.255  0.3894 -0.4987 -0.4376
19020TIP3    H178475   4.984   4.324   4.279 -0.5211  0.2213 -0.9314
19020TIP3    H278476   4.895   4.216   4.337 -0.5113  0.4159 -0.5490
19021TIP3   OH278477   3.900   5.912   0.663  0.2017 -0.4081  0.1344
19021TIP3    H178478   3.929   5.987   0.611  0.2808  0.2944  1.1804
19021TIP3    H278479   3.847   5.860   0.602 -1.2159  1.3313 -0.1800
19022TIP3   OH278480   0.634   4.133  10.850  0.1782 -0.0227 -0.3371
19022TIP3    H178481   0.715   4.166  10.810  1.0251 -1.4029  0.1754
19022TIP3    H278482   0.617   4.050  10.805  0.7052 -1.2085  1.5328
19023TIP3   OH278483   5.343   3.171   0.038 -0.5575  0.4002  0.2410
19023TIP3    H178484   5.397   3.148  -0.038 -1.7272  0.3403 -0.5852
19023TIP3    H278485   5.276   3.103   0.041 -1.0262  0.8840  0.8298
19024TIP3   OH278486   3.278   4.855  12.795  0.4391  0.0606  0.0356
19024TIP3    H178487   3.277   4.937  12.846  0.2652  0.0050  0.1227
19024TIP3    H278488   3.220   4.873  12.721  0.8290  0.2015 -0.2406
19025TIP3   OH278489   4.025   1.957   1.863 -0.2044  0.3594  0.3531
19025TIP3    H178490   4.097   1.974   1.802  0.8873 -0.5686  1.3447
19025TIP3    H278491   4.038   2.019   1.934  1.2052 -1.5203  1.8174
19026TIP3   OH278492   0.896   0.563  13.474 -0.0958  0.5857 -0.3920
19026TIP3    H178493   0.924   0.504  13.404 -0.4775  0.6857 -0.6341
19026TIP3    H278494   0.954   0.639  13.466 -2.0065  1.9736 -2.5532
19027TIP3   OH278495   1.033   6.006  10.906 -0.0357 -0.0242  0.3688
19027TIP3    H178496   0.978   6.010  10.827 -0.8735  0.5665  0.9703
19027TIP3    H278497   1.097   5.937  10.886  1.0260  1.4180 -1.6162
19028TIP3   OH278498   1.668   3.695  16.998  0.1903  0.3091 -0.1597
19028TIP3    H178499   1.746   3.715  16.945  0.1637  2.4389  0.4844
19028TIP3    H278500   1.670   3.760  17.069 -1.8316  0.0067  0.2438
19029TIP3   OH278501   5.693   6.689  15.430 -0.1055 -0.1877 -0.3223
19029TIP3    H178502   5.646   6.724  15.506  0.2584 -1.8082  0.7032
19029TIP3    H278503   5.786   6.700  15.452  0.0106 -1.1733 -0.2346
19030TIP3   OH278504   0.695   4.882   0.640 -0.3645  0.5414 -0.7998
19030TIP3    H178505   0.715   4.817   0.572 -3.4986  0.6315 -1.9598
19030TIP3    H278506   0.665   4.958   0.591  1.2463  2.1932  0.6250
19031TIP3   OH278507   5.594   1.122   1.581  0.4646  0.1215 -0.1879
19031TIP3    H178508   5.646   1.182   1.634 -1.4677  1.6452  0.0765
19031TIP3    H278509   5.649   1.044   1.572  2.1062  1.0355  1.4021
19032TIP3   OH278510   1.986   0.116   4.601 -0.4469  0.3001  0.8089
19032TIP3    H178511   1.991   0.114   4.696 -0.9240  1.4718  0.8789
19032TIP3    H278512   1.937   0.196   4.581 -0.1162  0.2211 -0.4284
19033TIP3   OH278513   2.950   5.959  12.791 -0.5827  0.5722  0.2249
19033TIP3    H178514   2.950   6.021  12.865 -0.6557  1.4380 -0.4838
19033TIP3    H278515   2.915   5.878  12.828 -0.0919  0.8188  1.2814
19034TIP3   OH278516   1.588   4.067  15.121 -0.3828  0.0844  0.2635
19034TIP3    H178517   1.540   4.115  15.054 -0.9836  0.7127  1.1182
19034TIP3    H278518   1.574   4.117  15.201  0.7779 -0.3479  0.7575
19035TIP3   OH278519   4.180   1.662   3.263 -0.5778  0.0127  0.4451
19035TIP3    H178520   4.206   1.570   3.269  0.0574 -0.0249 -1.7776
19035TIP3    H278521   4.093   1.666   3.303 -0.2655 -1.3748  1.3069
19036TIP3   OH278522   6.631   1.075   4.857 -0.4726 -0.0824 -0.4002
19036TIP3    H178523   6.722   1.085   4.831 -0.5193  0.3936 -0.3854
19036TIP3    H278524   6.625   0.985   4.889 -0.5631 -0.9115 -2.6101
19037TIP3   OH278525   5.189   5.735  12.857  0.5609  0.1036 -0.3995
19037TIP3    H178526   5.187   5.654  12.909 -0.0743 -0.2257 -0.9157
19037TIP3    H278527   5.239   5.797  12.911  1.2234 -0.6877 -0.0827
19038TIP3   OH278528   4.005   5.427  16.620  0.4258  0.2016  0.1797
19038TIP3    H178529   3.951   5.480  16.561 -1.4126 -0.1232  1.4824
19038TIP3    H278530   4.007   5.478  16.702  0.9126 -0.4756  0.5957
19039TIP3   OH278531   2.629   0.187   4.099  0.0631 -1.0095 -0.2071
19039TIP3    H178532   2.646   0.247   4.172  1.6800 -0.5631 -0.9020
19039TIP3    H278533   2.606   0.245   4.026  0.3371 -1.3123 -0.5375
19040TIP3   OH278534   4.148   2.319  12.662  0.1785  0.1014  0.2426
19040TIP3    H178535   4.068   2.355  12.623 -0.2517  0.2774  1.2641
19040TIP3    H278536   4.216   2.341  12.599 -0.3201  1.3798  0.1015
19041TIP3   OH278537   6.572   4.057   5.555 -0.0774 -0.0333 -0.3091
19041TIP3    H178538   6.498   4.069   5.615 -0.7260 -0.4271 -1.0019
19041TIP3    H278539   6.542   4.097   5.473  0.5227 -0.1043 -0.5669
19042TIP3   OH278540   3.414   3.560   5.132 -0.6090 -0.6056  0.4597
19042TIP3    H178541   3.362   3.543   5.210  0.1786 -0.0110  1.1373
19042TIP3    H278542   3.417   3.476   5.086 -0.6450 -1.1017  1.3431
19043TIP3   OH278543   6.403   2.141  13.754  0.0558 -0.3100 -0.6168
19043TIP3    H178544   6.433   2.207  13.817  0.8820 -2.2178  1.0808
19043TIP3    H278545   6.315   2.170  13.730  0.2286  1.1830  0.3936
19044TIP3   OH278546   2.359   0.621  11.624 -0.0850  0.6822  0.1546
19044TIP3    H178547   2.375   0.565  11.548  0.7090  2.5682 -1.1484
19044TIP3    H278548   2.264   0.631  11.627 -0.2188 -0.4380  0.2375
19045TIP3   OH278549   5.558   3.588   2.210 -0.1111  0.1793  0.1118
19045TIP3    H178550   5.514   3.573   2.126  0.5899  0.5407 -0.3365
19045TIP3    H278551   5.649   3.564   2.193 -0.2254 -1.1002  1.1797
19046TIP3   OH278552   5.476   6.676  16.231  0.4133  0.1121  0.2826
19046TIP3    H178553   5.408   6.628  16.278 -0.1325  1.4781  0.9321
19046TIP3    H278554   5.442   6.765  16.224  0.5686  0.0448 -2.5003
19047TIP3   OH278555   3.720   4.589   0.770 -0.0909 -0.0495  0.2430
19047TIP3    H178556   3.707   4.609   0.677 -0.9863  0.5352  0.4805
19047TIP3    H278557   3.632   4.571   0.803 -0.2355  2.7259  1.6451
19048TIP3   OH278558   0.211   6.050  14.130  0.1130  0.3925  0.0934
19048TIP3    H178559   0.254   6.113  14.188  0.1513  0.6947 -0.2561
19048TIP3    H278560   0.263   6.053  14.049 -0.4718  0.6574 -0.2828
19049TIP3   OH278561   1.188   5.112   1.729 -0.5850  0.6985  0.1650
19049TIP3    H178562   1.147   5.068   1.653  0.9227 -2.1246  0.8319
19049TIP3    H278563   1.114   5.133   1.786 -1.4680 -0.8204 -0.3245
19050TIP3   OH278564   1.721   1.368   5.234 -0.2288 -0.3125  0.1807
19050TIP3    H178565   1.711   1.458   5.202  0.1714 -0.7516 -1.2845
19050TIP3    H278566   1.815   1.359   5.250 -0.2947 -0.4094  0.5122
19051TIP3   OH278567   5.101   5.355  17.350 -0.8109  0.4010  0.6446
19051TIP3    H178568   5.185   5.400  17.361 -1.3969  1.4736  0.9142
19051TIP3    H278569   5.037   5.417  17.383 -1.8564  0.2211 -0.9336
19052TIP3   OH278570   3.765   5.156  16.606  0.0683 -0.1538 -0.6449
19052TIP3    H178571   3.702   5.188  16.670  0.6504  1.6325 -0.9279
19052TIP3    H278572   3.835   5.117  16.658 -0.1759 -0.0804 -0.2579
19053TIP3   OH278573   5.753   0.882  15.834  0.5367 -0.1571 -0.1655
19053TIP3    H178574   5.771   0.922  15.749 -0.0546 -0.2490 -0.3381
19053TIP3    H278575   5.758   0.954  15.896 -1.8191  0.4799 -0.6359
19054TIP3   OH278576   4.144   6.588  16.625 -0.1424  0.3396  0.0766
19054TIP3    H178577   4.100   6.615  16.544 -1.3402 -0.5934  0.3827
19054TIP3    H278578   4.133   6.663  16.683  0.6535  0.9836 -0.5853
19055TIP3   OH278579   1.901   4.458  15.792 -0.7229 -0.1389 -0.1872
19055TIP3    H178580   1.997   4.464  15.787 -0.7457 -0.0113 -0.4907
19055TIP3    H278581   1.884   4.431  15.882 -0.4910  1.8024  0.4885
19056TIP3   OH278582   2.119   2.502  13.221 -0.4345 -0.0730  0.0353
19056TIP3    H178583   2.129   2.424  13.275  2.1151  1.1006  1.4692
19056TIP3    H278584   2.044   2.548  13.260 -0.3608 -0.5903  0.8135
19057TIP3   OH278585   4.728   2.167  10.966  0.5572 -0.1223  0.7206
19057TIP3    H178586   4.776   2.246  10.940  1.1496 -0.9180 -0.7027
19057TIP3    H278587   4.795   2.106  10.995  0.3470 -0.8561 -0.2567
19058TIP3   OH278588   2.149   0.625  12.570 -0.1642  0.1387  0.0430
19058TIP3    H178589   2.075   0.674  12.606 -0.9668 -0.3580 -0.8740
19058TIP3    H278590   2.173   0.565  12.640 -0.8150  0.1225  0.2659
19059TIP3   OH278591   5.508   1.689   2.696  0.3635  0.7671  0.2496
19059TIP3    H178592   5.416   1.701   2.720  0.1487 -0.4807  0.1195
19059TIP3    H278593   5.540   1.778   2.680 -1.6558  1.1237 -2.7891
19060TIP3   OH278594   0.906   2.423   3.344  0.2444  0.1191 -0.4556
19060TIP3    H178595   0.918   2.330   3.363  0.6614  0.0679 -0.9380
19060TIP3    H278596   0.832   2.449   3.397  0.9594 -0.1751  0.7158
19061TIP3   OH278597   1.881   5.999  15.698  0.0623  0.9713  0.4222
19061TIP3    H178598   1.921   5.941  15.632 -1.5376 -0.6979  0.8209
19061TIP3    H278599   1.924   6.083  15.685 -0.8439  1.0325 -3.4516
19062TIP3   OH278600   3.029   3.269   4.237 -0.2001  0.3486  0.3130
19062TIP3    H178601   2.953   3.274   4.294  0.3405 -0.7894  1.1568
19062TIP3    H278602   3.104   3.282   4.295  0.4146 -1.7491  0.0565
19063TIP3   OH278603   0.912   1.058  16.552 -0.0201 -0.6441  0.2307
19063TIP3    H178604   0.994   1.056  16.502 -0.1252 -0.7151  0.0613
19063TIP3    H278605   0.940   1.068  16.643  0.1429  0.5319  0.0670
19064TIP3   OH278606   3.420   2.612  12.783  0.0904  0.1839 -0.3235
19064TIP3    H178607   3.484   2.607  12.712 -0.0365  0.2901 -0.4473
19064TIP3    H278608   3.450   2.685  12.837 -0.1156  0.4528 -0.5714
19065TIP3   OH278609   6.234   2.601  16.942  0.3076  0.0914  0.0971
19065TIP3    H178610   6.269   2.676  16.989 -1.9163  0.7946  0.7753
19065TIP3    H278611   6.170   2.563  17.002 -0.2333 -0.9836 -1.1027
19066TIP3   OH278612   1.792   2.304   0.235  0.4362 -0.2369 -0.0346
19066TIP3    H178613   1.809   2.397   0.249  0.6717 -0.2059 -0.4860
19066TIP3    H278614   1.717   2.302   0.175  0.5999 -0.3321 -0.2370
19067TIP3   OH278615   3.585   1.323   4.554  0.3781  0.6275 -0.5306
19067TIP3    H178616   3.656   1.259   4.555  0.1353  0.3308 -1.4312
19067TIP3    H278617   3.628   1.407   4.569  1.0615  0.5574 -1.9353
19068TIP3   OH278618   3.167   3.997   1.838  0.0370 -0.3706 -0.3700
19068TIP3    H178619   3.209   3.913   1.851 -1.6418 -1.5224 -1.8832
19068TIP3    H278620   3.140   3.997   1.746 -1.0251  1.3266 -0.1164
19069TIP3   OH278621   5.644   4.386  13.360  0.0435 -0.0167 -0.2901
19069TIP3    H178622   5.554   4.414  13.374  0.8638  1.8871  1.9851
19069TIP3    H278623   5.686   4.461  13.318  0.8746 -0.3159 -0.0163
19070TIP3   OH278624   4.528   4.213   5.599 -0.1637  0.3876 -0.1665
19070TIP3    H178625   4.558   4.277   5.534  0.9739 -0.7213 -0.7775
19070TIP3    H278626   4.453   4.170   5.557  1.0116 -0.8335 -1.1181
19071TIP3   OH278627   3.333   4.992  13.392  0.5063  0.3299 -0.2434
19071TIP3    H178628   3.300   5.074  13.355  0.8601  0.1541 -0.9554
19071TIP3    H278629   3.341   4.933  13.318 -0.2703 -0.5448  0.3365
19072TIP3   OH278630   0.829   5.527  16.347  0.4113  0.0244 -0.1814
19072TIP3    H178631   0.843   5.615  16.383 -0.8782  0.8309 -1.5441
19072TIP3    H278632   0.909   5.479  16.370  2.6431  2.4703 -2.0837
19073TIP3   OH278633   1.643   2.389  16.579  0.9221  0.2484 -0.1789
19073TIP3    H178634   1.677   2.306  16.546 -2.1111 -0.8270 -0.9277
19073TIP3    H278635   1.593   2.364  16.657  2.1609  1.8118  1.1929
19074TIP3   OH278636   5.366   1.831   4.818 -0.2706 -0.5745 -0.0443
19074TIP3    H178637   5.418   1.852   4.896  0.9502  1.0143 -1.2047
19074TIP3    H278638   5.311   1.908   4.805 -0.0988 -0.6061 -1.0108
19075TIP3   OH278639   2.808   5.015  12.288 -0.7961  0.3466 -0.3912
19075TIP3    H178640   2.775   4.932  12.253  0.7622 -0.7884  0.7072
19075TIP3    H278641   2.900   5.018  12.260 -0.3964  0.9140  0.9137
19076TIP3   OH278642   4.753   4.792   5.211  0.4414  0.0241 -0.1298
19076TIP3    H178643   4.782   4.729   5.278  2.2222  2.9775  2.1555
19076TIP3    H278644   4.677   4.835   5.250 -0.6490 -0.5378 -1.5751
19077TIP3   OH278645   4.199   0.054  15.802 -0.2114  0.1286  0.2506
19077TIP3    H178646   4.290   0.054  15.772 -0.1799  0.0905  0.3452
19077TIP3    H278647   4.162   0.136  15.769 -0.0667  0.2711  0.4423
19078TIP3   OH278648   2.858   1.716  15.739 -0.3434  0.7764  0.5561
19078TIP3    H178649   2.922   1.778  15.704  1.5748 -0.8248  1.0355
19078TIP3    H278650   2.905   1.672  15.810 -1.6627 -1.1270  0.3005
19079TIP3   OH278651   0.596   5.738   5.611  0.4651  0.5076 -0.4703
19079TIP3    H178652   0.664   5.796   5.577  1.0666 -0.6109 -1.2322
19079TIP3    H278653   0.608   5.656   5.563 -0.3750 -0.2461  0.5635
19080TIP3   OH278654   0.479   3.368  12.745 -0.1819  0.1810 -0.0314
19080TIP3    H178655   0.405   3.397  12.691 -0.5613 -1.5289 -0.5061
19080TIP3    H278656   0.439   3.310  12.810  0.7961 -1.4592 -0.8272
19081TIP3   OH278657   0.356   5.625   0.347 -0.1612 -0.2366  0.1821
19081TIP3    H178658   0.349   5.689   0.419  0.2660 -0.2135  0.2045
19081TIP3    H278659   0.308   5.549   0.379  0.3186 -0.3536  0.6362
19082TIP3   OH278660   0.926   6.298  13.612  0.2816  0.6113 -0.0695
19082TIP3    H178661   0.841   6.324  13.648  0.2840  0.8580 -0.2346
19082TIP3    H278662   0.905   6.252  13.531  0.3034  0.6182 -0.0791
19083TIP3   OH278663   4.984   5.875  14.500  0.2064 -0.5676  0.0090
19083TIP3    H178664   5.074   5.843  14.503 -0.1428 -1.5236  0.8223
19083TIP3    H278665   4.933   5.799  14.473 -0.6607 -0.7919  2.0716
19084TIP3   OH278666   4.798   0.235   5.295  0.0766  0.1733 -0.2401
19084TIP3    H178667   4.723   0.196   5.250  0.1784  1.2951 -1.4419
19084TIP3    H278668   4.871   0.174   5.278 -0.4163 -0.6398  0.4753
19085TIP3   OH278669   1.822   6.335  12.235  0.1497 -0.3997  0.1365
19085TIP3    H178670   1.902   6.385  12.217 -0.7103  1.1019  0.3217
19085TIP3    H278671   1.798   6.299  12.149  1.2725 -1.2854  0.1717
19086TIP3   OH278672   4.264   6.370  14.214  0.2220 -0.6117 -0.2004
19086TIP3    H178673   4.176   6.380  14.179  0.4830  0.1623 -0.6552
19086TIP3    H278674   4.296   6.288  14.176  0.4226  0.1085 -1.6138
19087TIP3   OH278675   5.425   1.949   3.306  0.0138 -0.4905  0.1860
19087TIP3    H178676   5.406   1.872   3.251  1.5413  0.8082 -2.3731
19087TIP3    H278677   5.341   1.975   3.341 -0.7306 -2.6132  0.1473
19088TIP3   OH278678   3.274   3.107  15.625 -0.6940  0.1691  0.6575
19088TIP3    H178679   3.296   3.021  15.661  1.5066  0.5784  0.4067
19088TIP3    H278680   3.341   3.166  15.660 -0.5035  1.2440 -1.3753
19089TIP3   OH278681   0.014   3.578  16.350 -0.7715 -0.5125 -0.4733
19089TIP3    H178682  -0.064   3.532  16.320 -2.5021  2.0002 -0.1678
19089TIP3    H278683  -0.017   3.668  16.368  2.1757  0.5548 -0.2484
19090TIP3   OH278684   5.589   2.425   2.145 -0.5966 -0.3243 -0.1445
19090TIP3    H178685   5.549   2.380   2.070 -0.2662 -2.0223  0.6485
19090TIP3    H278686   5.521   2.484   2.176 -0.7991  0.2806 -1.6585
19091TIP3   OH278687   1.348   3.921  14.471  0.1085 -0.2275 -0.7758
19091TIP3    H178688   1.345   4.014  14.495  1.1101 -0.0480 -1.3120
19091TIP3    H278689   1.363   3.921  14.376 -1.9499 -0.9361 -1.1777
19092TIP3   OH278690   3.494   0.947  11.435  0.2124  0.3954 -0.0088
19092TIP3    H178691   3.498   0.898  11.517 -0.9382  0.0420 -0.1517
19092TIP3    H278692   3.424   0.905  11.385 -0.9740  2.3135 -0.0527
19093TIP3   OH278693   5.608   3.493   0.096  0.0433  0.2314 -0.8131
19093TIP3    H178694   5.648   3.415   0.135 -1.7107 -0.2678  0.1044
19093TIP3    H278695   5.598   3.472   0.004 -1.1992 -1.0172 -0.4263
19094TIP3   OH278696   3.821   2.842   0.480  0.5046  0.0505  0.5158
19094TIP3    H178697   3.852   2.753   0.494  1.6571  0.0902 -1.4018
19094TIP3    H278698   3.732   2.843   0.514  0.5801 -1.7362  0.8309
19095TIP3   OH278699   3.685   3.605  17.177 -0.3528  0.0472  0.0490
19095TIP3    H178700   3.600   3.560  17.177 -0.5713  0.4367 -0.5289
19095TIP3    H278701   3.686   3.652  17.093  0.5869 -0.2391 -0.1016
19096TIP3   OH278702   6.372   1.236  13.636 -0.3632  0.5419  1.0901
19096TIP3    H178703   6.299   1.271  13.585 -0.3424 -0.9099 -0.0041
19096TIP3    H278704   6.333   1.168  13.690  0.2268 -0.7142  0.0060
19097TIP3   OH278705   2.564   5.435  16.901  0.1201 -0.7085  0.3334
19097TIP3    H178706   2.627   5.501  16.872 -0.2742 -0.7477 -0.6700
19097TIP3    H278707   2.594   5.409  16.988  0.0658  1.0707  0.9176
19098TIP3   OH278708   5.368   1.837  15.490  0.7329 -0.4198  0.8370
19098TIP3    H178709   5.433   1.890  15.537  2.8763 -1.9508 -0.2180
19098TIP3    H278710   5.374   1.750  15.530 -1.0379 -0.5060  0.9969
19099TIP3   OH278711   3.360   5.818   3.155 -0.1665 -0.2524  0.0743
19099TIP3    H178712   3.364   5.735   3.108 -3.0579  0.6961 -2.1827
19099TIP3    H278713   3.365   5.885   3.086  1.0559  1.4786  1.7189
19100TIP3   OH278714   4.996   5.706  14.011 -0.1991 -0.1776  0.1232
19100TIP3    H178715   5.004   5.616  13.979 -0.7337  0.4316 -1.8792
19100TIP3    H278716   5.076   5.749  13.980  0.1079  0.0263  1.1736
19101TIP3   OH278717   3.916   3.785   2.860 -0.5247 -0.2816 -0.9058
19101TIP3    H178718   3.844   3.724   2.842 -1.3729  0.3134  0.3286
19101TIP3    H278719   3.881   3.871   2.835  0.2937 -0.1515 -1.6507
19102TIP3   OH278720   6.658   4.778  16.635  0.4437  0.4054  0.0807
19102TIP3    H178721   6.595   4.780  16.564 -0.5939 -1.2391  0.8791
19102TIP3    H278722   6.709   4.698  16.620  1.6308  1.1342  0.0598
19103TIP3   OH278723   2.990   2.132   5.048 -0.1778 -0.4244  0.5804
19103TIP3    H178724   3.029   2.191   4.983  0.2600 -1.0845  0.2332
19103TIP3    H278725   3.041   2.148   5.128  1.4216 -1.8794 -0.0829
19104TIP3   OH278726   0.870   0.382  11.285 -0.4248  0.2970 -0.1201
19104TIP3    H178727   0.956   0.347  11.260 -0.3276  1.0623 -0.8822
19104TIP3    H278728   0.811   0.307  11.280  0.3750 -0.4885  1.4280
19105TIP3   OH278729   1.433   5.027   4.323 -0.3208 -0.2839  0.1381
19105TIP3    H178730   1.351   5.047   4.368 -0.5466 -0.0787 -0.3618
19105TIP3    H278731   1.496   5.014   4.394 -0.0990  2.3935  0.5473
19106TIP3   OH278732   1.302   5.066  15.695 -0.1107 -0.2368  0.3921
19106TIP3    H178733   1.304   4.983  15.646  0.0212  1.0491 -1.9122
19106TIP3    H278734   1.390   5.074  15.732  0.2433 -0.5819 -0.3517
19107TIP3   OH278735   1.825   1.819   1.074 -1.0522  0.1317 -0.3029
19107TIP3    H178736   1.902   1.835   1.128 -0.0981 -0.1090 -1.5377
19107TIP3    H278737   1.751   1.830   1.133 -0.0785  0.5289  0.8772
19108TIP3   OH278738   6.392   2.518  12.098  0.5071 -0.3858 -0.1191
19108TIP3    H178739   6.444   2.479  12.028  0.7486  1.7493 -1.2098
19108TIP3    H278740   6.309   2.471  12.095  0.6895 -0.6554 -1.5302
19109TIP3   OH278741   4.193   3.164   0.782 -0.2078 -0.6266 -0.0979
19109TIP3    H178742   4.266   3.134   0.835 -1.1293  0.1329  1.6811
19109TIP3    H278743   4.155   3.237   0.831 -0.7694  0.5102 -2.0976
19110TIP3   OH278744   6.469   1.044   1.885 -0.4842 -0.1754  0.1244
19110TIP3    H178745   6.460   0.973   1.820  0.4033  0.8717 -1.2157
19110TIP3    H278746   6.506   1.117   1.835 -1.9028  1.4549  1.3234
19111TIP3   OH278747   6.393   6.690  12.481 -0.0563  0.4156  0.0998
19111TIP3    H178748   6.377   6.645  12.398 -0.8073  1.4330 -0.3355
19111TIP3    H278749   6.417   6.779  12.455  2.6798  0.0148  0.8718
19112TIP3   OH278750   3.354   4.648  17.012  0.3679 -0.1955 -0.4344
19112TIP3    H178751   3.331   4.583  16.946  0.5652 -0.2455 -0.4538
19112TIP3    H278752   3.273   4.697  17.026  0.3598 -0.0955 -0.8122
19113TIP3   OH278753   4.391   6.197   1.522 -0.1979 -1.0647 -0.9918
19113TIP3    H178754   4.336   6.174   1.447 -0.3354  0.6176 -1.4507
19113TIP3    H278755   4.330   6.197   1.597 -0.6607 -0.0816 -1.3499
19114TIP3   OH278756   0.145   2.980   5.454 -0.0416 -0.3104 -0.0182
19114TIP3    H178757   0.118   2.914   5.389  0.2106  0.1229 -0.5722
19114TIP3    H278758   0.193   3.045   5.403 -1.4338  1.0077  0.2842
19115TIP3   OH278759   0.906   6.449  14.756  0.3680 -0.2393 -0.7639
19115TIP3    H178760   0.991   6.488  14.772 -0.1791  0.4249  0.6934
19115TIP3    H278761   0.902   6.372  14.813  0.1858 -0.5865 -1.2254
19116TIP3   OH278762   3.468   0.283   4.942  0.3074  0.1792 -0.4823
19116TIP3    H178763   3.381   0.313   4.913  1.0472  1.2065 -1.7865
19116TIP3    H278764   3.479   0.321   5.029 -0.6004 -0.0568 -0.2593
19117TIP3   OH278765   1.723   6.529  14.616 -0.2887 -0.2094 -0.1797
19117TIP3    H178766   1.719   6.624  14.616  3.1871  0.1085 -2.2861
19117TIP3    H278767   1.785   6.507  14.685 -1.7608 -1.0704  0.9201
19118TIP3   OH278768   0.106   2.274  17.295  0.0068 -0.3207 -0.0956
19118TIP3    H178769   0.024   2.315  17.325 -0.2407 -1.8855  1.5828
19118TIP3    H278770   0.105   2.285  17.200 -1.5767  0.7197 -0.0083
19119TIP3   OH278771   2.270   0.095   4.637  0.1992  0.4357 -0.3702
19119TIP3    H178772   2.274   0.089   4.732 -0.9651 -2.4671 -0.4291
19119TIP3    H278773   2.177   0.096   4.616  0.4390  0.5228 -1.5022
19120TIP3   OH278774   3.204   5.382   2.107 -0.0774 -0.5818  0.0526
19120TIP3    H178775   3.291   5.381   2.068  1.0266  0.4834  2.3000
19120TIP3    H278776   3.170   5.470   2.087 -0.0162 -0.4757  0.4052
19121TIP3   OH278777   3.224   6.574   0.900 -0.2390 -0.1924  0.1566
19121TIP3    H178778   3.154   6.526   0.855  0.5994 -2.1281  0.8072
19121TIP3    H278779   3.299   6.568   0.841  0.3274 -1.1290  0.9294
19122TIP3   OH278780   1.177   3.470  15.560  0.4432 -0.1037  0.0058
19122TIP3    H178781   1.198   3.394  15.506  0.6472  0.9817 -1.4789
19122TIP3    H278782   1.115   3.520  15.508 -0.1214  0.5029  1.2069
19123TIP3   OH278783   3.785   5.228  11.550  0.0085  0.0472  0.0489
19123TIP3    H178784   3.830   5.225  11.466 -0.8622  0.8284 -0.4648
19123TIP3    H278785   3.754   5.318  11.557  0.1004 -0.0025  1.2237
19124TIP3   OH278786   3.549   0.671   1.801 -0.4776 -0.3981 -0.3002
19124TIP3    H178787   3.473   0.713   1.760 -2.5328 -2.1555  1.5149
19124TIP3    H278788   3.564   0.722   1.880 -0.9761 -1.1747  0.2998
19125TIP3   OH278789   6.516   2.336   3.447  0.1464 -0.3737 -0.1924
19125TIP3    H178790   6.485   2.254   3.484 -2.1403  1.0318  1.2605
19125TIP3    H278791   6.481   2.337   3.358 -1.0566 -0.3630  0.2695
19126TIP3   OH278792   2.495   0.524   0.694 -0.0386 -0.2828  0.2191
19126TIP3    H178793   2.457   0.472   0.764  1.7075 -0.7393  0.8966
19126TIP3    H278794   2.539   0.460   0.638 -0.4137  0.1958 -0.6446
19127TIP3   OH278795   3.544   1.144   3.171  0.3317 -0.3601 -0.1647
19127TIP3    H178796   3.506   1.056   3.180  1.7109 -0.7629  2.6581
19127TIP3    H278797   3.623   1.142   3.225 -0.6466  3.1828  1.7141
19128TIP3   OH278798   6.171   3.877   0.807 -0.4784 -0.4273 -0.0195
19128TIP3    H178799   6.162   3.890   0.713  0.4201 -0.0815 -0.0729
19128TIP3    H278800   6.107   3.936   0.846 -1.3200 -1.0641 -0.4245
19129TIP3   OH278801   6.594   4.056  16.272  0.4159 -0.4311  0.2835
19129TIP3    H178802   6.569   3.998  16.344  0.1200  0.8965  1.2931
19129TIP3    H278803   6.606   4.141  16.313  0.4300  0.3280 -1.2194
19130TIP3   OH278804   2.043   0.299  15.322  0.0335 -0.4816 -0.0920
19130TIP3    H178805   2.002   0.213  15.325  0.2897 -0.5777  0.9915
19130TIP3    H278806   1.982   0.353  15.270 -0.4002 -1.1568 -0.2941
19131TIP3   OH278807   1.529   1.219   0.365 -0.0463  0.0061 -0.0703
19131TIP3    H178808   1.466   1.150   0.348  1.8497 -1.7737 -0.2747
19131TIP3    H278809   1.489   1.298   0.329 -2.0826 -1.0442 -0.2503
19132TIP3   OH278810   0.260   1.864  14.275 -0.0452 -0.0654 -0.0654
19132TIP3    H178811   0.212   1.943  14.303 -1.7925 -0.4630 -1.7400
19132TIP3    H278812   0.340   1.864  14.329 -0.9954  1.6960  1.4576
19133TIP3   OH278813   3.215   1.063   2.137 -0.3024 -0.3442 -0.3264
19133TIP3    H178814   3.180   1.104   2.216  0.2005  0.1176 -0.3344
19133TIP3    H278815   3.147   1.003   2.108 -0.7165 -0.1046  0.1487
19134TIP3   OH278816   5.406   6.637  10.928 -0.0837  0.1363  1.0330
19134TIP3    H178817   5.476   6.667  10.986  2.0620 -1.1139 -0.7678
19134TIP3    H278818   5.412   6.541  10.931  0.3843  0.0183 -1.4694
19135TIP3   OH278819   5.240   4.982   5.219 -0.2171  0.2011  0.8071
19135TIP3    H178820   5.202   4.995   5.132  1.1745  1.6679  0.3497
19135TIP3    H278821   5.172   4.937   5.269 -2.8551  3.2453  0.2839
19136TIP3   OH278822   4.966   1.309  17.309 -0.1425  0.3282 -0.2792
19136TIP3    H178823   4.998   1.270  17.390 -1.5536 -0.4094 -0.0529
19136TIP3    H278824   5.041   1.357  17.274  0.5615  0.4424  1.3224
19137TIP3   OH278825   3.239   1.596   5.064 -0.2295  0.3984 -0.4748
19137TIP3    H178826   3.324   1.634   5.041 -0.2926 -0.1719 -1.7056
19137TIP3    H278827   3.207   1.652   5.134  0.4747  1.5449 -1.0286
19138TIP3   OH278828   1.556   5.174   5.157 -0.0612  0.1444  0.1698
19138TIP3    H178829   1.477   5.171   5.102  0.9096 -0.2146 -1.2567
19138TIP3    H278830   1.526   5.212   5.240 -1.5016  1.0272 -0.7151
19139TIP3   OH278831   0.278   2.548  13.223 -0.1106 -0.1698  0.2551
19139TIP3    H178832   0.358   2.595  13.245  0.3934 -1.0124  0.2513
19139TIP3    H278833   0.307   2.477  13.166 -0.3894 -2.3311  2.6293
19140TIP3   OH278834   0.537   3.869  14.045 -0.0304  0.3445 -0.0606
19140TIP3    H178835   0.468   3.887  14.108  2.4081 -0.7092  3.1748
19140TIP3    H278836   0.575   3.955  14.026  0.3132  0.5270  1.3529
19141TIP3   OH278837   2.367   6.015  11.306 -0.0181 -0.3221 -0.7513
19141TIP3    H178838   2.373   6.102  11.343 -0.1900 -0.8959  0.6666
19141TIP3    H278839   2.335   6.029  11.217  1.2780  1.1473 -1.0269
19142TIP3   OH278840   3.417   3.613   5.797 -0.1892  0.3147 -0.2865
19142TIP3    H178841   3.403   3.699   5.838 -0.0843 -0.1363  0.7118
19142TIP3    H278842   3.449   3.557   5.868  0.6392 -0.3123 -1.1423
19143TIP3   OH278843   1.209   5.223  16.518  0.5914 -0.2892 -0.2358
19143TIP3    H178844   1.254   5.244  16.599 -0.5574  1.2552  0.0428
19143TIP3    H278845   1.252   5.276  16.451  0.2009  0.0327 -0.2387
19144TIP3   OH278846   0.349   1.834   3.156  0.4708 -0.3958 -0.6565
19144TIP3    H178847   0.415   1.859   3.220 -0.8924  1.2504  0.1636
19144TIP3    H278848   0.315   1.751   3.189 -1.6242  1.3522  2.0018
19145TIP3   OH278849   5.420   0.465   2.758 -0.2284  0.1913 -0.0989
19145TIP3    H178850   5.424   0.513   2.675 -1.1848  1.2030  0.4143
19145TIP3    H278851   5.356   0.513   2.810  1.5454  0.5490  1.8547
19146TIP3   OH278852   3.815   5.754  14.816 -0.4297 -0.2459  0.0853
19146TIP3    H178853   3.808   5.728  14.724 -0.8322  0.8227 -0.2045
19146TIP3    H278854   3.910   5.755  14.833 -0.3502 -3.9599  0.7919
19147TIP3   OH278855   6.100   2.052   0.890  0.0344 -0.1703 -0.0803
19147TIP3    H178856   6.122   2.017   0.976  1.8595 -2.0775 -1.2527
19147TIP3    H278857   6.077   2.144   0.907 -0.4417 -0.6858  2.4980
19148TIP3   OH278858   0.187   0.357  13.089  0.3376  0.0829  0.0596
19148TIP3    H178859   0.260   0.416  13.073 -0.8211  1.8273  0.9622
19148TIP3    H278860   0.179   0.353  13.185  0.7509 -2.0587  0.0711
19149TIP3   OH278861   1.922   4.036   4.227 -0.2296  0.2792 -0.3696
19149TIP3    H178862   1.939   4.084   4.308  0.3990  2.1863 -1.5392
19149TIP3    H278863   1.999   3.982   4.214 -0.8857 -1.0067  0.9128
19150TIP3   OH278864   6.402   4.046  16.059 -0.5162  0.1269 -0.1217
19150TIP3    H178865   6.475   4.035  16.120 -1.1395  2.0327  1.0353
19150TIP3    H278866   6.406   4.137  16.033 -2.5046  0.2819  0.0114
19151TIP3   OH278867   3.221   6.382  13.522 -0.1429 -0.0319  0.2710
19151TIP3    H178868   3.277   6.455  13.548  0.7728 -1.4532  2.6177
19151TIP3    H278869   3.270   6.337  13.454  0.5634 -0.0264  0.7715
19152TIP3   OH278870   2.616   6.240  12.702 -0.6802  0.1968  0.0939
19152TIP3    H178871   2.592   6.164  12.649  0.8779 -0.5121  0.3484
19152TIP3    H278872   2.548   6.246  12.769 -1.1436 -0.5925 -0.3033
19153TIP3   OH278873   5.185   6.656  15.497 -0.0125 -0.2691 -0.0812
19153TIP3    H178874   5.247   6.688  15.563  0.1893  0.0642 -0.4252
19153TIP3    H278875   5.159   6.569  15.529  0.5081 -0.3455  0.1545
19154TIP3   OH278876   4.734   3.061  15.164 -0.0843  0.1333  0.3963
19154TIP3    H178877   4.692   3.001  15.226 -0.0309 -1.2856 -0.8847
19154TIP3    H278878   4.665   3.085  15.103 -0.0775  1.3427  0.8370
19155TIP3   OH278879   4.411   6.233  12.229  0.3140 -0.0762 -0.6507
19155TIP3    H178880   4.364   6.192  12.301 -1.7176  1.4992 -0.9917
19155TIP3    H278881   4.499   6.249  12.264 -0.0775 -1.0085  0.8326
19156TIP3   OH278882   5.640   2.131  16.397  0.4905  0.2095  0.3272
19156TIP3    H178883   5.583   2.058  16.375 -0.2571  0.5377  1.1042
19156TIP3    H278884   5.590   2.181  16.462  1.6432  0.5333  0.9847
19157TIP3   OH278885   2.945   2.626   4.967 -0.2645 -0.2649 -0.3585
19157TIP3    H178886   2.981   2.694   5.024 -0.8454 -0.4311  0.2113
19157TIP3    H278887   2.955   2.662   4.878 -1.0178  0.7884 -0.0362
19158TIP3   OH278888   2.544   5.862  11.495  0.0300  0.3364 -0.2044
19158TIP3    H178889   2.460   5.907  11.498  0.7930  1.8284 -0.3784
19158TIP3    H278890   2.561   5.847  11.402  0.3162  0.7682 -0.2265
19159TIP3   OH278891   2.742   0.097   1.409 -0.1539 -0.1141  1.0693
19159TIP3    H178892   2.762   0.139   1.492 -0.1085  2.3411 -0.0820
19159TIP3    H278893   2.693   0.164   1.360  0.3648 -1.2263 -1.1020
19160TIP3   OH278894   5.103   3.992   1.543  0.0813 -0.6415  0.2364
19160TIP3    H178895   5.008   3.992   1.535  0.2136  0.4344 -2.4391
19160TIP3    H278896   5.121   3.933   1.615 -2.5824 -1.4460  0.3471
19161TIP3   OH278897   3.709   5.999  15.794 -0.3624  0.2847 -0.5427
19161TIP3    H178898   3.711   5.944  15.716 -0.8419  0.2103 -0.5037
19161TIP3    H278899   3.656   5.950  15.857  1.2349 -0.3477  0.3504
19162TIP3   OH278900   6.427   4.118   2.936 -0.4505  0.4553  0.2884
19162TIP3    H178901   6.520   4.118   2.913 -0.4057 -1.2072  0.2865
19162TIP3    H278902   6.405   4.210   2.951  1.4279  0.7978  1.2477
19163TIP3   OH278903   1.015   6.414  11.549 -0.1975 -0.4494  0.0007
19163TIP3    H178904   1.097   6.456  11.523 -0.1008 -0.0956  0.8122
19163TIP3    H278905   0.962   6.413  11.470  1.5308 -3.0578 -1.2520
19164TIP3   OH278906   3.256   0.224  12.623 -0.3480 -0.3602  0.1192
19164TIP3    H178907   3.241   0.242  12.715  0.6971  0.8229  0.0864
19164TIP3    H278908   3.221   0.300  12.577 -2.0189 -1.4922 -0.6022
19165TIP3   OH278909   3.697   5.774   4.323  1.4231 -0.2208 -0.5948
19165TIP3    H178910   3.702   5.748   4.415 -1.7105 -0.3368 -0.3373
19165TIP3    H278911   3.757   5.715   4.278  0.7509 -2.2824  1.0320
19166TIP3   OH278912   2.972   2.964   4.940 -0.3005  0.0508 -0.4359
19166TIP3    H178913   3.049   2.956   4.998 -2.0667 -0.4737  2.0027
19166TIP3    H278914   2.977   2.886   4.885  0.1427 -0.8095  0.7518
19167TIP3   OH278915   3.383   0.001   5.072 -0.0081  0.4513  0.0175
19167TIP3    H178916   3.298  -0.014   5.031  0.2998 -0.5860 -0.2819
19167TIP3    H278917   3.407   0.089   5.045 -1.5656  1.2826  1.1842
19168TIP3   OH278918   3.484   1.402  13.806 -0.3456  0.0253 -0.1301
19168TIP3    H178919   3.474   1.419  13.712  0.4660  2.5821  0.1682
19168TIP3    H278920   3.460   1.485  13.848  3.4570  0.4102  1.6490
19169TIP3   OH278921   5.507   4.393  11.002  0.0311  0.3142 -0.2162
19169TIP3    H178922   5.439   4.342  10.957 -1.5246  1.6702  0.4707
19169TIP3    H278923   5.504   4.479  10.960  0.8646  0.5944  0.2866
19170TIP3   OH278924   3.527   4.073  15.715  0.2341  0.2962 -0.6334
19170TIP3    H178925   3.590   4.097  15.647  1.9993 -0.0479  0.8172
19170TIP3    H278926   3.443   4.107  15.683  1.8219  5.0339 -0.4829
19171TIP3   OH278927   1.522   4.942  12.948 -0.2757 -0.1341 -0.2350
19171TIP3    H178928   1.485   4.855  12.965  0.3578 -0.5044 -0.7028
19171TIP3    H278929   1.571   4.962  13.028  0.6285 -0.7782 -0.6054
19172TIP3   OH278930   6.344   3.956  17.172  0.7923 -0.5923 -0.2170
19172TIP3    H178931   6.341   4.020  17.102  2.5846  0.4265  0.5788
19172TIP3    H278932   6.415   3.897  17.148  0.3059 -1.2514 -0.0776
19173TIP3   OH278933   5.684   2.823   2.244  0.0131 -0.0276  0.0202
19173TIP3    H178934   5.731   2.905   2.260 -0.2949  0.2455 -0.4601
19173TIP3    H278935   5.667   2.823   2.150  1.0641 -1.2086 -0.1978
19174TIP3   OH278936   4.998   2.380  12.357 -0.3394  0.3244  0.2629
19174TIP3    H178937   4.923   2.414  12.404 -1.3258  0.7485 -1.5229
19174TIP3    H278938   4.970   2.377  12.265  0.9029 -2.0131 -0.1397
19175TIP3   OH278939   3.776   1.025   0.963 -0.1529  0.4060  0.0762
19175TIP3    H178940   3.850   1.075   0.997 -0.5031  1.8923 -1.2514
19175TIP3    H278941   3.791   0.935   0.994  1.7713  0.8316  0.4737
19176TIP3   OH278942   2.359   5.809  10.976  0.3080 -0.1741 -0.0735
19176TIP3    H178943   2.265   5.791  10.975  0.1424  0.2168  2.2418
19176TIP3    H278944   2.366   5.901  11.004  1.3875 -0.6221  1.2254
19177TIP3   OH278945   3.798   0.162  15.404  0.4559  0.2320  0.1119
19177TIP3    H178946   3.772   0.224  15.336  1.8963  2.2142  1.2288
19177TIP3    H278947   3.766   0.077  15.374 -0.3244  1.2759 -2.2263
19178TIP3   OH278948   0.574   4.304  14.181 -0.1020 -0.2706  0.3550
19178TIP3    H178949   0.627   4.340  14.110 -0.6551 -1.8499 -0.9389
19178TIP3    H278950   0.489   4.286  14.141 -1.3969  1.3941  2.1622
19179TIP3   OH278951   6.342   2.226  14.402  0.4687  0.2231  0.6459
19179TIP3    H178952   6.315   2.134  14.402  0.1306  0.2856  2.3684
19179TIP3    H278953   6.278   2.269  14.346  0.3036 -0.5057  0.2598
19180TIP3   OH278954   0.696   6.428  13.974  0.0830  0.3480  0.0994
19180TIP3    H178955   0.788   6.449  13.959  0.8075 -1.5557  1.4809
19180TIP3    H278956   0.670   6.379  13.896  0.1321  1.1574 -0.4346
19181TIP3   OH278957   1.805   3.428   4.901  0.2185  0.1783 -0.1149
19181TIP3    H178958   1.851   3.507   4.931 -1.1971  0.9041  0.2482
19181TIP3    H278959   1.713   3.446   4.921  0.0718 -2.5494  2.2212
19182TIP3   OH278960   1.862   1.612   5.597 -0.4276 -0.4022 -0.2417
19182TIP3    H178961   1.873   1.615   5.692 -0.9869  1.5125 -0.1912
19182TIP3    H278962   1.905   1.531   5.570  1.9825  0.2284  1.3631
19183TIP3   OH278963   3.012   4.634  15.435 -0.0900 -0.4777  0.2666
19183TIP3    H178964   3.053   4.565  15.383  2.0312  0.2871  0.8027
19183TIP3    H278965   2.989   4.591  15.517  1.0092 -0.6208  0.5137
19184TIP3   OH278966   0.718   5.808   0.637  0.2348  0.2642 -0.1473
19184TIP3    H178967   0.803   5.809   0.680  0.4030 -1.1594 -0.3808
19184TIP3    H278968   0.691   5.716   0.641 -1.1397  0.6408 -0.3666
19185TIP3   OH278969   3.493   3.849  17.347 -0.3548 -0.5077  0.2083
19185TIP3    H178970   3.468   3.936  17.376  1.1753 -0.6244  2.0219
19185TIP3    H278971   3.525   3.862  17.257 -0.0292  0.8053  0.4991
19186TIP3   OH278972   3.274   2.619  13.279  0.4516  0.3421  0.4243
19186TIP3    H178973   3.244   2.601  13.190  0.2376  0.1346  0.5387
19186TIP3    H278974   3.252   2.711  13.293 -1.0113 -0.0547  0.8548
19187TIP3   OH278975   5.987   6.172   1.329  0.3875 -0.5173 -1.0088
19187TIP3    H178976   6.038   6.229   1.272  1.5246 -0.8299 -0.3403
19187TIP3    H278977   5.995   6.085   1.291  0.6329 -0.6227 -0.7216
19188TIP3   OH278978   1.012   5.316   1.411 -0.6117 -0.3534 -0.2676
19188TIP3    H178979   1.015   5.260   1.334 -0.1146 -0.1415 -0.4067
19188TIP3    H278980   0.923   5.306   1.445 -0.1806 -2.2443  0.4766
19189TIP3   OH278981   3.277   4.411  16.854 -0.2931 -0.4804  0.6777
19189TIP3    H178982   3.215   4.461  16.801  0.6510  0.1926  0.1747
19189TIP3    H278983   3.317   4.350  16.793  1.8145  1.2397  0.1972
19190TIP3   OH278984   2.651   4.275  17.216 -1.0306  0.1225 -0.0143
19190TIP3    H178985   2.640   4.180  17.218 -1.0097  0.1101 -0.3599
19190TIP3    H278986   2.676   4.299  17.305 -0.9313 -0.2096  0.0465
19191TIP3   OH278987   6.146   5.096  13.253 -0.2238 -0.3125  0.0167
19191TIP3    H178988   6.058   5.096  13.213 -0.0619  0.0485 -0.3500
19191TIP3    H278989   6.199   5.148  13.193  0.2637 -0.5976  0.1940
19192TIP3   OH278990   1.414   6.681  14.053 -0.3330  0.1121 -0.1671
19192TIP3    H178991   1.339   6.714  14.104  1.0789  0.9202  1.4824
19192TIP3    H278992   1.379   6.669  13.965 -1.8144  2.9045 -0.0774
19193TIP3   OH278993   0.630   5.947   6.777  0.2004  0.0589  0.2858
19193TIP3    H178994   0.582   5.901   6.845  0.6678 -0.0053  0.5743
19193TIP3    H278995   0.594   6.036   6.777  0.1618  0.0426  0.5756
19194TIP3   OH278996   4.626   2.420  11.489 -0.4022 -0.5038 -0.2472
19194TIP3    H178997   4.692   2.484  11.460  0.3675 -1.1599  0.0060
19194TIP3    H278998   4.574   2.467  11.553  0.1925 -0.1368 -0.0185
19195TIP3   OH278999   1.700   4.341  11.955 -0.3349 -0.0883 -0.0316
19195TIP3    H179000   1.655   4.338  11.871 -1.0787 -0.2800  0.3679
19195TIP3    H279001   1.710   4.434  11.974 -0.2680 -0.0449 -0.2737
19196TIP3   OH279002   0.133   6.054   4.596 -0.1689 -0.3597  0.5411
19196TIP3    H179003   0.116   5.975   4.647  2.7704 -1.0504  0.6543
19196TIP3    H279004   0.180   6.022   4.518 -0.4330  1.1198 -0.2655
19197TIP3   OH279005   2.501   3.498   5.251 -0.0149  0.2507 -0.5311
19197TIP3    H179006   2.441   3.516   5.323  1.6652  1.3548  0.6750
19197TIP3    H279007   2.553   3.423   5.281  2.3855  2.2316  0.6255
19198TIP3   OH279008   6.065   6.486   5.128 -0.2627  0.7042 -0.2369
19198TIP3    H179009   6.133   6.439   5.176  0.1597  0.6968 -0.8368
19198TIP3    H279010   6.105   6.507   5.044 -1.7155 -1.3026 -1.5266
19199TIP3   OH279011   6.635   5.741   3.556  0.3578 -0.6320  0.2614
19199TIP3    H179012   6.617   5.825   3.599  1.7382  1.0441 -2.1267
19199TIP3    H279013   6.596   5.751   3.468  1.0377 -2.2761 -0.2558
19200TIP3   OH279014   5.712   0.197  16.396  0.2710 -0.3539 -0.0821
19200TIP3    H179015   5.740   0.178  16.486  2.5669  0.0853 -0.6452
19200TIP3    H279016   5.686   0.111  16.361  0.7235 -0.7575  0.5440
19201TIP3   OH279017   4.758   2.968   3.474  0.4754  0.8595 -0.4669
19201TIP3    H179018   4.663   2.967   3.484  0.5275  0.6752  0.0715
19201TIP3    H279019   4.788   3.030   3.541  0.6879  1.4016 -1.0611
19202TIP3   OH279020   4.571   3.807   5.362 -0.2296  0.1475 -0.6735
19202TIP3    H179021   4.482   3.792   5.333  0.5492 -0.2244 -3.1463
19202TIP3    H279022   4.620   3.730   5.333  0.6671 -0.3678  1.9539
19203TIP3   OH279023   0.128   2.342   2.277  0.0300 -0.0725 -0.4790
19203TIP3    H179024   0.095   2.314   2.363 -0.3243  0.3710 -0.4694
19203TIP3    H279025   0.159   2.261   2.236  2.7685  0.0505  1.1439
19204TIP3   OH279026   5.221   2.400  12.747 -0.8294 -0.0929  0.1576
19204TIP3    H179027   5.193   2.366  12.832 -2.8457  0.0884 -0.3868
19204TIP3    H279028   5.201   2.330  12.685 -0.9169  0.4096 -0.3876
19205TIP3   OH279029   4.651   6.487  17.083  0.7995  0.2872 -0.5044
19205TIP3    H179030   4.637   6.565  17.030 -0.1978  0.3059 -0.2290
19205TIP3    H279031   4.569   6.438  17.076  0.7259  0.1896  0.8450
19206TIP3   OH279032   2.687   4.231   0.511 -0.6417 -0.7819 -0.1184
19206TIP3    H179033   2.674   4.204   0.602 -0.6338  0.2061  0.1955
19206TIP3    H279034   2.672   4.326   0.512  1.1181 -0.4569 -0.7963
19207TIP3   OH279035   4.794   6.607  16.198 -0.2101 -0.0107 -0.7347
19207TIP3    H179036   4.855   6.626  16.269  0.2628  0.2413 -1.2014
19207TIP3    H279037   4.834   6.535  16.150 -0.7590 -0.4933 -0.4716
19208TIP3   OH279038   0.417   4.359  13.030 -0.4590 -0.5564 -0.5042
19208TIP3    H179039   0.407   4.396  13.118 -1.9308  0.6965 -1.1610
19208TIP3    H279040   0.428   4.265  13.045 -0.9863 -0.4027  1.0014
19209TIP3   OH279041   5.838   3.184  11.183  0.6524  0.5772 -0.5658
19209TIP3    H179042   5.890   3.255  11.221  0.6740  0.0510  0.4306
19209TIP3    H279043   5.786   3.151  11.256  1.3114 -1.0244 -0.7728
19210TIP3   OH279044   4.552   4.691   4.245  0.1978 -0.5199 -0.4222
19210TIP3    H179045   4.607   4.719   4.318  0.1593  2.1369 -1.3165
19210TIP3    H279046   4.611   4.641   4.189  0.9508 -0.1700  0.0434
19211TIP3   OH279047   1.493   5.120   1.995  0.5603 -0.5328 -0.7369
19211TIP3    H179048   1.482   5.152   1.905 -0.3118 -0.1102 -0.4949
19211TIP3    H279049   1.554   5.047   1.988  0.6139 -0.4073 -1.6548
19212TIP3   OH279050   1.715   5.617   0.044 -0.0902  0.6288  0.1735
19212TIP3    H179051   1.782   5.664  -0.006  1.5296 -0.5945  1.0758
19212TIP3    H279052   1.692   5.676   0.115  0.7100  0.7417  0.3524
19213TIP3   OH279053   1.724   6.179   3.707  0.2381  0.1917  0.4814
19213TIP3    H179054   1.734   6.200   3.800 -1.3072 -1.5776  1.1375
19213TIP3    H279055   1.813   6.168   3.675  0.8097  1.0781  1.6933
19214TIP3   OH279056   1.814   3.634  15.216  0.2737  0.0231 -0.2344
19214TIP3    H179057   1.808   3.729  15.205  1.4647  0.1575  0.1695
19214TIP3    H279058   1.768   3.598  15.140  0.5057  0.9265 -0.8127
19215TIP3   OH279059   1.164   4.241   0.702  0.5379  0.4265  0.1526
19215TIP3    H179060   1.134   4.325   0.738 -0.6291  0.6293 -1.1897
19215TIP3    H279061   1.175   4.258   0.608 -0.4462 -1.0835 -0.2809
19216TIP3   OH279062   6.285   5.281  11.511 -0.2334 -0.4312  0.3678
19216TIP3    H179063   6.350   5.348  11.532 -0.8760 -0.0075  1.0147
19216TIP3    H279064   6.330   5.224  11.448  0.9864 -0.5124  1.2797
19217TIP3   OH279065   0.426   5.784  13.929 -0.2143 -0.2037  0.1934
19217TIP3    H179066   0.503   5.841  13.930 -0.8605  0.9071 -2.7639
19217TIP3    H279067   0.455   5.705  13.883 -0.8650  0.4226 -1.3838
19218TIP3   OH279068   0.213   1.951   6.271 -0.0947  0.6865 -0.5048
19218TIP3    H179069   0.239   1.917   6.357  1.2613  0.0761 -1.1211
19218TIP3    H279070   0.119   1.967   6.279  0.2153  1.8773  1.4833
19219TIP3   OH279071   3.145   5.262  16.193 -0.0094  0.3107 -0.0374
19219TIP3    H179072   3.051   5.277  16.203  0.0331 -0.1225  1.0915
19219TIP3    H279073   3.183   5.350  16.185 -0.5798  0.4629 -1.3822
19220TIP3   OH279074   6.383   4.738   5.735  0.3625 -0.0865  0.1810
19220TIP3    H179075   6.312   4.703   5.788  0.4307 -0.0191  0.3205
19220TIP3    H279076   6.394   4.675   5.664  0.4649 -0.3324  0.4111
19221TIP3   OH279077   2.192   0.790  12.089  0.6649 -0.4475 -0.0570
19221TIP3    H179078   2.134   0.715  12.104 -0.1877 -0.0277 -1.1117
19221TIP3    H279079   2.265   0.754  12.039  0.6395 -0.7142  0.0950
19222TIP3   OH279080   1.815   5.190   2.919 -0.8470 -0.0732  0.1681
19222TIP3    H179081   1.825   5.199   3.014  2.1865 -1.4808  0.0694
19222TIP3    H279082   1.821   5.096   2.902 -0.9711  0.1762 -1.4605
19223TIP3   OH279083   4.774   1.074  11.624  0.5877  0.0865 -0.5486
19223TIP3    H179084   4.855   1.121  11.647  0.4848 -0.0898  0.1705
19223TIP3    H279085   4.788   1.047  11.533  1.0170  0.7335 -0.6853
19224TIP3   OH279086   5.302   0.703  16.920 -0.2057 -0.3000  0.1169
19224TIP3    H179087   5.327   0.650  16.996  0.4188  0.5126  0.4891
19224TIP3    H279088   5.228   0.756  16.951  0.4632  0.4972  0.3538
19225TIP3   OH279089   5.317   1.175  15.466  0.3140  0.1757  0.6408
19225TIP3    H179090   5.265   1.142  15.540  0.7353 -2.3847 -0.1049
19225TIP3    H279091   5.260   1.239  15.424 -1.7601 -1.5329  0.6466
19226TIP3   OH279092   6.423   0.722   0.010  0.0424  0.0645  0.9668
19226TIP3    H179093   6.328   0.732   0.015 -0.3828 -2.1478 -0.9980
19226TIP3    H279094   6.447   0.682   0.094 -0.8158  0.2401  1.3090
19227TIP3   OH279095   4.257   3.325  11.873  0.2857  0.6669  0.2945
19227TIP3    H179096   4.346   3.351  11.851 -0.0309  1.6748  0.1323
19227TIP3    H279097   4.211   3.408  11.887 -0.4332  0.1357  1.1497
19228TIP3   OH279098   5.810   0.106  14.401  0.4276 -0.1293 -0.4697
19228TIP3    H179099   5.850   0.024  14.372  1.5714 -0.0538  0.8092
19228TIP3    H279100   5.872   0.174  14.374 -0.5775  0.3712 -1.6410
19229TIP3   OH279101   4.983   5.287   5.048 -0.1220  0.5015 -0.2852
19229TIP3    H179102   4.915   5.247   5.101  0.2168  0.6022  0.2381
19229TIP3    H279103   5.008   5.220   4.985  1.3533 -0.6191  1.4149
19230TIP3   OH279104   4.092   3.346   5.199  0.3039 -0.5130  1.2313
19230TIP3    H179105   4.077   3.305   5.114  0.0339 -0.0242  1.0409
19230TIP3    H279106   4.168   3.300   5.235  1.2223  0.1269  0.1746
19231TIP3   OH279107   0.215   1.886  10.404 -0.0044  0.3648  0.5940
19231TIP3    H179108   0.205   1.978  10.428 -1.2790  0.6678 -0.9203
19231TIP3    H279109   0.221   1.839  10.487  1.2678  1.8579  1.3835
19232TIP3   OH279110   3.142   1.852   0.519 -0.0856 -0.5916 -0.2154
19232TIP3    H179111   3.099   1.922   0.469  0.1876  0.7212  1.3044
19232TIP3    H279112   3.184   1.897   0.592 -1.1435 -2.4901  1.6775
19233TIP3   OH279113   2.789   0.706   0.132  0.1359 -0.1817 -0.5267
19233TIP3    H179114   2.747   0.716   0.047  0.2442  0.6724 -0.4908
19233TIP3    H279115   2.883   0.710   0.113  0.1576  0.3405 -0.3419
19234TIP3   OH279116   0.822   5.756   2.626 -0.2776  0.1921  0.0642
19234TIP3    H179117   0.889   5.808   2.670  1.2998 -1.6935  0.0402
19234TIP3    H279118   0.827   5.669   2.667 -0.2978 -1.0019 -2.2563
19235TIP3   OH279119   4.592   3.466   5.364 -0.2025  0.1794 -0.1602
19235TIP3    H179120   4.510   3.426   5.392  0.2691  0.1034  1.1710
19235TIP3    H279121   4.650   3.391   5.346 -0.2500  0.2421 -0.5971
19236TIP3   OH279122   4.117   1.815  13.209 -1.0155 -0.0179  0.3030
19236TIP3    H179123   4.152   1.896  13.246 -2.8613  1.3618 -0.7861
19236TIP3    H279124   4.141   1.819  13.116  1.7751 -2.4382  0.7518
19237TIP3   OH279125   4.484   0.950   2.834  1.0141  0.2616 -0.0881
19237TIP3    H179126   4.558   0.905   2.793 -0.0264 -1.2685 -0.3872
19237TIP3    H279127   4.496   1.042   2.811  2.1054 -0.1416 -1.2555
19238TIP3   OH279128   4.517   4.578   5.353 -0.3603  0.0588  0.3910
19238TIP3    H179129   4.502   4.646   5.288  1.8770  0.1446 -0.0900
19238TIP3    H279130   4.573   4.619   5.419  1.1741 -1.3302 -0.0013
19239TIP3   OH279131   3.328   2.177  15.449 -0.2497 -0.3415  0.1072
19239TIP3    H179132   3.288   2.212  15.528 -1.4202  0.9533 -1.0089
19239TIP3    H279133   3.293   2.088  15.441  1.1847 -1.1292  1.8933
19240TIP3   OH279134   5.802   5.819  15.475 -0.1769 -0.4029 -0.0826
19240TIP3    H179135   5.865   5.810  15.547  1.8342 -0.5336 -1.7734
19240TIP3    H279136   5.795   5.913  15.461  1.5036 -0.4272 -1.3798
19241TIP3   OH279137   6.395   3.184  16.482 -0.0669  0.2337  0.0609
19241TIP3    H179138   6.473   3.173  16.428  0.8985  2.1750  0.9497
19241TIP3    H279139   6.410   3.129  16.558 -0.3231 -0.6306 -0.4989
19242TIP3   OH279140   6.208   5.438   2.561  0.1678 -0.1812  0.3987
19242TIP3    H179141   6.126   5.390   2.550  0.0388  0.5777 -4.0123
19242TIP3    H279142   6.269   5.394   2.502  1.1130  2.6650 -0.9528
19243TIP3   OH279143   5.698   2.748   4.662  0.2452  0.6665  0.1832
19243TIP3    H179144   5.786   2.767   4.629 -0.3279  2.4176 -0.4176
19243TIP3    H279145   5.655   2.833   4.668 -2.2666 -0.3218 -1.9467
19244TIP3   OH279146   2.508   3.945  14.550 -0.6104 -0.0186  0.2190
19244TIP3    H179147   2.455   3.941  14.470  0.3460  0.4350 -0.4527
19244TIP3    H279148   2.461   3.889  14.612 -1.3753 -0.3785 -0.6550
19245TIP3   OH279149   6.687   4.959   5.136 -0.1436 -0.0897 -0.2407
19245TIP3    H179150   6.712   4.933   5.225 -0.3124 -0.9814 -0.4502
19245TIP3    H279151   6.600   4.922   5.123  0.5739 -1.4453 -1.3842
19246TIP3   OH279152   6.657   0.515   6.664 -0.4596  0.3235 -0.2205
19246TIP3    H179153   6.576   0.488   6.708  0.2432 -0.6785  0.5172
19246TIP3    H279154   6.682   0.440   6.611  0.9611 -0.1245  1.0109
19247TIP3   OH279155   4.606   3.754   0.151 -0.0900  0.0481 -0.5330
19247TIP3    H179156   4.552   3.780   0.226  0.4701  1.6515 -0.6370
19247TIP3    H279157   4.560   3.789   0.075  0.1702 -0.1556 -0.7856
19248TIP3   OH279158   0.694   3.179   3.161 -0.2687  0.1402 -0.0186
19248TIP3    H179159   0.685   3.267   3.198  0.6333 -0.2523  1.1893
19248TIP3    H279160   0.704   3.193   3.067 -1.9322  1.2126 -0.0827
19249TIP3   OH279161   2.415   5.286  13.258 -0.5966 -0.0248  0.3416
19249TIP3    H179162   2.456   5.265  13.342 -0.1292  1.8498  0.6287
19249TIP3    H279163   2.438   5.378  13.242 -0.8538 -0.2750 -1.7420
19250TIP3   OH279164   5.667   3.388   1.417  0.3469 -0.1682  0.3667
19250TIP3    H179165   5.626   3.414   1.334 -0.9016 -0.8303  0.7514
19250TIP3    H279166   5.667   3.468   1.470  1.7377  0.4234 -0.4728
19251TIP3   OH279167   3.074   6.700   0.360 -0.2448 -0.2141 -0.6829
19251TIP3    H179168   3.088   6.788   0.326 -2.5203  0.9387  1.0793
19251TIP3    H279169   3.038   6.651   0.286  0.3626  0.5296 -1.4855
19252TIP3   OH279170   1.124   4.568   2.429  0.0111 -0.2669 -0.4069
19252TIP3    H179171   1.051   4.626   2.410  0.8936  1.2958  0.7207
19252TIP3    H279172   1.106   4.536   2.518  1.5640  1.6188  0.6484
19253TIP3   OH279173   0.130   3.514  15.411  0.4274  0.2887 -0.1046
19253TIP3    H179174   0.106   3.425  15.439 -0.7320  0.5546 -0.2150
19253TIP3    H279175   0.140   3.562  15.493  0.3607  0.2241 -0.0574
19254TIP3   OH279176   0.879   1.644   1.994  0.5243 -0.1857  0.1108
19254TIP3    H179177   0.902   1.571   2.052 -0.4368 -1.0406 -0.5531
19254TIP3    H279178   0.954   1.703   2.000  0.0030  0.3454  3.1031
19255TIP3   OH279179   0.640   6.509  11.721 -0.2472  0.4296  0.3357
19255TIP3    H179180   0.629   6.439  11.655  0.2869  0.4427  0.2300
19255TIP3    H279181   0.552   6.524  11.754 -0.2803 -0.7530  0.8224
19256TIP3   OH279182   1.288   3.732  16.133  0.2240  0.0612  0.7413
19256TIP3    H179183   1.253   3.693  16.213  0.3766 -1.7745 -0.0474
19256TIP3    H279184   1.293   3.660  16.071 -0.0478  1.4682 -0.9984
19257TIP3   OH279185   5.571   6.358   3.207 -0.2141  0.0648  0.0832
19257TIP3    H179186   5.601   6.443   3.239 -0.8113  0.3307 -0.0373
19257TIP3    H279187   5.622   6.343   3.128  2.0336 -1.0873  1.6691
19258TIP3   OH279188   5.471   2.293  12.142 -0.3488 -0.7832 -0.3594
19258TIP3    H179189   5.392   2.259  12.184 -0.5845 -1.5255 -1.3596
19258TIP3    H279190   5.538   2.227  12.160 -0.2704 -0.7500 -0.5284
19259TIP3   OH279191   5.539   5.045   2.727 -0.2749  0.2168 -0.9351
19259TIP3    H179192   5.487   4.965   2.714 -1.0801  0.5293  0.1589
19259TIP3    H279193   5.527   5.095   2.647 -1.9682  0.4214 -0.5909
19260TIP3   OH279194   6.601   0.698  14.290 -0.2792 -0.0992 -0.2498
19260TIP3    H179195   6.588   0.606  14.268  0.2137 -0.0364 -0.8271
19260TIP3    H279196   6.584   0.703  14.384 -0.2071 -0.7967 -0.1977
19261TIP3   OH279197   2.909   5.900  13.562  0.5999 -0.3132  0.0540
19261TIP3    H179198   2.886   5.959  13.634 -0.0756  0.4292 -0.7434
19261TIP3    H279199   3.001   5.919  13.544  0.7340 -0.4013  0.6185
19262TIP3   OH279200   0.799   5.071   4.955 -0.0461  0.2149  0.0569
19262TIP3    H179201   0.797   5.162   4.927  1.7009  0.3688  0.3292
19262TIP3    H279202   0.790   5.074   5.050  0.7011  0.1719  0.1373
19263TIP3   OH279203   0.452   5.437   2.571  0.5133  0.6194  0.0835
19263TIP3    H179204   0.474   5.527   2.594 -0.8446  1.0821 -0.3379
19263TIP3    H279205   0.537   5.393   2.564  1.2184  1.9212  0.0335
19264TIP3   OH279206   5.500   5.100   5.343 -0.2380  0.4411  0.2971
19264TIP3    H179207   5.431   5.043   5.309  1.5150 -0.7627 -1.4607
19264TIP3    H279208   5.560   5.111   5.270  2.8352 -0.7815  2.4613
19265TIP3   OH279209   5.486   3.575   0.403  0.2391  0.1757 -0.2526
19265TIP3    H179210   5.394   3.547   0.404 -0.1669  1.3697 -1.2942
19265TIP3    H279211   5.535   3.497   0.429 -1.0291 -0.6732 -0.3168
19266TIP3   OH279212   0.656   3.448   4.791 -0.3586 -0.1087 -0.3531
19266TIP3    H179213   0.672   3.476   4.881  1.5816  2.3676 -1.3278
19266TIP3    H279214   0.589   3.509   4.758 -0.1177 -0.1520 -0.9463
19267TIP3   OH279215   6.721   2.030  11.745 -0.1994  0.1371  0.6271
19267TIP3    H179216   6.641   1.996  11.785  0.1275  0.7463  1.8719
19267TIP3    H279217   6.691   2.083  11.671 -0.9242  0.1044  0.8890
19268TIP3   OH279218   2.871   5.350   1.610 -0.1791  0.8065 -0.1358
19268TIP3    H179219   2.954   5.345   1.562 -0.7140  0.1574 -1.0192
19268TIP3    H279220   2.853   5.260   1.637  0.1584  1.1708  1.4185
19269TIP3   OH279221   0.843   2.850  16.313  0.3291 -0.6328  0.3772
19269TIP3    H179222   0.922   2.831  16.262  0.3941  0.5430 -0.0037
19269TIP3    H279223   0.866   2.930  16.361 -1.0633  0.4607 -0.7178
19270TIP3   OH279224   4.895   1.090  16.451 -0.5087  0.6162  0.5409
19270TIP3    H179225   4.922   1.095  16.359 -0.9097 -1.2736  0.2717
19270TIP3    H279226   4.955   1.148  16.497  0.8563  0.2458 -0.6860
19271TIP3   OH279227   2.528   2.664   5.322  0.0291 -0.1358  0.2601
19271TIP3    H179228   2.581   2.680   5.399  0.3435  0.5966 -0.0950
19271TIP3    H279229   2.528   2.748   5.275 -1.0355 -0.2624  0.0060
19272TIP3   OH279230   4.564   4.316  14.170 -0.4979 -0.5092  0.1394
19272TIP3    H179231   4.626   4.253  14.134 -0.2955 -0.6712  0.7590
19272TIP3    H279232   4.498   4.327  14.102 -0.6853 -1.6105  0.1327
19273TIP3   OH279233   1.788   2.677  14.897 -0.1391 -0.2049  0.7762
19273TIP3    H179234   1.842   2.673  14.976  0.6608  0.8164  0.3050
19273TIP3    H279235   1.730   2.752  14.910 -0.0414 -0.0647  0.4236
19274TIP3   OH279236   1.228   6.528   4.507  0.1178  0.1476  0.0381
19274TIP3    H179237   1.284   6.576   4.568 -0.5997  1.6111 -0.4004
19274TIP3    H279238   1.278   6.450   4.484  0.3578 -0.5240  2.5904
19275TIP3   OH279239   0.624   1.735  15.283 -0.2230 -0.0615  0.2428
19275TIP3    H179240   0.678   1.672  15.235  1.1815  2.1781 -1.2667
19275TIP3    H279241   0.617   1.697  15.371  1.5255 -1.7682 -0.2743
19276TIP3   OH279242   5.501   2.666   3.910  0.2968  0.0636  0.4544
19276TIP3    H179243   5.462   2.752   3.919 -1.8834 -0.9550  1.4549
19276TIP3    H279244   5.530   2.662   3.819  0.3267  1.7689  0.3550
19277TIP3   OH279245   3.989   5.920  15.116  0.0493  0.3617 -0.2766
19277TIP3    H179246   4.063   5.981  15.109 -1.3530  2.0597 -0.8720
19277TIP3    H279247   3.938   5.952  15.190  0.5554 -1.5835  0.9679
19278TIP3   OH279248   6.402   4.418   0.705 -0.1859 -0.0379  0.0840
19278TIP3    H179249   6.376   4.328   0.723 -1.5936  0.7085  2.1167
19278TIP3    H279250   6.323   4.470   0.720  0.7291  1.6091 -0.4804
19279TIP3   OH279251   6.273   1.274  12.877 -0.3774  0.3400 -0.2645
19279TIP3    H179252   6.361   1.236  12.872  0.2049  0.9593  3.1583
19279TIP3    H279253   6.217   1.202  12.907 -1.1191  0.0047 -2.2268
19280TIP3   OH279254   1.526   3.495   6.095  0.4138 -0.0637  0.0304
19280TIP3    H179255   1.552   3.495   6.188 -0.5325  1.1733  0.3396
19280TIP3    H279256   1.608   3.503   6.047  0.8088  2.1964  0.9120
19281TIP3   OH279257   1.786   2.073   4.412 -0.0764 -0.1593  0.1886
19281TIP3    H179258   1.776   1.999   4.472 -0.1362 -0.8595 -0.6579
19281TIP3    H279259   1.853   2.043   4.349  0.5052  0.8312  0.3252
19282TIP3   OH279260   0.886   4.312   2.919 -0.0082 -0.5285  0.4631
19282TIP3    H179261   0.949   4.250   2.956 -0.7898 -1.5661  0.1108
19282TIP3    H279262   0.923   4.398   2.938  1.3345 -1.1037  0.5629
19283TIP3   OH279263   0.195   1.373  10.530 -0.4147 -1.0983 -0.1769
19283TIP3    H179264   0.291   1.374  10.531 -0.4116 -1.4243  0.9533
19283TIP3    H279265   0.173   1.280  10.522 -0.6196 -1.2065  1.3565
19284TIP3   OH279266   3.883   3.562   3.079  0.5073  0.1330 -0.7400
19284TIP3    H179267   3.844   3.504   3.014 -4.3819  0.8405  1.1734
19284TIP3    H279268   3.843   3.647   3.064 -1.2668  0.2300  3.2183
19285TIP3   OH279269   2.064   0.231   5.663 -0.3292  0.7860 -0.1385
19285TIP3    H179270   2.058   0.326   5.667  0.6126  0.8181  1.7897
19285TIP3    H279271   2.150   0.211   5.700  0.0808 -0.7725 -1.7709
19286TIP3   OH279272   3.951   1.278  11.608  0.7275 -0.0738 -0.0736
19286TIP3    H179273   3.919   1.348  11.665  0.1058 -0.5020  0.1159
19286TIP3    H279274   4.028   1.315  11.565 -0.7486  1.4567 -1.5341
19287TIP3   OH279275   4.802   5.519   0.211  0.0616  0.1575 -0.3739
19287TIP3    H179276   4.754   5.539   0.292  1.8587 -0.5212  0.9113
19287TIP3    H279277   4.740   5.541   0.141 -0.5226  3.7897  1.0390
19288TIP3   OH279278   6.294   1.103   3.436  0.3331  0.0055 -0.0776
19288TIP3    H179279   6.366   1.080   3.377  1.1483  0.8607  0.5516
19288TIP3    H279280   6.335   1.107   3.523 -1.1076 -2.6476  0.8479
19289TIP3   OH279281   0.048   0.945   2.316 -0.5749  0.1937  0.3305
19289TIP3    H179282  -0.033   0.946   2.367 -0.6060 -1.1593  0.3294
19289TIP3    H279283   0.023   0.978   2.230 -0.7233  1.5612  0.8732
19290TIP3   OH279284   1.462   5.589   0.496 -0.0960 -0.0240 -0.5497
19290TIP3    H179285   1.389   5.613   0.553  1.7688  0.6694  1.6932
19290TIP3    H279286   1.540   5.625   0.539  1.7809 -1.9772 -2.0513
19291TIP3   OH279287   2.686   2.889   4.354 -0.5344  0.4460  0.1689
19291TIP3    H179288   2.624   2.865   4.423 -0.2360 -1.1668 -0.0930
19291TIP3    H279289   2.770   2.858   4.386 -0.0911  1.3196 -0.1333
19292TIP3   OH279290   6.144   2.128  16.494 -0.9431  0.5754 -0.6402
19292TIP3    H179291   6.175   2.123  16.585 -1.9112 -0.5066 -0.3475
19292TIP3    H279292   6.100   2.045  16.479  0.1418  0.2775 -2.4722
19293TIP3   OH279293   1.349   2.092  16.424  0.1212 -0.0476 -0.3806
19293TIP3    H179294   1.259   2.114  16.447  0.5548  0.8445  0.5803
19293TIP3    H279295   1.388   2.175  16.398  0.8943 -0.2709  0.0445
19294TIP3   OH279296   2.634   5.487  14.008  0.4813  0.0726 -0.0454
19294TIP3    H179297   2.551   5.522  13.978  0.2939  0.8204  1.2735
19294TIP3    H279298   2.616   5.450  14.094  1.5134  0.3001  0.2915
19295TIP3   OH279299   4.719   0.855   5.466 -0.3897  0.3821  0.2174
19295TIP3    H179300   4.659   0.893   5.401  0.4960  1.0498 -0.2440
19295TIP3    H279301   4.668   0.848   5.546 -1.2930  0.2347 -0.3637
19296TIP3   OH279302   3.789   0.581  14.564 -0.9504 -0.1801 -0.1454
19296TIP3    H179303   3.764   0.667  14.598 -0.2490  0.0968 -0.3190
19296TIP3    H279304   3.718   0.523  14.592 -0.8736  0.2324  0.9321
19297TIP3   OH279305   6.467   1.441   5.391  0.3839  0.2679  0.0519
19297TIP3    H179306   6.493   1.477   5.476 -1.1795  0.6046  0.4145
19297TIP3    H279307   6.537   1.378   5.370  0.3267 -0.5546  2.0565
19298TIP3   OH279308   4.653   0.559  15.362 -0.1409 -0.0622 -0.2434
19298TIP3    H179309   4.701   0.493  15.412  2.8523  1.5895 -0.6893
19298TIP3    H279310   4.638   0.519  15.276  1.1052 -0.4064 -0.3160
19299TIP3   OH279311   4.250   6.128  12.455 -0.2226 -0.3569 -0.8846
19299TIP3    H179312   4.217   6.215  12.479 -0.2611 -0.4902 -0.4452
19299TIP3    H279313   4.181   6.091  12.400 -0.4005 -0.2741 -0.7204
19300TIP3   OH279314   5.570   2.950   0.649  0.0208 -0.4936  0.0072
19300TIP3    H179315   5.619   2.883   0.695 -0.8242 -2.1152 -1.3419
19300TIP3    H279316   5.637   3.006   0.609  0.7684 -1.5144 -0.1953
19301TIP3   OH279317   0.677   2.466   3.486 -0.5143  0.4304 -0.3779
19301TIP3    H179318   0.591   2.428   3.468 -1.4299  0.9564  2.3317
19301TIP3    H279319   0.677   2.479   3.581  3.6708 -2.2389  0.2202
19302TIP3   OH279320   6.619   0.329   4.932 -0.7632  0.7594 -0.8241
19302TIP3    H179321   6.670   0.261   4.976  1.0834  0.9552 -2.5287
19302TIP3    H279322   6.535   0.286   4.911 -0.0458 -0.6555 -0.9176
19303TIP3   OH279323   1.399   4.676  16.768  0.3187 -0.2700  0.0773
19303TIP3    H179324   1.457   4.664  16.693  1.1029 -0.8052  0.7440
19303TIP3    H279325   1.458   4.680  16.843 -0.5133 -0.9574  0.7912
19304TIP3   OH279326   2.160   5.123   5.623 -0.3057  0.4594 -0.2139
19304TIP3    H179327   2.251   5.132   5.595  0.7516  0.4699  2.7968
19304TIP3    H279328   2.117   5.203   5.592  1.5634  2.0202  0.9784
19305TIP3   OH279329   5.223   3.668  12.021 -0.0223  0.2471  0.0933
19305TIP3    H179330   5.137   3.635  11.994 -0.3956  0.8799  0.4993
19305TIP3    H279331   5.217   3.763  12.010 -0.0408  0.4999  1.9268
19306TIP3   OH279332   3.525   2.956   6.189  0.1325  0.1964 -0.6787
19306TIP3    H179333   3.612   2.993   6.169 -0.0641  0.6860 -0.6494
19306TIP3    H279334   3.463   3.020   6.153 -0.2198  0.3222  0.1182
19307TIP3   OH279335   4.548   3.262  16.945 -0.0051 -0.0849 -0.1560
19307TIP3    H179336   4.642   3.280  16.952 -0.2920  1.1098  0.7459
19307TIP3    H279337   4.525   3.220  17.028 -0.4223  0.3453 -0.0510
19308TIP3   OH279338   3.815   6.025   2.159  0.2919 -0.0153 -0.1908
19308TIP3    H179339   3.738   6.078   2.180 -0.0997 -0.3116 -0.8541
19308TIP3    H279340   3.785   5.967   2.090  0.7374 -1.0607  0.4830
19309TIP3   OH279341   2.511   6.696   1.987  0.6888  0.2893 -0.1716
19309TIP3    H179342   2.531   6.745   1.907  1.6028 -0.0169 -0.1340
19309TIP3    H279343   2.517   6.761   2.057  0.5879  0.4059 -0.2706
19310TIP3   OH279344   5.485   4.602  14.795  0.5583  0.4786  0.1444
19310TIP3    H179345   5.556   4.643  14.844 -0.0603 -1.2479  2.6929
19310TIP3    H279346   5.502   4.508  14.802 -1.9550  0.0013  0.8762
19311TIP3   OH279347   0.732   4.604  14.980 -0.1918 -0.2925  0.5163
19311TIP3    H179348   0.792   4.547  15.029 -1.1779 -1.3873  0.4985
19311TIP3    H279349   0.764   4.602  14.890  0.0768 -0.4125  0.6150
19312TIP3   OH279350   1.307   4.950  16.508 -0.5835 -0.3972 -0.6017
19312TIP3    H179351   1.398   4.958  16.537 -0.7551  0.7441 -0.3682
19312TIP3    H279352   1.281   5.038  16.483 -1.1631 -0.9582 -2.1067
19313TIP3   OH279353   0.371   6.549  13.250 -0.3785  0.3031 -0.7838
19313TIP3    H179354   0.419   6.631  13.251 -0.2675  0.2713 -2.0031
19313TIP3    H279355   0.297   6.565  13.192 -1.2340  0.0057  0.1812
19314TIP3   OH279356   2.402   5.302  16.228 -0.4677 -0.5027 -0.4309
19314TIP3    H179357   2.460   5.378  16.218  0.2306 -0.9279  0.2253
19314TIP3    H279358   2.338   5.311  16.158  1.0684 -0.6371 -1.9301
19315TIP3   OH279359   3.858   1.831  15.239 -0.0144 -0.1871  0.5450
19315TIP3    H179360   3.875   1.738  15.257  0.3761 -0.2187  0.0413
19315TIP3    H279361   3.830   1.867  15.323 -3.1324 -1.4027  0.1894
19316TIP3   OH279362   1.370   4.656  15.072 -0.2042 -0.2620 -0.3553
19316TIP3    H179363   1.454   4.624  15.106 -0.4497 -0.4682  0.0665
19316TIP3    H279364   1.352   4.734  15.123 -0.7026 -0.7190  0.1780
19317TIP3   OH279365   1.106   4.464   2.974 -0.3769 -0.0077 -0.3899
19317TIP3    H179366   1.144   4.551   2.987 -0.8566  0.3459 -1.2699
19317TIP3    H279367   1.178   4.403   2.989 -0.0765  0.5337  0.3812
19318TIP3   OH279368   4.908   3.507  14.894  0.6843  0.4867 -0.1491
19318TIP3    H179369   4.874   3.473  14.977 -2.1332  0.0510 -1.3499
19318TIP3    H279370   4.928   3.429  14.842  1.2055  0.7366 -0.3230
19319TIP3   OH279371   1.061   1.471   4.017 -0.0110 -0.0163  0.0114
19319TIP3    H179372   1.151   1.494   4.043 -0.7898  3.0067  0.4963
19319TIP3    H279373   1.017   1.452   4.100 -0.5593  1.8141  0.1925
19320TIP3   OH279374   3.623   5.089   5.551 -0.1931  0.1215  0.5162
19320TIP3    H179375   3.543   5.137   5.573 -0.8785  0.3072 -2.0612
19320TIP3    H279376   3.593   5.001   5.527  0.1985  0.4361 -1.2983
19321TIP3   OH279377   4.196   4.411   3.367  0.3452  0.6061  0.2278
19321TIP3    H179378   4.123   4.473   3.363  0.2145  0.4002 -1.9561
19321TIP3    H279379   4.161   4.331   3.326  1.4060  0.0925  0.2917
19322TIP3   OH279380   2.066   4.747  13.704  0.1488 -0.7773 -0.3800
19322TIP3    H179381   2.068   4.671  13.646 -1.2476 -0.8130 -0.4218
19322TIP3    H279382   2.005   4.808  13.662 -0.0798 -0.3706  0.5111
19323TIP3   OH279383   6.069   4.047  15.119 -0.0700  0.3298 -0.8707
19323TIP3    H179384   5.996   3.992  15.146 -0.0127  0.7197  0.1303
19323TIP3    H279385   6.039   4.137  15.133  1.4408  0.5027  2.1111
19324TIP3   OH279386   0.070   4.629   4.573 -0.0010 -0.0940  0.3407
19324TIP3    H179387   0.127   4.561   4.610  1.0156  0.5282 -0.0352
19324TIP3    H279388  -0.009   4.582   4.546  0.7040 -1.1424  0.0472
19325TIP3   OH279389   5.837   1.157  13.789  0.4694  0.0036 -0.3430
19325TIP3    H179390   5.779   1.081  13.788 -0.6583  0.8375 -0.0782
19325TIP3    H279391   5.900   1.138  13.859  0.0336 -0.5600 -0.0990
19326TIP3   OH279392   3.383   0.442   0.992  0.0942 -0.2629  0.0335
19326TIP3    H179393   3.363   0.352   1.017 -0.7715 -0.4812 -1.3385
19326TIP3    H279394   3.377   0.492   1.074 -0.2295 -1.3176  0.6698
19327TIP3   OH279395   6.677   6.355   0.117  0.2937  0.1256  0.1943
19327TIP3    H179396   6.634   6.361   0.202 -0.9586 -1.2973 -0.2783
19327TIP3    H279397   6.725   6.272   0.120  0.0076 -0.0758 -0.5818
19328TIP3   OH279398   6.675   4.203  11.335  0.3307 -0.4716  0.1620
19328TIP3    H179399   6.596   4.255  11.348 -0.1006 -0.9380 -0.5535
19328TIP3    H279400   6.712   4.236  11.254  0.4147 -0.8303  0.0524
19329TIP3   OH279401   0.771   6.041  13.133 -0.3284 -0.0845  0.0401
19329TIP3    H179402   0.733   6.036  13.045 -1.1133 -2.0035  0.4516
19329TIP3    H279403   0.696   6.053  13.191  0.2155  1.5534  0.4739
19330TIP3   OH279404   6.636   2.054  14.231 -0.1379  0.3964 -0.2776
19330TIP3    H179405   6.593   2.055  14.146 -1.0921 -0.0633  0.1788
19330TIP3    H279406   6.580   1.997  14.285  1.8482 -1.5014 -0.0646
19331TIP3   OH279407   0.466   4.094  13.087 -0.3009  0.3846 -0.2876
19331TIP3    H179408   0.401   4.106  13.156  0.0441  0.2522  0.0642
19331TIP3    H279409   0.550   4.093  13.133 -0.2152 -3.3267 -0.2000
19332TIP3   OH279410   5.780   1.399  13.654  0.1407  0.4096  0.4116
19332TIP3    H179411   5.822   1.320  13.688  0.4630  0.4240  0.0507
19332TIP3    H279412   5.735   1.437  13.730  0.1667  0.0001  0.6343
19333TIP3   OH279413   4.627   6.692   5.466 -0.3394  0.3102  0.3937
19333TIP3    H179414   4.576   6.616   5.495  0.6277 -1.6268 -2.5063
19333TIP3    H279415   4.712   6.656   5.440  0.0495  2.2831 -1.3907
19334TIP3   OH279416   6.354   4.472  15.741  0.6600  0.3959 -0.8936
19334TIP3    H179417   6.306   4.555  15.744 -0.0029  0.0155 -0.7620
19334TIP3    H279418   6.313   4.423  15.669 -1.1727 -1.1186  1.0503
19335TIP3   OH279419   2.902   4.730   1.439 -0.5122  0.0003  0.5616
19335TIP3    H179420   2.955   4.656   1.409 -1.7638 -0.7026  0.0112
19335TIP3    H279421   2.949   4.763   1.516  0.2969 -1.0930  0.5719
19336TIP3   OH279422   1.584   6.071  11.596 -0.1003 -0.3763  0.1535
19336TIP3    H179423   1.654   6.103  11.538 -0.0921 -0.5456  0.0683
19336TIP3    H279424   1.506   6.119  11.568 -0.0621 -0.3404  0.1085
19337TIP3   OH279425   1.498   0.632  11.458 -0.5049 -0.1565  0.1330
19337TIP3    H179426   1.472   0.540  11.470  0.8131 -0.4660  0.7461
19337TIP3    H279427   1.593   0.629  11.450 -0.6215  0.8190 -3.1033
19338TIP3   OH279428   2.789   0.185  15.071  0.4271  0.0022  0.0955
19338TIP3    H179429   2.784   0.235  15.153  4.2274  1.7565 -0.5340
19338TIP3    H279430   2.873   0.141  15.074 -0.7565 -2.6346 -1.5480
19339TIP3   OH279431   6.634   6.541  16.108 -0.0225  0.0626  0.1771
19339TIP3    H179432   6.667   6.582  16.028 -1.8196  1.4212  0.0704
19339TIP3    H279433   6.709   6.493  16.143  0.6510 -1.2146 -2.6891
19340TIP3   OH279434   4.484   2.683   4.368  0.0003 -0.4590  0.2326
19340TIP3    H179435   4.579   2.681   4.376 -0.0477 -1.3448  0.7292
19340TIP3    H279436   4.465   2.765   4.322  0.8742  0.5915  1.6597
19341TIP3   OH279437   1.904   4.931  16.979 -0.4288  0.6201  0.2515
19341TIP3    H179438   1.943   4.932  16.892 -0.8614 -0.1906  0.0413
19341TIP3    H279439   1.971   4.970  17.036  1.7327 -2.7771  0.3020
19342TIP3   OH279440   4.087   0.643   5.027 -0.4274 -0.3806  0.7954
19342TIP3    H179441   3.994   0.627   5.040 -0.6009  0.4351  0.5821
19342TIP3    H279442   4.115   0.687   5.107 -0.5800  0.8425  0.1843
19343TIP3   OH279443   1.779   4.027  11.619  0.6387  0.5044  0.0707
19343TIP3    H179444   1.702   4.006  11.566 -1.0999  1.0875  2.1955
19343TIP3    H279445   1.849   3.972  11.584 -0.8597 -0.3989 -1.6553
19344TIP3   OH279446   0.745   4.346  12.125 -0.3797 -0.2980  0.1135
19344TIP3    H179447   0.740   4.429  12.172 -1.0999 -0.5826  0.5575
19344TIP3    H279448   0.704   4.283  12.185  0.9150 -1.1371  0.1580
19345TIP3   OH279449   3.420   0.181   0.960 -0.6092 -0.2317 -0.2933
19345TIP3    H179450   3.480   0.136   0.900  0.0415  1.1672 -0.7405
19345TIP3    H279451   3.335   0.138   0.946 -0.3520 -0.2769 -1.8536
19346TIP3   OH279452   0.646   3.291   2.124  0.6196  0.2375 -0.1919
19346TIP3    H179453   0.666   3.336   2.042 -0.1327  2.4625  0.7535
19346TIP3    H279454   0.563   3.329   2.153 -0.0780 -1.8369  0.7124
19347TIP3   OH279455   0.476   2.681  16.976 -0.1214 -0.0404  0.0131
19347TIP3    H179456   0.435   2.605  17.017 -0.5353  0.3715  0.3879
19347TIP3    H279457   0.557   2.648  16.938  0.1064 -0.5003  0.8782
19348TIP3   OH279458   5.023   4.584   2.825  0.6786 -0.0767 -0.7022
19348TIP3    H179459   5.012   4.678   2.809  2.0081  0.2399  0.0869
19348TIP3    H279460   4.955   4.562   2.888  1.1520  0.6405  0.0736
19349TIP3   OH279461   1.562   2.715  15.551 -0.1490  0.1887 -0.1614
19349TIP3    H179462   1.508   2.793  15.541 -0.7775 -0.0480  1.1293
19349TIP3    H279463   1.503   2.651  15.592  0.7436 -0.5158  0.0372
19350TIP3   OH279464   2.746   1.361   0.615  0.4391 -0.0091  0.1452
19350TIP3    H179465   2.652   1.343   0.614  0.6370 -1.1529 -1.4749
19350TIP3    H279466   2.752   1.456   0.626 -0.8515 -0.0321  1.4465
19351TIP3   OH279467   1.573   4.946   3.418  1.0194  0.3311 -0.3946
19351TIP3    H179468   1.647   4.993   3.457 -0.0176  0.9066  0.9653
19351TIP3    H279469   1.506   5.013   3.408 -0.0595 -0.5909  0.4364
19352TIP3   OH279470   0.482   1.075   5.148  0.0786  0.0057  0.3144
19352TIP3    H179471   0.511   0.998   5.195 -0.1181  0.8126  1.8154
19352TIP3    H279472   0.557   1.134   5.149 -0.1367  0.2889  0.1675
19353TIP3   OH279473   5.394   2.173  16.205  0.0345  0.2425  0.2854
19353TIP3    H179474   5.350   2.105  16.257 -0.5933 -0.0145 -0.5670
19353TIP3    H279475   5.370   2.255  16.248 -2.5509  0.2570 -0.9846
19354TIP3   OH279476   0.395   6.675   3.717 -0.6574 -0.3498 -0.3771
19354TIP3    H179477   0.352   6.744   3.665 -2.1347 -0.0992  1.0920
19354TIP3    H279478   0.355   6.682   3.804  1.8794 -0.6128  0.9032
19355TIP3   OH279479   0.645   1.785   1.274 -0.1296 -0.0631  0.2128
19355TIP3    H179480   0.607   1.788   1.362  0.4111 -0.3101  0.4576
19355TIP3    H279481   0.588   1.841   1.221 -1.7212 -1.6071  0.2241
19356TIP3   OH279482   5.439   3.179  10.700 -0.3225 -0.0594  0.3841
19356TIP3    H179483   5.446   3.087  10.673 -3.2210 -0.1585 -0.4028
19356TIP3    H279484   5.439   3.176  10.796 -1.9702 -1.1028  0.3866
19357TIP3   OH279485   1.461   0.008   0.479 -0.6198 -0.2399 -0.0297
19357TIP3    H179486   1.496  -0.065   0.531 -2.4864 -0.7554  0.5824
19357TIP3    H279487   1.378   0.029   0.521 -0.8893  1.1522 -1.2130
19358TIP3   OH279488   6.193   6.355   4.342  0.7857 -0.3017  0.1760
19358TIP3    H179489   6.138   6.374   4.266  2.3956  0.7439 -0.8095
19358TIP3    H279490   6.142   6.293   4.395 -0.4682 -0.9044 -1.6457
19359TIP3   OH279491   4.781   3.424   3.319  0.2375 -0.4606  0.7507
19359TIP3    H179492   4.778   3.331   3.342 -2.4428 -0.4112  0.8860
19359TIP3    H279493   4.692   3.456   3.335  0.5014  1.6205 -1.3248
19360TIP3   OH279494   5.076   2.790  15.046  0.0115 -0.6237  0.2859
19360TIP3    H179495   5.079   2.753  15.134 -0.2561  0.3851  0.7396
19360TIP3    H279496   5.078   2.714  14.988 -3.5247 -1.5864  1.1721
19361TIP3   OH279497   4.488   3.196  13.894  0.1344 -0.3477 -0.7438
19361TIP3    H179498   4.530   3.279  13.918 -0.0659 -0.0972 -1.2406
19361TIP3    H279499   4.426   3.220  13.824 -2.7845 -0.2156  1.6734
19362TIP3   OH279500   6.653   3.533   2.046  0.4412 -0.1743 -0.6753
19362TIP3    H179501   6.709   3.561   2.118  0.2921  0.9876 -0.9976
19362TIP3    H279502   6.564   3.555   2.075  0.2395 -1.0235 -0.6211
19363TIP3   OH279503   3.040   0.600  15.616  0.1370 -0.2950  0.2467
19363TIP3    H179504   3.129   0.624  15.589 -0.5853  0.4631 -1.6512
19363TIP3    H279505   2.998   0.684  15.636 -0.2215 -0.6375  0.9835
19364TIP3   OH279506   0.579   1.296  14.929  0.1016  0.2757 -0.1805
19364TIP3    H179507   0.592   1.252  14.845  1.1541 -1.9929  1.0805
19364TIP3    H279508   0.562   1.225  14.991 -0.6442  1.8719  1.5596
19365TIP3   OH279509   1.251   6.535  11.477 -0.4027 -0.0030 -0.6440
19365TIP3    H179510   1.321   6.560  11.416 -0.6107  0.1721 -0.8173
19365TIP3    H279511   1.262   6.594  11.551 -0.5232  0.2009 -0.7859
19366TIP3   OH279512   5.498   2.268  12.937 -0.1463  0.0463  0.5925
19366TIP3    H179513   5.527   2.178  12.957  0.1356 -0.5093 -1.9151
19366TIP3    H279514   5.405   2.259  12.917  0.0653  0.0993 -0.5161
19367TIP3   OH279515   3.447   4.978  15.285 -0.5494 -0.1196 -0.2141
19367TIP3    H179516   3.390   5.044  15.247 -0.8958 -1.1059 -1.4702
19367TIP3    H279517   3.397   4.943  15.359 -0.4810  0.7820  0.2817
19368TIP3   OH279518   4.257   2.309   1.166  0.1062 -0.3042 -0.3642
19368TIP3    H179519   4.259   2.333   1.073 -0.0143  0.1891 -0.2403
19368TIP3    H279520   4.273   2.391   1.212  2.5684 -0.9118  0.0257
19369TIP3   OH279521   0.559   3.292  14.687  0.1083 -0.1223 -0.4588
19369TIP3    H179522   0.628   3.262  14.628  0.6474 -0.2610  0.2147
19369TIP3    H279523   0.495   3.334  14.631 -0.9817 -2.9987 -1.5516
19370TIP3   OH279524   5.711   6.156  12.776 -0.9208 -0.0008  0.2634
19370TIP3    H179525   5.804   6.172  12.767 -0.9743 -0.2380 -0.9553
19370TIP3    H279526   5.705   6.072  12.821 -0.5965  0.8355  1.9691
19371TIP3   OH279527   5.199   0.423   0.811 -0.2003  0.1274 -0.1047
19371TIP3    H179528   5.148   0.438   0.731  0.6415 -1.4859 -0.9984
19371TIP3    H279529   5.167   0.489   0.872 -2.6253 -0.1429 -0.9621
19372TIP3   OH279530   0.742   5.385  14.077 -0.3054  0.7200  0.3407
19372TIP3    H179531   0.682   5.380  14.003 -1.0001  0.5560  0.9157
19372TIP3    H279532   0.795   5.463  14.059  0.3063  0.0522 -0.8984
19373TIP3   OH279533   1.486   6.478  12.078 -0.2052  0.4854 -0.2503
19373TIP3    H179534   1.457   6.392  12.111 -0.7840  0.6576 -0.2883
19373TIP3    H279535   1.460   6.478  11.986 -0.7601  0.9277 -0.1025
19374TIP3   OH279536   5.575   5.814  13.059  0.2256 -0.2440  0.4201
19374TIP3    H179537   5.486   5.849  13.054  0.3687  0.0143 -3.3265
19374TIP3    H279538   5.628   5.887  13.092 -0.7335  0.0413  1.3749
19375TIP3   OH279539   5.192   5.465   3.893  0.1040 -0.0008  0.7501
19375TIP3    H179540   5.150   5.521   3.958  0.4809 -0.7047  1.6218
19375TIP3    H279541   5.134   5.467   3.817  0.2790  1.8158  0.6364
19376TIP3   OH279542   5.277   4.664  16.221 -0.2543  0.2946  0.4021
19376TIP3    H179543   5.224   4.719  16.163 -2.3999 -0.9698  1.0640
19376TIP3    H279544   5.273   4.577  16.183 -0.3238 -0.2221  1.5492
19377TIP3   OH279545   6.604   5.861   5.005  0.2973 -0.0763  0.1510
19377TIP3    H179546   6.664   5.925   5.042 -1.0279  1.1241  0.2996
19377TIP3    H279547   6.652   5.778   5.009  1.9752  0.8568  0.1250
19378TIP3   OH279548   3.005   5.075  15.138  0.1198  0.2940 -0.1745
19378TIP3    H179549   2.985   5.009  15.205  0.3926 -0.9562 -1.2636
19378TIP3    H279550   2.932   5.136  15.142 -1.2101 -1.2163 -0.4754
19379TIP3   OH279551   6.172   6.148   1.746  0.1514  0.0008 -0.0282
19379TIP3    H179552   6.088   6.172   1.784  0.0163  1.1440 -1.0253
19379TIP3    H279553   6.231   6.142   1.822 -0.9788 -1.7296  0.7997
19380TIP3   OH279554   5.506   2.614   3.213 -0.1909 -0.6225  0.2985
19380TIP3    H179555   5.451   2.622   3.135  0.5027  0.6765 -0.0989
19380TIP3    H279556   5.446   2.625   3.286 -0.4267  1.2999 -0.1375
19381TIP3   OH279557   0.878   1.494   4.704  0.4299 -0.3591 -0.3689
19381TIP3    H179558   0.806   1.431   4.708  0.4821 -0.4522 -0.8677
19381TIP3    H279559   0.921   1.476   4.621  0.7884 -0.0360 -0.2546
19382TIP3   OH279560   1.891   1.863   1.547  0.3496 -0.1681  0.0517
19382TIP3    H179561   1.808   1.842   1.591 -0.8035 -0.9446 -2.3088
19382TIP3    H279562   1.957   1.856   1.616 -1.5546  0.8706  2.1199
19383TIP3   OH279563   0.405   0.546   3.923 -0.7475 -0.5626 -0.9619
19383TIP3    H179564   0.337   0.602   3.959  1.2113  0.9899  0.5799
19383TIP3    H279565   0.433   0.492   3.997 -0.6895 -1.6054 -1.7206
19384TIP3   OH279566   0.384   0.332  15.446  0.4334 -0.2144  0.2473
19384TIP3    H179567   0.394   0.244  15.409  0.0350 -0.3216  0.3984
19384TIP3    H279568   0.463   0.345  15.498  1.0877  0.0021 -0.7580
19385TIP3   OH279569   4.900   1.578   1.013  0.0628 -0.5374  0.8028
19385TIP3    H179570   4.932   1.663   1.042  1.2685  0.0104 -1.9083
19385TIP3    H279571   4.980   1.525   1.001 -0.5793 -1.6030  1.0832
19386TIP3   OH279572   5.535   1.325   2.166 -0.3848 -0.1522 -0.0232
19386TIP3    H179573   5.503   1.235   2.172 -3.6012  0.9228  1.4449
19386TIP3    H279574   5.558   1.336   2.073  2.5770 -3.0905  0.1738
19387TIP3   OH279575   2.849   4.886   6.686  0.1169 -0.0259  0.5401
19387TIP3    H179576   2.796   4.966   6.690 -0.9789 -0.7602  1.8323
19387TIP3    H279577   2.939   4.916   6.698 -0.0441  1.1810 -0.9524
19388TIP3   OH279578   5.842   6.339  16.381 -0.1565 -0.1453 -0.2256
19388TIP3    H179579   5.804   6.390  16.310  1.0593  1.5330  0.2623
19388TIP3    H279580   5.799   6.254  16.376 -0.9244  0.3213 -2.2370
19389TIP3   OH279581   1.875   2.476  15.424  0.0611  0.4388 -0.1270
19389TIP3    H179582   1.917   2.391  15.414  1.0420  0.8273  0.5121
19389TIP3    H279583   1.910   2.529  15.352 -0.6169  0.2814 -0.5778
19390TIP3   OH279584   1.090   5.080   4.958  0.2778  0.2783  0.2073
19390TIP3    H179585   1.120   5.076   4.867  2.3656 -0.2681  0.8561
19390TIP3    H279586   1.005   5.124   4.953 -0.5373 -1.3144 -2.1816
19391TIP3   OH279587   4.306   0.035   4.288  0.2014 -0.5594 -0.4394
19391TIP3    H179588   4.244   0.107   4.281 -1.6786 -1.6813  2.6504
19391TIP3    H279589   4.392   0.076   4.295 -0.7202  1.3315  0.2365
19392TIP3   OH279590   3.767   3.188   3.544  0.0647 -0.5239  0.3599
19392TIP3    H179591   3.732   3.211   3.630  0.1885  0.6339  0.1215
19392TIP3    H279592   3.763   3.269   3.494 -0.0237 -1.1813 -0.7420
19393TIP3   OH279593   1.751   4.654  13.822 -0.2730  0.7691  0.1144
19393TIP3    H179594   1.813   4.616  13.884  0.4351  0.9867 -0.4463
19393TIP3    H279595   1.675   4.596  13.826  0.7960 -0.7428 -0.7380
19394TIP3   OH279596   6.002   0.197  11.361 -0.3706 -0.0011  0.1965
19394TIP3    H179597   6.093   0.223  11.346 -1.3555  2.3854 -2.6410
19394TIP3    H279598   5.968   0.264  11.421 -0.8697  0.7312 -0.8589
19395TIP3   OH279599   3.578   1.670   6.621  0.4718  0.1127  0.5263
19395TIP3    H179600   3.637   1.710   6.557 -0.4092  0.3370 -0.1712
19395TIP3    H279601   3.554   1.586   6.582 -1.5801  1.0541 -0.4167
19396TIP3   OH279602   3.086   4.718   1.053  0.2775  0.0991  1.2658
19396TIP3    H179603   3.144   4.646   1.078 -0.3945 -0.6159  0.8198
19396TIP3    H279604   3.135   4.766   0.986  0.3842 -0.4715  0.9256
19397TIP3   OH279605   3.901   6.392  13.726  0.1311  0.2075 -0.3648
19397TIP3    H179606   3.899   6.466  13.786  0.0943  0.8741 -1.1659
19397TIP3    H279607   3.851   6.323  13.770  1.5405  0.0741  1.1213
19398TIP3   OH279608   6.143   0.239  12.574 -0.4484 -0.1336 -0.4021
19398TIP3    H179609   6.214   0.241  12.510 -1.4389 -0.6976 -1.5430
19398TIP3    H279610   6.183   0.273  12.654  0.3910  2.1533 -1.7084
19399TIP3   OH279611   2.830   4.331   3.448  0.5729 -0.5862  0.1643
19399TIP3    H179612   2.756   4.378   3.485  0.9616  0.6937 -0.6226
19399TIP3    H279613   2.805   4.313   3.357  1.0112 -0.5776  0.0368
19400TIP3   OH279614   0.606   3.066   3.737 -0.3198  0.4603 -0.1675
19400TIP3    H179615   0.694   3.041   3.765  0.8341  3.2192 -0.9754
19400TIP3    H279616   0.556   2.984   3.736  2.4189 -1.3107 -0.4374
19401TIP3   OH279617   3.594   1.881   2.857  0.6458 -0.1760 -0.6074
19401TIP3    H179618   3.611   1.947   2.923  0.9877 -0.5058 -0.3599
19401TIP3    H279619   3.525   1.918   2.802  0.8751  0.4046 -0.5053
19402TIP3   OH279620   3.290   6.484   3.376 -0.3292 -0.1332  0.1774
19402TIP3    H179621   3.289   6.575   3.406  1.1705 -0.2067  0.5095
19402TIP3    H279622   3.266   6.489   3.284  1.0588  0.7615 -0.1664
19403TIP3   OH279623   0.022   6.634  11.377 -0.4265 -0.9982  0.2898
19403TIP3    H179624  -0.026   6.612  11.298  0.1169 -0.0666 -0.3094
19403TIP3    H279625  -0.036   6.607  11.449 -0.6896 -2.3636 -0.4002
19404TIP3   OH279626   1.847   6.415  16.874  0.0415  0.0526 -0.5173
19404TIP3    H179627   1.914   6.347  16.883 -1.0474 -1.2143 -1.5267
19404TIP3    H279628   1.887   6.480  16.816  1.0625  0.2362  0.3751
19405TIP3   OH279629   5.960   5.171  11.519 -0.0739  0.0270  0.2438
19405TIP3    H179630   5.908   5.093  11.540 -0.1541 -0.0473 -0.2309
19405TIP3    H279631   5.897   5.244  11.525 -0.3648 -0.1214 -0.8574
19406TIP3   OH279632   3.371   0.874   3.660 -0.2387 -0.2309  0.2090
19406TIP3    H179633   3.357   0.812   3.732 -1.2404 -0.6569 -0.3287
19406TIP3    H279634   3.286   0.880   3.617  0.3535 -0.0262 -0.9746
19407TIP3   OH279635   6.404   4.394  13.708 -0.3856 -0.4949  0.4360
19407TIP3    H179636   6.345   4.454  13.664 -0.5536 -0.4648  0.6970
19407TIP3    H279637   6.399   4.313  13.657  0.1133 -0.1809 -0.1184
19408TIP3   OH279638   3.485   5.504  15.591  0.2311  0.6903 -0.4936
19408TIP3    H179639   3.450   5.502  15.502 -0.2251 -1.5953 -0.3021
19408TIP3    H279640   3.436   5.437  15.638  1.3181  1.0004  1.1626
19409TIP3   OH279641   2.703   5.019   5.347  0.2377 -0.6055 -0.1697
19409TIP3    H179642   2.659   5.069   5.416 -1.3381 -1.5650 -0.4366
19409TIP3    H279643   2.788   4.996   5.386 -0.7689 -1.5034  1.6642
19410TIP3   OH279644   3.047   3.313   6.549 -0.0051  0.9365 -0.0456
19410TIP3    H179645   3.094   3.233   6.525 -0.3432  0.8558 -0.4409
19410TIP3    H279646   3.108   3.360   6.607 -0.6397 -0.6348  2.0222
19411TIP3   OH279647   6.075   2.957   3.768 -0.0475 -0.5875 -0.1124
19411TIP3    H179648   6.030   2.907   3.837 -0.9369  0.2493 -0.0688
19411TIP3    H279649   6.010   3.020   3.738  1.0097  0.4522 -0.2716
19412TIP3   OH279650   1.501   1.248   3.791  0.4154  0.3559 -0.5667
19412TIP3    H179651   1.577   1.199   3.760  0.3727 -1.3634  1.8457
19412TIP3    H279652   1.430   1.184   3.792  0.3310  0.3704  2.5543
19413TIP3   OH279653   0.401   3.245   1.022  0.1043 -0.2268  0.7583
19413TIP3    H179654   0.327   3.198   1.059  0.6760 -1.5423  0.2780
19413TIP3    H279655   0.478   3.204   1.062  0.6256  0.1522  0.1595
19414TIP3   OH279656   6.221   2.134  16.778  0.2899  0.1599 -0.5833
19414TIP3    H179657   6.280   2.200  16.815 -0.7639  1.1097 -0.5590
19414TIP3    H279658   6.152   2.124  16.844  0.4033 -0.9297 -0.6179
19415TIP3   OH279659   6.094   6.284   2.390 -0.6772 -0.4049 -0.1413
19415TIP3    H179660   6.138   6.350   2.337  1.2963 -1.3324  0.2621
19415TIP3    H279661   6.130   6.295   2.477 -2.0203 -0.5558  0.4600
19416TIP3   OH279662   4.327   4.839  17.336  0.1882  0.3647  0.5357
19416TIP3    H179663   4.314   4.819  17.428  1.2551 -0.6268  0.4996
19416TIP3    H279664   4.240   4.862  17.303 -0.6630 -1.6148  1.2497
19417TIP3   OH279665   5.610   5.369   1.830 -0.2684  0.1816 -0.2252
19417TIP3    H179666   5.678   5.323   1.879 -0.4325  0.5754  0.3960
19417TIP3    H279667   5.546   5.302   1.809 -0.7399  0.1859  1.0767
19418TIP3   OH279668   5.093   6.471   5.276  0.3039 -0.0033 -0.2038
19418TIP3    H179669   5.014   6.523   5.256  0.8765  1.1762  0.4756
19418TIP3    H279670   5.093   6.465   5.372  0.7162 -0.5209 -0.2347
19419TIP3   OH279671   1.646   6.728   2.428 -0.1804  0.1079  0.0188
19419TIP3    H179672   1.742   6.734   2.418 -0.0048 -1.1061  0.7601
19419TIP3    H279673   1.624   6.801   2.486  0.6208 -0.8586  1.6234
19420TIP3   OH279674   3.500   4.410   3.371  0.1125  0.1979 -0.0682
19420TIP3    H179675   3.444   4.392   3.296 -1.7469  0.8248  1.1196
19420TIP3    H279676   3.477   4.343   3.435  3.6661 -2.1471 -0.9111
19421TIP3   OH279677   5.836   3.299  13.668  0.3399  0.5252 -0.0403
19421TIP3    H179678   5.913   3.290  13.612 -0.7999 -1.5120 -1.3935
19421TIP3    H279679   5.820   3.210  13.702 -1.3705  0.9072  0.2604
19422TIP3   OH279680   4.129   2.681  16.390 -0.1049  0.3606  0.5085
19422TIP3    H179681   4.105   2.592  16.418  1.7267  0.0873  1.3614
19422TIP3    H279682   4.155   2.725  16.471 -1.3317  1.8250  0.1517
19423TIP3   OH279683   5.956   5.040  10.982  0.4031  0.5167  0.9355
19423TIP3    H179684   5.974   5.019  10.891  0.8541  0.7832  0.9572
19423TIP3    H279685   5.909   5.124  10.979 -0.8089 -0.1538  0.8824
19424TIP3   OH279686   0.088   3.254  16.599 -0.2234  1.1925 -0.1356
19424TIP3    H179687   0.031   3.323  16.635  0.0942  0.7479  1.2868
19424TIP3    H279688   0.040   3.173  16.614  0.2894  0.9212  0.0580
19425TIP3   OH279689   0.877   4.734  13.787  0.3900  0.1026 -0.3897
19425TIP3    H179690   0.950   4.754  13.846  0.3670  1.1689 -0.6955
19425TIP3    H279691   0.898   4.781  13.707 -0.4219  0.0610 -0.6340
19426TIP3   OH279692   4.974   6.388   1.921 -0.2858 -0.3845  0.1941
19426TIP3    H179693   5.015   6.317   1.971 -0.3655 -1.2805 -0.9744
19426TIP3    H279694   5.045   6.450   1.905  0.6036 -1.7253 -1.4551
19427TIP3   OH279695   6.056   3.133  13.134  0.0501  0.3682  0.3784
19427TIP3    H179696   6.140   3.146  13.090  0.6669 -1.4135  0.9412
19427TIP3    H279697   6.022   3.052  13.097 -0.1171 -0.3768  2.0681
19428TIP3   OH279698   6.235   0.376   6.297 -0.2475  0.4319 -0.1904
19428TIP3    H179699   6.237   0.469   6.319 -0.7480  0.3397  0.2575
19428TIP3    H279700   6.267   0.332   6.376  0.7859  0.2591 -0.6803
19429TIP3   OH279701   1.905   5.886  13.017  0.3238  0.3800 -0.6492
19429TIP3    H179702   1.810   5.882  13.019  0.2603  1.0083 -1.8153
19429TIP3    H279703   1.929   5.851  12.931  1.3088 -2.2397  0.5676
19430TIP3   OH279704   5.240   6.661   1.582 -0.1696  0.4562  0.1768
19430TIP3    H179705   5.277   6.582   1.544  0.0746  0.7028 -0.1038
19430TIP3    H279706   5.146   6.656   1.563 -0.1720  0.1781  0.2663
19431TIP3   OH279707   3.700   1.820  16.341 -0.4618  0.2388  1.1087
19431TIP3    H179708   3.683   1.892  16.281  0.1479 -0.2757  0.3037
19431TIP3    H279709   3.666   1.742  16.296  1.1297 -0.3406  0.8424
19432TIP3   OH279710   5.718   2.606   4.060  0.0539  0.0118 -0.1946
19432TIP3    H179711   5.655   2.595   3.989 -0.3183  1.0041 -0.0276
19432TIP3    H279712   5.704   2.695   4.091  0.5728 -0.2358  0.7825
19433TIP3   OH279713   0.129   3.940  12.545 -0.6754 -0.4539 -0.3077
19433TIP3    H179714   0.082   3.951  12.462 -1.4752  1.3603  0.3169
19433TIP3    H279715   0.090   3.862  12.585 -1.8106 -0.0933 -0.6809
19434TIP3   OH279716   4.672   3.740   3.751  0.0935  0.3602  0.5243
19434TIP3    H179717   4.724   3.815   3.779  0.2774  0.5054 -0.1821
19434TIP3    H279718   4.733   3.667   3.749  0.3365  0.5783 -0.5242
19435TIP3   OH279719   1.015   6.354   3.803  0.6745 -0.1588  0.5599
19435TIP3    H179720   1.067   6.427   3.837 -0.2430  0.9285 -0.3161
19435TIP3    H279721   0.924   6.382   3.813  0.2640 -1.5691  1.0389
19436TIP3   OH279722   4.496   5.143   1.490  0.0119 -0.2672 -0.3736
19436TIP3    H179723   4.456   5.130   1.576 -0.6271 -1.2528 -0.8018
19436TIP3    H279724   4.530   5.057   1.466  0.9390  0.1896 -0.7487
19437TIP3   OH279725   4.979   2.709  10.726  0.2933  0.3547 -0.3748
19437TIP3    H179726   4.999   2.783  10.668 -0.3658  1.0900  0.3026
19437TIP3    H279727   4.891   2.729  10.761 -0.6376 -1.5828 -1.4534
19438TIP3   OH279728   2.874   1.354   4.503  0.1382  0.1576  0.2277
19438TIP3    H179729   2.833   1.267   4.499  1.6986 -0.5787 -0.9767
19438TIP3    H279730   2.899   1.372   4.412 -0.0321  1.8328  0.4865
19439TIP3   OH279731   2.176   4.662   0.920  0.3212 -0.4613  0.4918
19439TIP3    H179732   2.180   4.758   0.922 -0.2450 -0.4412  1.0065
19439TIP3    H279733   2.192   4.635   1.011  0.4331 -0.8501  0.3580
19440TIP3   OH279734   1.582   5.289  12.405 -0.5296 -0.3139 -0.3469
19440TIP3    H179735   1.527   5.246  12.470 -0.2182 -2.7843 -1.5854
19440TIP3    H279736   1.671   5.257  12.423 -0.4069 -0.8642 -1.7933
19441TIP3   OH279737   5.931   3.878   5.092 -0.5575  0.4814 -0.0046
19441TIP3    H179738   5.986   3.951   5.061 -0.7497  0.2247 -0.9649
19441TIP3    H279739   5.891   3.911   5.172  1.3716  0.5110  1.0111
19442TIP3   OH279740   2.786   1.991   1.339 -0.7994  0.4496 -0.1568
19442TIP3    H179741   2.857   1.944   1.295 -0.7962 -0.8678  1.1814
19442TIP3    H279742   2.776   2.071   1.288 -0.3305 -0.6663 -2.1140
19443TIP3   OH279743   1.903   2.905   0.594 -1.1786 -0.1331  0.7037
19443TIP3    H179744   1.916   2.984   0.647  1.2389  1.3661 -1.8330
19443TIP3    H279745   1.871   2.938   0.510 -2.6306 -2.1783  0.3863
19444TIP3   OH279746   2.856   0.043   0.623  0.4820 -0.4091 -0.6570
19444TIP3    H179747   2.854  -0.017   0.697 -1.0309  1.1800  0.6782
19444TIP3    H279748   2.915   0.113   0.649 -0.8452  0.6871 -0.4586
19445TIP3   OH279749   5.409   1.518  14.671 -0.2012  0.1862  0.1513
19445TIP3    H179750   5.429   1.426  14.689 -1.2277  0.1795  1.4141
19445TIP3    H279751   5.395   1.522  14.576  0.7611 -0.7643 -0.0472
19446TIP3   OH279752   5.475   3.523  16.120 -0.2072  0.1927  0.3177
19446TIP3    H179753   5.495   3.586  16.189  0.9302 -0.1659  0.3421
19446TIP3    H279754   5.470   3.438  16.165 -0.7906  0.1374  0.1521
19447TIP3   OH279755   4.865   5.097  14.374  0.0258  0.0807  0.6062
19447TIP3    H179756   4.830   5.082  14.462  1.7942 -1.1781  1.1702
19447TIP3    H279757   4.926   5.170  14.385 -0.6347  0.7153  0.1437
19448TIP3   OH279758   5.315   0.683   2.915 -0.5067 -0.1134  0.7901
19448TIP3    H179759   5.366   0.720   2.988 -2.4852 -0.9465  2.6998
19448TIP3    H279760   5.225   0.708   2.934 -1.3982 -2.5354  0.0060
19449TIP3   OH279761   0.088   1.929   4.861 -0.1717 -0.3748 -0.5051
19449TIP3    H179762   0.162   1.984   4.836  2.4095 -2.5900  1.5382
19449TIP3    H279763   0.034   1.985   4.917  1.0535  0.7386 -0.3931
19450TIP3   OH279764   4.994   1.556   2.213 -0.0130 -0.0827  0.0051
19450TIP3    H179765   4.995   1.623   2.281  0.1482  0.7221 -0.7666
19450TIP3    H279766   5.043   1.483   2.251  2.3707  1.3044 -0.1641
19451TIP3   OH279767   5.183   0.929  16.536  0.3187  0.1574 -0.0903
19451TIP3    H179768   5.119   0.858  16.545  0.9112 -0.2581  1.0794
19451TIP3    H279769   5.265   0.885  16.516  1.1990  0.2250  2.8502
19452TIP3   OH279770   5.256   2.076  12.787  0.4289 -1.0645  0.1990
19452TIP3    H179771   5.212   2.105  12.707 -2.1747 -0.8845  1.5698
19452TIP3    H279772   5.297   1.993  12.764 -1.1866 -1.5597 -1.0808
19453TIP3   OH279773   5.490   4.629  16.832  0.2615 -0.5868 -0.2480
19453TIP3    H179774   5.446   4.626  16.917  0.9006 -0.0094  0.1188
19453TIP3    H279775   5.580   4.604  16.851  0.3980 -0.4863 -0.7591
19454TIP3   OH279776   2.542   0.133  15.472 -0.1311 -0.0574 -0.0161
19454TIP3    H179777   2.521   0.040  15.478 -0.7798  0.0559 -0.3739
19454TIP3    H279778   2.456   0.176  15.462  0.1669  0.5682  0.0599
19455TIP3   OH279779   5.319   4.237  16.455 -0.3810 -0.2574  0.9205
19455TIP3    H179780   5.267   4.229  16.535 -0.2019 -2.5068  0.8784
19455TIP3    H279781   5.404   4.270  16.484 -0.0399 -1.8596  1.8161
19456TIP3   OH279782   4.424   1.494   2.261 -0.0166 -0.1319  0.2857
19456TIP3    H179783   4.513   1.517   2.290  0.3221 -1.1997  0.1369
19456TIP3    H279784   4.422   1.399   2.264 -0.6581 -0.1935 -1.1815
19457TIP3   OH279785   3.453   5.900   0.472 -0.1523  0.6367 -0.0649
19457TIP3    H179786   3.432   5.993   0.476 -0.9809  0.5058 -0.8575
19457TIP3    H279787   3.428   5.874   0.384 -0.0856 -0.3700  0.2020
19458TIP3   OH279788   2.540   3.748  11.601  0.2839  0.0245  0.5425
19458TIP3    H179789   2.622   3.794  11.621  0.3641 -0.6818  2.0163
19458TIP3    H279790   2.559   3.657  11.623 -0.7851 -0.2050  0.5377
19459TIP3   OH279791   5.370   4.258   5.541  0.3177  0.1070  0.2699
19459TIP3    H179792   5.301   4.234   5.480 -0.3488 -0.2964  1.1647
19459TIP3    H279793   5.444   4.202   5.517 -1.1826 -3.0120  2.3139
19460TIP3   OH279794   2.625   0.557   3.919  0.8717 -0.8162  0.0202
19460TIP3    H179795   2.625   0.495   3.846  0.8260  0.5447 -1.1639
19460TIP3    H279796   2.686   0.626   3.893 -1.3413  1.2273 -0.1359
19461TIP3   OH279797   1.710   1.642  13.176 -0.2687 -0.9393  0.0769
19461TIP3    H179798   1.620   1.674  13.177 -0.8977 -2.0189 -3.7467
19461TIP3    H279799   1.743   1.668  13.090  2.7753 -1.4330  0.9954
19462TIP3   OH279800   1.198   1.081   0.508 -0.0772 -0.4723 -0.5311
19462TIP3    H179801   1.187   1.174   0.527 -0.6007 -0.3986 -1.1654
19462TIP3    H279802   1.173   1.036   0.589 -0.7992 -0.1071 -0.5515
19463TIP3   OH279803   5.999   5.887  13.404 -0.0142 -0.2872 -0.4419
19463TIP3    H179804   6.070   5.844  13.451  0.6188  1.6964  0.5742
19463TIP3    H279805   5.923   5.878  13.462 -0.3763 -1.6270 -1.1073
19464TIP3   OH279806   0.726   0.832  15.204 -0.4336 -0.2952  0.3025
19464TIP3    H179807   0.685   0.813  15.288 -0.3480  1.2230  0.7248
19464TIP3    H279808   0.819   0.818  15.218 -0.4973 -0.8314  0.2137
19465TIP3   OH279809   4.396   1.349  12.536  0.2151 -0.0260  0.5830
19465TIP3    H179810   4.458   1.368  12.464 -0.8259 -1.2731 -0.6858
19465TIP3    H279811   4.330   1.418  12.529  0.1980 -0.0566  0.4357
19466TIP3   OH279812   1.671   3.027  16.866  0.3134 -0.4244 -0.0632
19466TIP3    H179813   1.707   2.989  16.946  0.8163  0.0589 -0.0554
19466TIP3    H279814   1.728   2.994  16.796 -0.4505 -1.2900 -0.2968
19467TIP3   OH279815   5.241   3.461   2.565 -0.3800 -0.3469  0.0341
19467TIP3    H179816   5.278   3.420   2.643  1.0007 -0.6508 -0.7513
19467TIP3    H279817   5.275   3.550   2.567 -0.9037 -0.1497  0.1398
19468TIP3   OH279818   5.570   4.409   4.419  0.0130 -0.1187  0.6054
19468TIP3    H179819   5.536   4.490   4.457  1.6906  2.5557 -2.9793
19468TIP3    H279820   5.495   4.370   4.374 -0.1231  1.5475 -0.7337
19469TIP3   OH279821   5.065   5.734   0.397 -0.8802 -0.0231 -0.1202
19469TIP3    H179822   5.129   5.724   0.467 -0.5750  0.2173 -0.3630
19469TIP3    H279823   5.117   5.757   0.320 -1.3396  1.1845 -0.0986
19470TIP3   OH279824   3.584   4.465   4.809 -0.5614  0.2926 -0.0009
19470TIP3    H179825   3.649   4.513   4.860 -0.2879 -1.2726  1.2050
19470TIP3    H279826   3.590   4.501   4.721  1.1436  0.9524  0.3595
19471TIP3   OH279827   5.111   5.383  15.534 -0.1055  0.0237  0.3779
19471TIP3    H179828   5.080   5.339  15.455  2.8537 -1.0298 -0.3332
19471TIP3    H279829   5.103   5.317  15.603  0.9305 -0.4367  0.0810
19472TIP3   OH279830   4.491   2.353  13.678 -0.0418  0.2018 -0.0888
19472TIP3    H179831   4.491   2.318  13.768 -2.0957  4.2465  1.7370
19472TIP3    H279832   4.584   2.357  13.655  0.4741 -2.6374  1.0061
19473TIP3   OH279833   5.277   5.704   0.201 -0.2041 -0.7851  0.5957
19473TIP3    H179834   5.253   5.622   0.158  1.4838 -1.1049  0.1796
19473TIP3    H279835   5.301   5.763   0.130  1.7131 -1.0162  0.9919
19474TIP3   OH279836   5.614   2.048   2.849 -0.2030  0.9395 -0.4642
19474TIP3    H179837   5.660   2.113   2.795  1.5227  1.2304  1.2389
19474TIP3    H279838   5.541   2.097   2.887  0.7494  1.7652  0.3531
19475TIP3   OH279839   0.383   2.832   0.170 -0.3518 -0.2823 -0.0534
19475TIP3    H179840   0.330   2.825   0.249  2.2146  1.2649  1.9708
19475TIP3    H279841   0.466   2.789   0.192  0.7374  0.8729 -1.5927
19476TIP3   OH279842   2.246   4.432  17.011  0.5461  0.4934  0.3474
19476TIP3    H179843   2.321   4.394  16.966 -0.7729 -2.2621  0.2190
19476TIP3    H279844   2.278   4.453  17.099  1.7352  0.4324 -0.0632
19477TIP3   OH279845   4.206   3.281   2.319 -0.3219  0.6017  0.1417
19477TIP3    H179846   4.233   3.373   2.317  0.4073  0.3832 -0.3758
19477TIP3    H279847   4.153   3.270   2.240  0.1217  0.4258 -0.1363
19478TIP3   OH279848   5.653   6.377  12.140  0.3568  0.6076  0.1804
19478TIP3    H179849   5.694   6.327  12.069 -1.1398  2.1828 -1.9438
19478TIP3    H279850   5.561   6.384  12.114 -0.1933  1.4956  2.1659
19479TIP3   OH279851   5.413   6.574   5.561  0.1941  0.4540 -0.2370
19479TIP3    H179852   5.472   6.566   5.636  0.8810 -1.9937 -0.9627
19479TIP3    H279853   5.432   6.661   5.525  1.3948  0.7921  1.1381
19480TIP3   OH279854   3.629   2.426   4.020 -0.3939 -0.4271 -0.1590
19480TIP3    H179855   3.622   2.395   3.930 -0.9351 -0.4834 -0.1020
19480TIP3    H279856   3.656   2.517   4.013 -2.4323  0.1964 -0.4545
19481TIP3   OH279857   1.513   0.973   0.634  0.3555 -0.1073 -0.0674
19481TIP3    H179858   1.538   1.064   0.649  1.2696 -0.5359  1.1701
19481TIP3    H279859   1.437   0.959   0.690  0.9004 -0.3970  0.6203
19482TIP3   OH279860   0.830   1.132  14.915 -0.5492 -0.2512 -0.1927
19482TIP3    H179861   0.796   1.203  14.861 -0.9980 -1.0908 -1.0506
19482TIP3    H279862   0.904   1.170  14.962 -1.9068  1.2817  0.7809
19483TIP3   OH279863   6.493   4.455  11.270  0.1096  0.0026  0.2430
19483TIP3    H179864   6.517   4.459  11.362 -2.0444  1.0200  0.8390
19483TIP3    H279865   6.561   4.505  11.225  0.0681  1.3457  1.5913
19484TIP3   OH279866   4.742   0.652  14.878 -0.4986  0.2778  0.4007
19484TIP3    H179867   4.821   0.701  14.854  0.4588 -1.5406 -0.3892
19484TIP3    H279868   4.689   0.650  14.798 -0.3545 -0.2502  0.3112
19485TIP3   OH279869   1.538   6.506  12.846 -0.0952  0.3960 -0.5448
19485TIP3    H179870   1.471   6.442  12.822 -1.7181  2.3365 -1.4255
19485TIP3    H279871   1.603   6.499  12.776  0.9696 -1.8003  0.5376
19486TIP3   OH279872   3.974   3.105   5.761  0.2050 -0.3100  0.0515
19486TIP3    H179873   3.910   3.136   5.696  0.0766  0.3653  0.4964
19486TIP3    H279874   3.961   3.010   5.763 -0.8564 -0.1774  0.2010
19487TIP3   OH279875   3.268   1.570  12.643 -0.1413 -0.2040 -0.0047
19487TIP3    H179876   3.269   1.578  12.738  1.5944 -1.9072  0.1814
19487TIP3    H279877   3.244   1.658  12.611 -0.1859  0.5364  1.9605
19488TIP3   OH279878   0.197   2.836   0.432 -0.8123 -0.1217  0.1923
19488TIP3    H179879   0.267   2.865   0.490 -1.3956 -1.5332  1.7126
19488TIP3    H279880   0.169   2.752   0.469 -0.5465 -1.6475 -2.7430
19489TIP3   OH279881   1.115   0.515   1.309  0.5400 -0.4942 -0.2089
19489TIP3    H179882   1.184   0.577   1.332 -0.2333  0.2297  0.2163
19489TIP3    H279883   1.144   0.432   1.347  1.3160 -0.2741 -0.2988
19490TIP3   OH279884   4.207   4.840   3.371  0.0332  0.2899 -0.4003
19490TIP3    H179885   4.131   4.891   3.398  0.4891 -0.0640  1.7612
19490TIP3    H279886   4.171   4.771   3.314 -1.1321  0.6337 -0.1104
19491TIP3   OH279887   5.391   3.933  10.479  0.2010 -0.3763 -0.3485
19491TIP3    H179888   5.394   3.887  10.395 -2.0074  1.7721 -1.7182
19491TIP3    H279889   5.458   4.001  10.472 -0.2313  0.0319 -0.5060
19492TIP3   OH279890   1.224   6.059  13.346 -0.1831 -0.2957  0.6340
19492TIP3    H179891   1.179   6.142  13.333 -2.0427 -1.0230  1.8695
19492TIP3    H279892   1.188   6.001  13.279  1.0612 -0.1414 -0.1862
19493TIP3   OH279893   5.399   2.198  10.639  0.0348 -0.3401  0.2531
19493TIP3    H179894   5.477   2.146  10.622  0.7491  0.3328  1.3465
19493TIP3    H279895   5.426   2.261  10.705 -1.1699  0.5628 -0.0741
19494TIP3   OH279896   1.763   5.038  15.979  0.0905  0.0606 -0.1771
19494TIP3    H179897   1.853   5.034  16.012  0.9257  2.3535 -1.9096
19494TIP3    H279898   1.710   5.004  16.051  2.0267  1.9842  2.3990
19495TIP3   OH279899   3.814   2.800  12.245 -0.0397  0.4632  0.5879
19495TIP3    H179900   3.795   2.838  12.331 -1.9813 -1.3639  1.0487
19495TIP3    H279901   3.804   2.706  12.258  0.1303  0.1072 -1.5475
19496TIP3   OH279902   6.630   6.505  12.856  0.8108  0.3826  0.7003
19496TIP3    H179903   6.570   6.579  12.843  0.6170  0.2826  1.0342
19496TIP3    H279904   6.685   6.505  12.777 -0.9027 -0.7205 -0.5893
19497TIP3   OH279905   6.511   5.020   4.005  0.4964  0.6872 -0.2018
19497TIP3    H179906   6.575   4.950   4.019  0.4592  0.5406 -0.7340
19497TIP3    H279907   6.556   5.100   4.033  0.5222  0.4494  0.4544
19498TIP3   OH279908   6.575   1.934   0.938 -0.1221  0.5222 -0.0038
19498TIP3    H179909   6.510   1.891   0.995  0.1403  0.1415  0.0092
19498TIP3    H279910   6.555   2.027   0.946 -0.7058  0.4051 -0.0394
19499TIP3   OH279911   6.738   1.685   5.422  0.3789 -0.1477  0.3047
19499TIP3    H179912   6.751   1.780   5.417  0.6420 -0.1953  0.0874
19499TIP3    H279913   6.661   1.675   5.478 -0.0120  0.2201 -0.1552
19500TIP3   OH279914   0.792   3.536  13.382 -0.0058 -0.0348 -0.4630
19500TIP3    H179915   0.724   3.494  13.330  1.1090 -0.7717 -1.3641
19500TIP3    H279916   0.863   3.472  13.386  0.9296  0.9758 -0.1455
19501TIP3   OH279917   1.786   5.073   3.857  0.4102  0.0411  0.3311
19501TIP3    H179918   1.718   5.007   3.845  2.1954 -2.3306  2.2493
19501TIP3    H279919   1.757   5.125   3.932  0.4348 -0.6300  0.8149
19502TIP3   OH279920   2.762   0.775  15.389  0.4268 -0.6516 -0.2515
19502TIP3    H179921   2.850   0.815  15.387  0.3766 -0.2898  2.0302
19502TIP3    H279922   2.766   0.707  15.322  1.7558  0.7062 -1.6514
19503TIP3   OH279923   0.888   0.926  13.659 -0.5770  0.4767  0.6540
19503TIP3    H179924   0.797   0.904  13.643 -0.4674  0.8262 -0.5681
19503TIP3    H279925   0.938   0.865  13.604 -0.1908  2.0129 -0.7975
19504TIP3   OH279926   3.519   3.168  15.314 -0.4663  0.0715  0.0927
19504TIP3    H179927   3.537   3.226  15.240  1.8171 -0.6085  0.0360
19504TIP3    H279928   3.577   3.200  15.384 -1.2627 -0.4032  0.9852
19505TIP3   OH279929   3.980   5.553   5.882  0.1635 -0.2488  0.3699
19505TIP3    H179930   4.045   5.483   5.890  0.6856  0.1711 -0.1258
19505TIP3    H279931   3.971   5.566   5.787  0.7739  0.9988  0.4749
19506TIP3   OH279932   1.575   2.033   5.974 -0.2197 -0.0625 -0.2528
19506TIP3    H179933   1.561   2.109   6.031 -2.5182 -0.7644  0.2467
19506TIP3    H279934   1.583   2.070   5.886 -1.5773  0.7806 -0.0568
19507TIP3   OH279935   2.043   1.608  14.696  0.0837  0.3387 -0.0281
19507TIP3    H179936   2.018   1.691  14.654  2.0461  0.8007 -0.3546
19507TIP3    H279937   1.982   1.544  14.660  0.2383  1.1452 -1.8306
19508TIP3   OH279938   0.724   1.495  15.080 -0.1477  0.7253 -0.3992
19508TIP3    H179939   0.658   1.430  15.056 -1.2010  1.5929  0.0468
19508TIP3    H279940   0.783   1.499  15.005 -1.2735  0.7700 -1.3067
19509TIP3   OH279941   6.248   1.954  11.333  0.3624 -0.4726 -0.3220
19509TIP3    H179942   6.208   1.993  11.411  0.6655 -0.2873 -0.2527
19509TIP3    H279943   6.273   2.030  11.279  0.9498 -0.5651 -0.1917
19510TIP3   OH279944   0.209   5.155  14.249 -0.1978 -0.0885 -0.1069
19510TIP3    H179945   0.144   5.136  14.181 -0.1774 -0.7822  0.0594
19510TIP3    H279946   0.169   5.122  14.330  0.3555 -0.5166 -0.0055
19511TIP3   OH279947   5.238   5.430  11.518  0.6605 -0.5480 -0.2589
19511TIP3    H179948   5.207   5.491  11.585  0.3505  0.5048 -1.3263
19511TIP3    H279949   5.333   5.446  11.515  0.7799 -1.0833  0.3832
19512TIP3   OH279950   5.092   2.587  13.772 -0.4406 -0.7913  0.0852
19512TIP3    H179951   5.072   2.536  13.694 -0.1231 -0.3832 -0.2708
19512TIP3    H279952   5.184   2.568  13.791 -0.3707 -0.4863  0.0546
19513TIP3   OH279953   6.242   6.598  13.464 -0.5201  0.1462  0.1582
19513TIP3    H179954   6.222   6.685  13.499 -1.1445  1.1263 -2.4110
19513TIP3    H279955   6.157   6.559  13.444 -0.1953 -0.3460 -0.3103
19514TIP3   OH279956   1.244   5.408  13.704  0.2069 -0.2509  0.1636
19514TIP3    H179957   1.207   5.400  13.792 -1.1365 -0.6268 -0.4011
19514TIP3    H279958   1.291   5.326  13.690 -0.3674 -0.5914  0.1950
19515TIP3   OH279959   2.666   1.800   0.436  0.0636 -0.3616 -0.1973
19515TIP3    H179960   2.734   1.733   0.429 -0.6302 -0.9790 -1.3506
19515TIP3    H279961   2.688   1.864   0.369 -0.3252 -0.4242 -0.3895
19516TIP3   OH279962   2.849   6.129   1.167  0.2770  0.3221 -0.2385
19516TIP3    H179963   2.863   6.216   1.128  1.3723 -0.0863 -0.8307
19516TIP3    H279964   2.760   6.106   1.143  0.5444  0.5705 -1.5917
19517TIP3   OH279965   3.329   4.934   0.062 -0.0585  0.5058  0.0222
19517TIP3    H179966   3.403   4.977   0.018  0.3929  0.6238  0.8689
19517TIP3    H279967   3.320   4.850   0.018  1.8623 -0.3570  1.1499
19518TIP3   OH279968   2.543   0.554   3.137  0.1897  0.1120  0.8716
19518TIP3    H179969   2.631   0.523   3.157  0.5929  0.8676  0.3411
19518TIP3    H279970   2.547   0.580   3.045 -0.9138 -0.9345  0.4966
19519TIP3   OH279971   5.197   1.485   2.632 -0.0318 -0.0840  0.1196
19519TIP3    H179972   5.226   1.562   2.682 -0.3108  0.2008 -0.1547
19519TIP3    H279973   5.168   1.423   2.699 -0.6832  0.4065  0.3051
19520TIP3   OH279974   5.666   1.772  11.207 -0.1901  0.0296 -0.7061
19520TIP3    H179975   5.673   1.705  11.139 -0.1601  0.6725 -1.3541
19520TIP3    H279976   5.726   1.743  11.276 -1.5723 -1.5658 -0.1240
19521TIP3   OH279977   6.238   3.031   0.171 -0.2158 -0.1454  0.3345
19521TIP3    H179978   6.208   3.115   0.135 -2.0315 -0.4490  1.0523
19521TIP3    H279979   6.278   3.055   0.254  2.1976  0.3230 -0.8613
19522TIP3   OH279980   4.099   0.986   1.661  0.0173  0.0825 -0.4262
19522TIP3    H179981   4.080   0.924   1.590  1.0908 -0.3005 -0.4016
19522TIP3    H279982   4.133   1.064   1.617 -1.5382  0.7565 -0.4707
19523TIP3   OH279983   2.586   2.096   0.397 -0.1893  0.5992  0.3451
19523TIP3    H179984   2.599   2.139   0.313 -0.7471 -0.9273 -0.5699
19523TIP3    H279985   2.633   2.150   0.460 -0.0459  1.9577 -0.8908
19524TIP3   OH279986   3.896   4.933  12.897 -0.1121 -0.6631  0.3569
19524TIP3    H179987   3.923   4.908  12.808  1.2978  1.9731 -0.0566
19524TIP3    H279988   3.846   5.013  12.885 -0.1329 -0.4112  1.9428
19525TIP3   OH279989   2.302   0.940   4.009  0.6542  0.1870 -0.1772
19525TIP3    H179990   2.218   0.918   4.051  1.5387 -1.3719  0.9003
19525TIP3    H279991   2.289   1.028   3.974 -1.3096  0.1372  0.2891
19526TIP3   OH279992   0.194   4.600   0.008 -0.1322  0.0047  0.2433
19526TIP3    H179993   0.215   4.692   0.019  0.7857 -0.2415  0.6880
19526TIP3    H279994   0.238   4.575  -0.074  0.7896 -0.3479  0.8226
19527TIP3   OH279995   5.980   0.519   2.953 -0.3599  0.4663 -0.0180
19527TIP3    H179996   5.971   0.543   2.861  1.3517  3.2446  0.4480
19527TIP3    H279997   6.049   0.452   2.954  1.4415  2.2312 -0.5882
19528TIP3   OH279998   1.358   0.031   6.829  0.2700 -0.2611  0.2687
19528TIP3    H179999   1.408  -0.049   6.840  0.5850 -0.1994 -0.6160
19528TIP3    H280000   1.269   0.008   6.856  0.3292 -0.9534 -0.1085
19529TIP3   OH280001   6.695   0.060   6.085  0.2099 -1.0100  0.2999
19529TIP3    H180002   6.652   0.050   6.000 -0.7271  0.8197  0.5110
19529TIP3    H280003   6.731  -0.027   6.104  2.2711 -1.0459 -2.8880
19530TIP3   OH280004   3.538   4.242  14.483 -0.6403  0.3621 -0.3234
19530TIP3    H180005   3.586   4.320  14.452  0.6397 -0.4015 -0.3662
19530TIP3    H280006   3.462   4.277  14.529  1.1287  1.7459  1.7407
19531TIP3   OH280007   1.613   1.653  11.319  0.3226 -0.6041  0.0698
19531TIP3    H180008   1.634   1.599  11.243  1.2190  0.1153 -0.2142
19531TIP3    H280009   1.698   1.667  11.362  0.3609  1.7305 -0.6595
19532TIP3   OH280010   1.559   3.340   0.973  0.1585  0.0376  0.8810
19532TIP3    H180011   1.531   3.314   0.885  0.1429  1.4837  0.4391
19532TIP3    H280012   1.600   3.261   1.009 -0.8565 -0.9136  0.0211
19533TIP3   OH280013   5.843   0.655  13.360 -0.4958 -0.3276 -0.1681
19533TIP3    H180014   5.790   0.583  13.326  0.9104 -1.1402 -0.7140
19533TIP3    H280015   5.905   0.614  13.420  0.4988  0.3686 -0.6765
19534TIP3   OH280016   5.001   2.542   2.050 -0.4585 -0.1423  0.6992
19534TIP3    H180017   5.022   2.617   2.106  1.0657 -0.0146  0.0034
19534TIP3    H280018   4.979   2.581   1.965 -0.1335 -0.4499  0.4694
19535TIP3   OH280019   6.757   0.582  14.991 -0.4095  0.8257 -0.1138
19535TIP3    H180020   6.702   0.661  14.988  1.0421  1.8555 -0.4104
19535TIP3    H280021   6.845   0.613  14.970 -0.1690 -1.2405 -2.6555
19536TIP3   OH280022   2.509   2.511   6.764 -0.4373 -0.3447 -0.2377
19536TIP3    H180023   2.488   2.417   6.760 -0.4494 -0.3194 -0.7921
19536TIP3    H280024   2.480   2.546   6.680 -1.3785  0.3552  0.3633
19537TIP3   OH280025   2.872   2.527  16.687  0.1868  0.6448  0.1055
19537TIP3    H180026   2.851   2.508  16.778 -0.6657 -0.6189 -0.3336
19537TIP3    H280027   2.874   2.623  16.683 -2.0057  0.7911  0.9935
19538TIP3   OH280028   6.397   1.110  16.433 -0.6946 -0.4200 -0.3108
19538TIP3    H180029   6.315   1.119  16.384 -0.2824  0.7515 -0.8238
19538TIP3    H280030   6.465   1.107  16.366 -0.1363  0.9931  0.1371
19539TIP3   OH280031   1.688   4.521   4.135  0.7239  0.5255 -0.8133
19539TIP3    H180032   1.700   4.597   4.077 -2.3382  1.6998 -0.1156
19539TIP3    H280033   1.617   4.471   4.094  0.1837  0.0563  0.6404
19540TIP3   OH280034   2.894   1.830   1.848  0.8080 -0.2528 -0.0026
19540TIP3    H180035   2.945   1.749   1.847  0.1013 -0.7138  0.0994
19540TIP3    H280036   2.861   1.836   1.938  1.3586  0.4731  0.1518
19541TIP3   OH280037   3.550   3.978   2.240  0.2881  0.4878  0.1325
19541TIP3    H180038   3.534   3.935   2.156 -0.6072  1.5540 -0.2703
19541TIP3    H280039   3.577   4.067   2.217 -2.9998  1.8620  0.9012
19542TIP3   OH280040   5.329   0.379  17.073 -0.5240 -0.3288  0.7126
19542TIP3    H180041   5.272   0.374  16.996 -1.7746  4.2925  1.0736
19542TIP3    H280042   5.417   0.379  17.037 -0.8271 -2.7067 -0.2357
19543TIP3   OH280043   1.192   1.726   0.948  0.4037  0.4653  0.1604
19543TIP3    H180044   1.222   1.788   0.882  0.1119 -0.4277 -0.8243
19543TIP3    H280045   1.113   1.765   0.984 -1.2338 -0.4525 -2.2308
19544TIP3   OH280046   4.706   2.545   3.161  0.0865 -0.3471  0.0294
19544TIP3    H180047   4.762   2.500   3.224  0.0901  0.0342  0.3005
19544TIP3    H280048   4.699   2.635   3.194  1.5308  0.3564 -1.4116
19545TIP3   OH280049   0.951   2.410  14.308  0.2259  0.4066 -0.1993
19545TIP3    H180050   0.859   2.425  14.329  0.5045 -0.4257  1.8572
19545TIP3    H280051   0.950   2.330  14.255 -0.0851 -1.7928  2.8494
19546TIP3   OH280052   0.338   0.214   1.020  0.2629  0.3649 -0.2814
19546TIP3    H180053   0.337   0.154   0.946  1.1442  0.0023 -0.0145
19546TIP3    H280054   0.373   0.296   0.985  2.2427 -0.2821  0.0435
19547TIP3   OH280055   3.426   1.029   0.889 -0.2113 -0.2070  0.1325
19547TIP3    H180056   3.405   1.029   0.796  1.4556  0.3648 -0.2700
19547TIP3    H280057   3.481   1.106   0.902  0.2256 -0.7045  1.4477
19548TIP3   OH280058   2.362   3.871   3.184  0.8929 -0.1046  0.3445
19548TIP3    H180059   2.377   3.816   3.108 -0.1825  0.7785 -0.5468
19548TIP3    H280060   2.327   3.953   3.149 -0.8365 -0.1143  1.8222
19549TIP3   OH280061   2.060   5.833   1.090  0.4707  0.1088  0.0988
19549TIP3    H180062   2.019   5.860   1.172 -0.2764 -0.3169 -0.1265
19549TIP3    H280063   2.134   5.893   1.079 -0.1937  1.0090  0.4298
19550TIP3   OH280064   4.160   0.321  15.199 -0.3167  0.5210 -0.4367
19550TIP3    H180065   4.086   0.335  15.141 -1.0660  1.5681  0.7291
19550TIP3    H280066   4.141   0.239  15.244 -0.1202  0.1245 -1.0579
19551TIP3   OH280067   6.664   1.607   2.334 -0.4733  0.2369  0.2472
19551TIP3    H180068   6.643   1.521   2.371  0.5287 -0.0104  0.2626
19551TIP3    H280069   6.751   1.628   2.368 -0.1259  0.6451 -0.8267
19552TIP3   OH280070   5.516   0.403   6.624 -0.0821 -0.0843  0.1076
19552TIP3    H180071   5.433   0.374   6.584  0.0567 -0.5654  0.1589
19552TIP3    H280072   5.582   0.343   6.588  0.3224  0.6033 -0.3069
19553TIP3   OH280073   2.734   3.137  12.641 -0.6243  0.2698  0.1430
19553TIP3    H180074   2.718   3.171  12.554 -1.1140 -0.0796  0.0921
19553TIP3    H280075   2.757   3.045  12.627 -2.1623 -0.2011  0.4643
19554TIP3   OH280076   0.752   0.675   2.739  0.3803 -0.4186  0.2326
19554TIP3    H180077   0.730   0.729   2.815  0.4692 -0.1954  0.0986
19554TIP3    H280078   0.735   0.731   2.663 -0.1824 -0.8065  0.0661
19555TIP3   OH280079   1.518   2.321  16.323  0.1679 -0.3822  0.0771
19555TIP3    H180080   1.579   2.273  16.267  1.5554  0.7087  0.5865
19555TIP3    H280081   1.562   2.326  16.408 -0.1386  1.3346  0.1818
19556TIP3   OH280082   3.681   4.370  16.350  0.1946  0.3207  0.2404
19556TIP3    H180083   3.599   4.371  16.399 -0.8350 -2.2246 -1.2104
19556TIP3    H280084   3.657   4.396  16.261  1.1262  0.3889 -0.0034
19557TIP3   OH280085   6.038   4.808  12.940  0.1525 -0.0877  0.5841
19557TIP3    H180086   6.047   4.806  13.036  0.3626  1.1330  0.6059
19557TIP3    H280087   6.005   4.721  12.918  2.2533 -1.2024  1.5341
19558TIP3   OH280088   1.338   4.903  15.174 -0.2213  0.3271  0.1793
19558TIP3    H180089   1.392   4.925  15.098 -0.6415  0.5498 -0.0564
19558TIP3    H280090   1.297   4.986  15.200 -0.5099  0.1445  0.3097
19559TIP3   OH280091   5.858   4.777  13.244  0.2411 -0.0549  0.0381
19559TIP3    H180092   5.783   4.769  13.303 -0.1651  1.9162 -0.1194
19559TIP3    H280093   5.877   4.688  13.215 -0.8171 -0.8113  1.5786
19560TIP3   OH280094   0.483   2.465   3.915  0.7729 -0.0292  0.1017
19560TIP3    H180095   0.401   2.511   3.897  1.1127  0.3702 -0.4398
19560TIP3    H280096   0.475   2.440   4.007 -0.0765 -0.2488 -0.0197
19561TIP3   OH280097   5.613   6.347  17.051  0.2352  0.3888 -0.5640
19561TIP3    H180098   5.529   6.349  17.006  0.6102 -0.1461 -1.3145
19561TIP3    H280099   5.673   6.391  16.991  0.3405  1.4870  0.3210
19562TIP3   OH280100   6.748   5.461   2.163  0.8717  0.6022 -0.0674
19562TIP3    H180101   6.658   5.486   2.186  0.5117 -1.0896  0.5126
19562TIP3    H280102   6.761   5.496   2.075  0.6528  3.2540  0.8582
19563TIP3   OH280103   2.640   0.993  14.517 -0.6725 -0.3237  0.1608
19563TIP3    H180104   2.621   1.077  14.558 -1.3292 -0.8205  0.9318
19563TIP3    H280105   2.685   1.014  14.436 -1.0847  0.7772  0.2070
19564TIP3   OH280106   6.520   4.490  15.476  0.0838 -0.0937  0.1107
19564TIP3    H180107   6.486   4.401  15.480  0.6988 -0.2964  1.3079
19564TIP3    H280108   6.590   4.492  15.542  0.0558  1.2802  0.1344
19565TIP3   OH280109   5.341   5.862  11.577 -0.1318 -0.1668  0.0702
19565TIP3    H180110   5.360   5.946  11.536  0.7718 -0.7757 -0.8080
19565TIP3    H280111   5.274   5.823  11.522 -2.1162  0.8175  1.6457
19566TIP3   OH280112   2.376   2.242   0.980  0.1419  0.0931  0.1441
19566TIP3    H180113   2.351   2.161   0.936  2.1259 -0.4675 -0.0703
19566TIP3    H280114   2.295   2.275   1.018 -0.7460 -1.9574  0.1830
19567TIP3   OH280115   6.300   4.497   5.326 -0.4761 -0.0878 -0.0324
19567TIP3    H180116   6.267   4.423   5.376 -0.8019 -0.4399 -0.7564
19567TIP3    H280117   6.305   4.569   5.390  0.1674 -0.8119  0.7509
19568TIP3   OH280118   6.444   4.377  14.737 -0.2797 -0.2778 -0.2359
19568TIP3    H180119   6.429   4.310  14.803 -0.6176  0.6055  0.6061
19568TIP3    H280120   6.357   4.401  14.707 -0.5280  2.3457  2.1217
19569TIP3   OH280121   1.978   3.068   0.989  0.9605 -0.4159  0.2488
19569TIP3    H180122   1.890   3.031   0.982  1.4690 -1.3737 -1.5402
19569TIP3    H280123   1.975   3.147   0.936  0.7041  0.5824  1.6884
19570TIP3   OH280124   1.979   0.002  14.618 -0.0897 -0.0696  0.9445
19570TIP3    H180125   1.893   0.045  14.622 -0.8923 -1.5882  0.8785
19570TIP3    H280126   2.026   0.050  14.549 -1.0119  0.5730  0.7364
19571TIP3   OH280127   5.618   6.297  17.314 -0.1958 -0.2251  0.1096
19571TIP3    H180128   5.624   6.288  17.219 -1.8877 -2.4639  0.1354
19571TIP3    H280129   5.680   6.232  17.349  1.6833  1.7194  0.6444
19572TIP3   OH280130   0.067   2.632   3.655 -0.3222  0.1614  0.0907
19572TIP3    H180131  -0.006   2.688   3.680  0.0864  0.4138  0.7587
19572TIP3    H280132   0.034   2.543   3.663  0.0985  0.1595  2.7212
19573TIP3   OH280133   4.186   5.877  14.635 -0.1360 -0.0804 -0.1945
19573TIP3    H180134   4.096   5.893  14.661 -0.4385 -1.7247 -0.1409
19573TIP3    H280135   4.237   5.892  14.716 -0.5169 -0.5189  0.1263
19574TIP3   OH280136   2.337   4.985   5.190 -0.2289  0.4111  0.1388
19574TIP3    H180137   2.335   4.982   5.286  0.3702 -1.5471  0.1492
19574TIP3    H280138   2.352   5.077   5.169 -1.8004  1.1231  1.8681
19575TIP3   OH280139   6.253   3.745   3.219 -0.3155  0.6514 -0.3834
19575TIP3    H180140   6.280   3.791   3.140  0.8346 -1.7502 -1.4929
19575TIP3    H280141   6.335   3.716   3.259 -0.9721 -1.2079 -0.2816
19576TIP3   OH280142   1.220   4.008   1.307  0.6611 -0.6988  0.2579
19576TIP3    H180143   1.129   4.038   1.312  0.6559 -0.1022 -2.0982
19576TIP3    H280144   1.267   4.083   1.270  1.3807 -2.2268 -2.1329
19577TIP3   OH280145   3.814   5.702  15.378 -0.3440 -0.3286  0.0700
19577TIP3    H180146   3.889   5.659  15.335  0.5714  0.0945  1.2090
19577TIP3    H280147   3.739   5.648  15.353  0.4133 -1.0901 -0.6473
19578TIP3   OH280148   4.796   1.135   3.266 -0.0068  0.0803 -1.0967
19578TIP3    H180149   4.719   1.139   3.323  1.8151 -2.8249  1.9200
19578TIP3    H280150   4.764   1.096   3.185 -1.8601 -0.1555 -0.2979
19579TIP3   OH280151   6.597   0.626   2.490 -0.3907 -0.2126 -0.0338
19579TIP3    H180152   6.620   0.718   2.479  0.2903 -0.3851 -0.0731
19579TIP3    H280153   6.512   0.617   2.446  0.6698 -0.1440 -2.1749
19580TIP3   OH280154   5.094   2.068  17.036  0.4319 -0.0778  1.1709
19580TIP3    H180155   5.042   2.138  16.997  1.3898 -0.3509 -0.6918
19580TIP3    H280156   5.183   2.082  17.003  0.4923 -2.6745 -0.0307
19581TIP3   OH280157   4.306   5.187   5.830 -0.1327  0.1553 -0.5753
19581TIP3    H180158   4.286   5.137   5.909 -0.5510  1.5092  0.2083
19581TIP3    H280159   4.402   5.188   5.826  0.0319  2.1976  1.4041
19582TIP3   OH280160   1.970   2.547  11.796  0.3600 -0.6140 -0.4738
19582TIP3    H180161   1.942   2.459  11.771  1.2535 -0.9965 -0.1697
19582TIP3    H280162   1.945   2.555  11.888 -1.6154  0.2533 -1.0357
19583TIP3   OH280163   4.909   4.412  16.787 -0.1988  0.6501 -0.4728
19583TIP3    H180164   4.896   4.339  16.848 -2.3582  1.1161 -0.2694
19583TIP3    H280165   4.976   4.466  16.828  0.0410 -0.2416  0.3410
19584TIP3   OH280166   0.318   5.162   5.912  0.1334 -0.2300  0.0377
19584TIP3    H180167   0.305   5.070   5.891 -1.0567 -0.4835  1.6915
19584TIP3    H280168   0.317   5.166   6.007 -0.8802  1.6003  0.0110
19585TIP3   OH280169   6.307   3.819   4.354  0.3229 -1.2396 -0.5193
19585TIP3    H180170   6.337   3.757   4.288 -0.0948 -2.0614  0.0563
19585TIP3    H280171   6.372   3.814   4.423  1.0975  0.0800 -1.1188
19586TIP3   OH280172   4.913   6.504  12.393  0.3633 -0.5056  0.3410
19586TIP3    H180173   4.976   6.433  12.408  0.2239 -0.8922 -0.8374
19586TIP3    H280174   4.832   6.474  12.435  0.9645  0.0730  2.0327
19587TIP3   OH280175   2.119   1.340  13.279  0.8464 -0.0262  0.0947
19587TIP3    H180176   2.096   1.318  13.189  0.4311  0.0613  0.1774
19587TIP3    H280177   2.130   1.435  13.279 -0.9546  0.2216  0.5169
19588TIP3   OH280178   6.755   3.583   1.709  0.0067  0.3697 -0.5498
19588TIP3    H180179   6.797   3.516   1.762 -0.3310  0.0813 -0.6395
19588TIP3    H280180   6.662   3.561   1.712 -0.1526  1.0607 -0.2658
19589TIP3   OH280181   1.638   3.868   2.630 -0.4936  0.3655 -0.3142
19589TIP3    H180182   1.702   3.826   2.687 -0.9755 -0.4528 -0.3652
19589TIP3    H280183   1.690   3.922   2.571  0.0386  0.9079  0.6281
19590TIP3   OH280184   4.867   3.191   3.889  0.0683 -0.2229 -0.3413
19590TIP3    H180185   4.908   3.225   3.809 -1.4769 -1.2598 -1.6417
19590TIP3    H280186   4.938   3.188   3.953  1.1449  1.5500 -1.3657
19591TIP3   OH280187   6.685   0.047  16.481 -0.0735  0.1356 -0.4723
19591TIP3    H180188   6.632   0.077  16.555 -0.1765 -1.3504  0.0955
19591TIP3    H280189   6.686  -0.049  16.489 -0.5742 -0.1182 -2.7410
19592TIP3   OH280190   3.617   6.173   6.618 -0.0963  0.5433 -0.2666
19592TIP3    H180191   3.585   6.111   6.684 -2.1585  2.2236  0.4306
19592TIP3    H280192   3.595   6.132   6.534  0.2947 -0.4941  0.1209
19593TIP3   OH280193   3.402   5.989  15.205  0.0684  0.0021  0.2842
19593TIP3    H180194   3.439   6.034  15.280 -0.0717 -0.0374  0.3767
19593TIP3    H280195   3.477   5.964  15.152  0.0904  1.9581 -0.7024
19594TIP3   OH280196   1.384   5.735   3.905 -0.0505 -0.6889  0.3650
19594TIP3    H180197   1.363   5.828   3.914 -0.8727 -0.8666  0.3315
19594TIP3    H280198   1.446   5.718   3.976  1.0618  0.1531 -0.3620
19595TIP3   OH280199   5.937   1.399   4.439 -0.5949 -0.0143  0.2287
19595TIP3    H180200   5.999   1.453   4.390 -1.1997 -0.0716 -0.6187
19595TIP3    H280201   5.975   1.392   4.526  1.5877 -1.6451 -0.7501
19596TIP3   OH280202   5.102   5.373  12.274  0.7511 -0.0094 -0.0061
19596TIP3    H180203   5.081   5.352  12.184  0.9321  4.8450 -1.4759
19596TIP3    H280204   5.024   5.419  12.307  1.9098  1.2564  1.0899
19597TIP3   OH280205   6.174   0.330   5.563 -0.2477  0.3463 -0.5241
19597TIP3    H180206   6.089   0.290   5.581  0.0743  0.3685  1.2294
19597TIP3    H280207   6.216   0.270   5.500  0.0634 -1.9831  1.7296
19598TIP3   OH280208   4.095   2.847  10.955  0.2204 -0.4674 -0.0580
19598TIP3    H180209   4.187   2.819  10.953  0.4279 -0.3006  2.7116
19598TIP3    H280210   4.046   2.768  10.978 -0.1964 -0.3106 -0.3926
19599TIP3   OH280211   5.083   5.008   4.979 -0.1491  0.9026 -0.5272
19599TIP3    H180212   5.121   5.034   4.895  3.2700 -0.6773  0.3808
19599TIP3    H280213   5.060   4.916   4.967 -0.8295  1.0107 -0.0812
19600TIP3   OH280214   0.959   5.657  13.328  0.5139 -0.4803 -0.0205
19600TIP3    H180215   0.950   5.564  13.352  0.4347 -0.5920 -0.4883
19600TIP3    H280216   0.936   5.704  13.409 -0.8439 -0.8397 -0.1733
19601TIP3   OH280217   4.421   4.969   1.189 -0.3578 -0.2482 -0.1679
19601TIP3    H180218   4.375   5.048   1.217 -0.6118 -0.5591  0.3126
19601TIP3    H280219   4.408   4.965   1.094 -0.5259  0.1670 -0.1614
19602TIP3   OH280220   3.237   5.918   3.525  0.1825 -0.2118  0.0318
19602TIP3    H180221   3.304   5.922   3.593  1.2713 -1.2241 -0.9258
19602TIP3    H280222   3.172   5.857   3.559 -0.5473  1.1483  1.1814
19603TIP3   OH280223   4.238   0.249  13.644 -0.1404  0.7557  0.0530
19603TIP3    H180224   4.254   0.338  13.611 -1.3624  0.3699 -1.7567
19603TIP3    H280225   4.260   0.253  13.737  1.9285  2.3843 -0.4112
19604TIP3   OH280226   2.460   0.789   4.388 -0.0209  0.8136  0.2775
19604TIP3    H180227   2.485   0.785   4.295  0.8916  1.0773  0.4944
19604TIP3    H280228   2.444   0.882   4.404 -0.2785  0.7547  0.3555
19605TIP3   OH280229   2.007   2.538  15.782 -0.2922 -0.2151 -0.6028
19605TIP3    H180230   1.997   2.625  15.743 -0.1944 -0.1259 -0.4303
19605TIP3    H280231   2.101   2.522  15.780 -0.0297  0.6539  1.4262
19606TIP3   OH280232   6.433   2.188  15.744  0.9201 -0.2721  0.1737
19606TIP3    H180233   6.342   2.183  15.773  1.0034  0.8738  0.6718
19606TIP3    H280234   6.483   2.143  15.813  0.8387  0.0719  0.4593
19607TIP3   OH280235   0.250   1.433  11.245 -0.6876  0.2820 -0.3558
19607TIP3    H180236   0.207   1.446  11.161 -2.1546 -0.0658  0.3157
19607TIP3    H280237   0.219   1.348  11.276 -1.5843  1.1645  1.3295
19608TIP3   OH280238   3.843   0.171  17.292 -0.0976  0.3716  0.2394
19608TIP3    H180239   3.864   0.200  17.203  1.7633  0.7160  0.7497
19608TIP3    H280240   3.896   0.227  17.349 -0.5183 -0.4856  1.5266
19609TIP3   OH280241   4.533   3.600  16.941 -0.1299 -0.1906  0.0768
19609TIP3    H180242   4.502   3.678  16.894 -0.4160 -1.0864 -1.2730
19609TIP3    H280243   4.626   3.594  16.918  0.2868  0.5773  1.4090
19610TIP3   OH280244   3.640   5.534  16.366  0.5849  0.4852  0.1476
19610TIP3    H180245   3.648   5.532  16.462 -2.8892  0.2828  0.5712
19610TIP3    H280246   3.669   5.448  16.337  0.3194  0.0127  1.2240
19611TIP3   OH280247   3.867   3.289   1.626 -0.0763 -0.3499  0.0252
19611TIP3    H180248   3.956   3.299   1.593  0.3441  1.3403  1.5004
19611TIP3    H280249   3.821   3.241   1.557  1.6536 -0.1834 -1.3143
19612TIP3   OH280250   0.512   6.298  12.731  0.3545 -0.3487  0.2065
19612TIP3    H180251   0.519   6.291  12.826 -0.1317  0.0022  0.2699
19612TIP3    H280252   0.602   6.313  12.701  0.3539  0.7060  0.7074
19613TIP3   OH280253   6.719   0.579   1.877  0.2819 -0.4071 -0.7238
19613TIP3    H180254   6.784   0.646   1.853  1.2146 -0.6132  1.1037
19613TIP3    H280255   6.703   0.593   1.970 -1.1623 -1.3620 -0.7975
19614TIP3   OH280256   5.714   3.634   0.885 -0.3416 -0.5360  0.0955
19614TIP3    H180257   5.684   3.706   0.830 -1.0405 -1.3997 -0.6943
19614TIP3    H280258   5.806   3.624   0.862  0.4889  1.7228  2.0725
19615TIP3   OH280259   0.676   2.638  12.541  0.4065 -0.5327  0.1107
19615TIP3    H180260   0.647   2.574  12.476 -0.2852 -0.2475  0.1266
19615TIP3    H280261   0.653   2.723  12.503 -0.8743 -0.3947  1.1317
19616TIP3   OH280262   3.794   1.185  13.476  0.1912  0.3093  0.0784
19616TIP3    H180263   3.824   1.270  13.443  1.1384  0.2766  0.8012
19616TIP3    H280264   3.703   1.180  13.449  0.0326  1.6867  0.2660
19617TIP3   OH280265   3.260   2.790  15.271  0.1699  0.0797  0.3238
19617TIP3    H180266   3.225   2.879  15.279 -1.2110 -0.3187 -0.7929
19617TIP3    H280267   3.218   2.742  15.342 -0.4698 -0.0686 -0.1451
19618TIP3   OH280268   6.160   5.291  15.646  0.3492 -0.1546  0.1042
19618TIP3    H180269   6.228   5.354  15.670 -0.4340  0.8878 -0.3402
19618TIP3    H280270   6.110   5.279  15.727 -0.5856  1.1966 -0.2455
19619TIP3   OH280271   1.899   3.692   0.195 -0.6253  0.3592  0.7624
19619TIP3    H180272   1.919   3.778   0.158 -0.1347 -0.0340  0.0805
19619TIP3    H280273   1.807   3.676   0.173 -0.5885  0.5179  0.4907
19620TIP3   OH280274   3.091   6.596  15.373 -0.4737  0.1487  0.4613
19620TIP3    H180275   3.025   6.610  15.441 -0.5787 -0.3753  0.4644
19620TIP3    H280276   3.174   6.606  15.419 -0.5307  1.6035  0.3044
19621TIP3   OH280277   0.849   4.604   4.041 -0.1637 -0.1158 -0.4839
19621TIP3    H180278   0.888   4.576   4.124 -2.0301  3.0556  1.6787
19621TIP3    H280279   0.920   4.649   3.996  0.5164 -0.6928 -0.0291
19622TIP3   OH280280   0.365   6.409   2.261 -0.3835 -0.1448  0.0088
19622TIP3    H180281   0.322   6.485   2.222  0.1492  0.8738  1.3457
19622TIP3    H280282   0.439   6.445   2.309  0.2971 -1.5888  0.0973
19623TIP3   OH280283   4.587   1.342   0.984 -0.0462  0.5055  0.1166
19623TIP3    H180284   4.575   1.393   0.904  2.2778 -0.2904 -0.8187
19623TIP3    H280285   4.653   1.277   0.961 -1.1452 -1.3750  1.9860
19624TIP3   OH280286   6.588   2.743  15.607 -0.2830 -0.0374  0.1980
19624TIP3    H180287   6.674   2.727  15.569 -0.4906 -0.0875 -0.2571
19624TIP3    H280288   6.554   2.655  15.626 -0.7839 -0.0835 -0.8679
19625TIP3   OH280289   0.281   1.002   4.071 -0.6851 -0.4235 -0.1671
19625TIP3    H180290   0.277   0.914   4.033  0.6961  0.1901 -1.8763
19625TIP3    H280291   0.190   1.022   4.093 -0.9029 -2.6851  1.3622
19626TIP3   OH280292   5.409   2.653  16.765 -0.4302 -0.3299 -0.2768
19626TIP3    H180293   5.337   2.679  16.707  0.5757 -2.4451 -2.7080
19626TIP3    H280294   5.460   2.591  16.712  2.7315  0.4601  1.6204
19627TIP3   OH280295   5.307   6.279   6.396 -0.0754  0.4567  0.3581
19627TIP3    H180296   5.331   6.189   6.417  2.0991  0.9257  0.1573
19627TIP3    H280297   5.242   6.272   6.326 -0.0261 -0.9443  0.4369
19628TIP3   OH280298   5.728   1.601   4.855  0.4777  0.0562 -0.1482
19628TIP3    H180299   5.680   1.523   4.829  0.6012 -0.2709  0.5766
19628TIP3    H280300   5.660   1.661   4.888  0.7141 -2.2908  5.8618
19629TIP3   OH280301   4.055   4.874  15.146 -0.3509  0.2268  0.6055
19629TIP3    H180302   4.131   4.925  15.171 -0.0900 -0.0981  0.4834
19629TIP3    H280303   4.003   4.866  15.226  1.4542 -2.5292  1.6160
19630TIP3   OH280304   4.528   4.692  17.244  0.5122  0.6719  0.1110
19630TIP3    H180305   4.451   4.739  17.277  1.5229  2.5010  0.0467
19630TIP3    H280306   4.550   4.737  17.162  1.4630 -0.0272 -0.0354
19631TIP3   OH280307   1.023   2.429   1.196 -0.1151 -0.6701 -0.0002
19631TIP3    H180308   1.018   2.513   1.242 -0.0489 -0.3423 -0.5843
19631TIP3    H280309   1.048   2.366   1.263 -0.3031 -0.2467  0.4731
19632TIP3   OH280310   1.268   4.793   4.188  0.1907  0.3215 -0.2369
19632TIP3    H180311   1.315   4.763   4.266  0.6037  1.2886 -0.0956
19632TIP3    H280312   1.191   4.838   4.224 -0.4980 -0.6650 -0.4463
19633TIP3   OH280313   4.759   2.788   2.179 -0.0288  0.0612 -0.3967
19633TIP3    H180314   4.748   2.878   2.208 -1.2618 -0.0904 -0.3472
19633TIP3    H280315   4.850   2.783   2.150  0.0838  1.2863 -0.2934
19634TIP3   OH280316   3.747   0.777  13.531 -0.0008  0.0796  0.3681
19634TIP3    H180317   3.661   0.812  13.554 -1.0523 -1.4252 -1.1035
19634TIP3    H280318   3.748   0.776  13.436  1.3521 -0.6552  0.3671
19635TIP3   OH280319   5.383   2.592  11.577 -0.8192 -0.2061  0.1822
19635TIP3    H180320   5.412   2.637  11.498 -1.9671 -1.7786 -1.2048
19635TIP3    H280321   5.359   2.663  11.637  0.5332  1.0310 -0.6812
19636TIP3   OH280322   4.806   3.379  14.318  0.5653 -0.2777 -0.6841
19636TIP3    H180323   4.899   3.370  14.337  0.2943  1.5637  2.0603
19636TIP3    H280324   4.795   3.337  14.232  4.3209  1.5962 -2.3242
19637TIP3   OH280325   3.842   3.458   0.750 -0.2718 -0.6881 -0.4750
19637TIP3    H180326   3.830   3.377   0.701  0.8879 -1.4142  0.3803
19637TIP3    H280327   3.932   3.453   0.783 -0.5555  0.4173  0.5435
19638TIP3   OH280328   3.881   3.331   5.358 -0.2958 -0.1567  0.1145
19638TIP3    H180329   3.947   3.327   5.289 -0.7526 -1.2746 -0.2931
19638TIP3    H280330   3.929   3.311   5.439 -0.1072 -0.8410 -0.1626
19639TIP3   OH280331   3.948   4.629  11.117 -0.0443  0.4906 -0.2525
19639TIP3    H180332   3.897   4.549  11.128  0.7297 -0.1051 -0.8192
19639TIP3    H280333   3.920   4.686  11.188 -0.2118 -0.5002  0.4939
19640TIP3   OH280334   1.994   6.735   0.536 -0.5409  0.2119 -0.1195
19640TIP3    H180335   2.047   6.801   0.581 -0.2387  0.3719 -0.7039
19640TIP3    H280336   1.910   6.777   0.521 -0.4393  0.3669 -0.2504
19641TIP3   OH280337   4.563   1.124  15.482  0.1805 -0.2263  0.4944
19641TIP3    H180338   4.609   1.057  15.431 -0.9178 -1.0020  0.5025
19641TIP3    H280339   4.628   1.155  15.545  1.1858 -0.1294 -0.5519
19642TIP3   OH280340   5.320   1.173   4.949  0.3791  0.8001 -0.3891
19642TIP3    H180341   5.379   1.158   5.023 -0.5900 -1.2618  0.0185
19642TIP3    H280342   5.340   1.103   4.888 -1.1895  0.4437 -0.5322
19643TIP3   OH280343   5.329   1.940   0.504 -0.0814  0.2645  0.1287
19643TIP3    H180344   5.280   1.921   0.423 -0.6209 -0.7812  0.6812
19643TIP3    H280345   5.418   1.911   0.485 -0.6413 -1.9294  0.5615
19644TIP3   OH280346   4.865   5.805  12.219  0.0545  0.3882  0.0712
19644TIP3    H180347   4.801   5.759  12.274 -0.5082  0.8786 -0.1649
19644TIP3    H280348   4.896   5.738  12.158 -0.1475  0.1177  0.2609
19645TIP3   OH280349   5.562   2.644  14.199  0.2726 -0.4088 -0.4103
19645TIP3    H180350   5.639   2.590  14.182  1.5391  1.5664 -1.2403
19645TIP3    H280351   5.562   2.709  14.128 -0.9943  0.8996  0.7308
19646TIP3   OH280352   0.343   4.503  13.257 -0.6447 -0.1937 -0.2434
19646TIP3    H180353   0.248   4.494  13.255 -0.7847  0.3935  1.4778
19646TIP3    H280354   0.358   4.598  13.258 -0.0836 -0.2795  0.0066
19647TIP3   OH280355   4.506   1.529  16.747  0.1901 -0.5252 -0.1364
19647TIP3    H180356   4.421   1.484  16.751  1.1301 -2.4243 -0.3445
19647TIP3    H280357   4.499   1.586  16.670 -1.4624  0.6644  0.8241
19648TIP3   OH280358   3.777   4.446   1.507 -0.7372  0.3560 -0.5886
19648TIP3    H180359   3.767   4.490   1.422 -1.8160  0.8612 -0.2148
19648TIP3    H280360   3.704   4.384   1.511 -0.2990 -0.1516 -0.3099
19649TIP3   OH280361   4.129   4.933  11.856  0.4110  0.2833  0.2035
19649TIP3    H180362   4.113   4.945  11.762  0.7711 -1.7586 -0.1601
19649TIP3    H280363   4.189   4.858  11.860  1.9302  1.4962  1.9895
19650TIP3   OH280364   0.221   1.527  12.530 -0.2575 -0.1885  0.2387
19650TIP3    H180365   0.214   1.550  12.623 -2.4552  0.8083 -0.1153
19650TIP3    H280366   0.134   1.542  12.495  0.6324 -0.1141 -2.1207
19651TIP3   OH280367   2.782   6.573   0.817  0.1701 -0.1236  0.0817
19651TIP3    H180368   2.805   6.630   0.890 -0.9787 -0.5399  0.7947
19651TIP3    H280369   2.694   6.601   0.792  0.1897 -0.5998 -0.5536
19652TIP3   OH280370   6.179   1.145   4.390  0.2730 -0.5793  0.1342
19652TIP3    H180371   6.107   1.127   4.452  0.1118  0.2830  0.2058
19652TIP3    H280372   6.232   1.211   4.434  0.3212 -0.1698 -0.5335
19653TIP3   OH280373   3.722   2.009  13.889 -0.1563 -0.3478  0.1051
19653TIP3    H180374   3.717   2.029  13.982 -1.2427 -1.2893  0.2689
19653TIP3    H280375   3.813   1.983  13.875 -0.0609 -0.5184  0.9787
19654TIP3   OH280376   5.786   1.577   2.276 -0.3621 -0.3980 -0.1158
19654TIP3    H180377   5.712   1.589   2.335 -1.2114  0.5900 -1.3346
19654TIP3    H280378   5.748   1.578   2.188  0.8466 -1.9355 -0.7226
19655TIP3   OH280379   5.502   5.451  11.701  0.0220 -0.1226  0.6267
19655TIP3    H180380   5.591   5.476  11.678  0.0334 -0.9644 -0.2882
19655TIP3    H280381   5.480   5.506  11.777  1.4172 -0.1333  1.0522
19656TIP3   OH280382   4.351   6.172   5.097  0.2092  0.8519  0.0889
19656TIP3    H180383   4.357   6.228   5.174  0.9686  1.4267 -0.3782
19656TIP3    H280384   4.362   6.083   5.131  0.0125  1.0639  0.7094
19657TIP3   OH280385   6.455   4.580   2.803  0.5571 -0.1446  0.2099
19657TIP3    H180386   6.369   4.619   2.811  1.1305  1.2801 -0.3790
19657TIP3    H280387   6.466   4.562   2.710  1.0150 -0.0245  0.2355
19658TIP3   OH280388   3.801   1.881  15.811  0.0332  0.1343  0.1048
19658TIP3    H180389   3.869   1.826  15.850  1.4059  1.0944 -0.8304
19658TIP3    H280390   3.846   1.926  15.739 -1.3721  1.5089  0.0456
19659TIP3   OH280391   6.356   4.571  17.051 -0.2429 -0.3927 -0.3712
19659TIP3    H180392   6.371   4.612  17.136  0.0189 -2.5477  0.7126
19659TIP3    H280393   6.429   4.600  16.996  0.2142  0.1335  0.4954
19660TIP3   OH280394   2.606   0.632   1.655  0.3068  0.1169 -0.2692
19660TIP3    H180395   2.536   0.693   1.679  1.1280  0.7715  0.5519
19660TIP3    H280396   2.648   0.672   1.579  0.2661  0.1073 -0.2968
19661TIP3   OH280397   0.449   3.437   2.271  0.3587 -0.2795  0.2663
19661TIP3    H180398   0.488   3.485   2.344 -1.3384  0.3492  0.8291
19661TIP3    H280399   0.419   3.355   2.309  2.3068 -1.3752 -0.4657
19662TIP3   OH280400   3.028   2.107  10.714  0.5448  0.3662  0.0083
19662TIP3    H180401   2.935   2.129  10.724  0.1300 -1.7003  1.7389
19662TIP3    H280402   3.072   2.160  10.780  0.9428  2.7493 -2.0529
19663TIP3   OH280403   5.410   2.583  14.553  0.0606  0.5299  0.3159
19663TIP3    H180404   5.462   2.508  14.524  1.9825  2.9749 -3.4497
19663TIP3    H280405   5.451   2.609  14.635 -0.2277 -2.0248  1.3717
19664TIP3   OH280406   0.142   5.124   2.560  0.3819 -0.4428  0.1055
19664TIP3    H180407   0.184   5.185   2.499 -1.6513  0.5104 -0.4157
19664TIP3    H280408   0.049   5.130   2.539 -0.0261 -2.5587  1.1389
19665TIP3   OH280409   2.294   2.444   4.709 -0.2103 -0.0927  0.0228
19665TIP3    H180410   2.354   2.388   4.758  0.5554  0.3643 -0.3862
19665TIP3    H280411   2.215   2.447   4.764 -1.3381 -3.6937 -1.1373
19666TIP3   OH280412   6.082   2.726  13.731  0.5469  0.2351 -0.3161
19666TIP3    H180413   6.065   2.792  13.663  0.8765  0.8541  0.1922
19666TIP3    H280414   6.177   2.730  13.744  0.6035 -0.5215 -0.4579
19667TIP3   OH280415   6.272   5.950  17.192 -0.0364  0.5842  0.6150
19667TIP3    H180416   6.323   6.030  17.180  1.3799 -0.0838  1.8167
19667TIP3    H280417   6.335   5.879  17.180 -1.0542 -0.3409  0.5236
19668TIP3   OH280418   0.712   4.924   2.489 -0.0931 -0.2640 -0.7433
19668TIP3    H180419   0.634   4.931   2.545  0.1323 -0.3270 -0.4153
19668TIP3    H280420   0.697   4.985   2.418 -0.9316 -1.0448 -1.2642
19669TIP3   OH280421   5.502   0.438  14.891  0.2542 -0.0103  0.3239
19669TIP3    H180422   5.445   0.362  14.888 -1.9710  1.5521  0.4392
19669TIP3    H280423   5.466   0.492  14.961  0.6864  1.8996 -0.8392
19670TIP3   OH280424   0.764   4.473  12.606  0.4230  0.2679  0.5422
19670TIP3    H180425   0.798   4.542  12.663 -1.4429  1.5385  0.2043
19670TIP3    H280426   0.671   4.468  12.628  0.3988 -1.7671  0.1487
19671TIP3   OH280427   3.975   0.758  14.998 -0.1338 -0.5950 -0.4485
19671TIP3    H180428   3.944   0.772  15.088  0.6509 -0.3736 -0.2014
19671TIP3    H280429   4.037   0.685  15.006  1.5084  0.7494 -0.4459
19672TIP3   OH280430   1.515   5.632  13.071  0.1500 -0.8626  0.3341
19672TIP3    H180431   1.567   5.710  13.087 -1.7136  0.8178 -1.3225
19672TIP3    H280432   1.425   5.661  13.080 -0.6258 -2.5291 -1.4280
19673TIP3   OH280433   1.325   1.104   2.983 -0.0704  0.0428 -0.5639
19673TIP3    H180434   1.323   1.014   3.018  0.0480  0.2441 -0.0355
19673TIP3    H280435   1.350   1.158   3.058 -1.0998  0.6349 -0.6242
19674TIP3   OH280436   1.879   4.835  15.844  0.2883 -0.4187 -0.0423
19674TIP3    H180437   1.831   4.901  15.894  1.2141 -1.0369  1.7352
19674TIP3    H280438   1.919   4.778  15.910  1.2938 -1.4851 -1.4952
19675TIP3   OH280439   1.349   5.987  11.267 -0.1214 -0.1593  0.0602
19675TIP3    H180440   1.418   5.947  11.214  1.8757  4.5471 -1.5205
19675TIP3    H280441   1.273   5.990  11.209  0.9962  1.8156 -1.4404
19676TIP3   OH280442   1.638   1.743  15.031 -0.0899 -0.0653  0.0432
19676TIP3    H180443   1.654   1.836  15.045 -0.0963 -0.1330  0.5057
19676TIP3    H280444   1.657   1.702  15.115 -0.0450 -0.4877 -0.1693
19677TIP3   OH280445   4.640   0.199   2.600  0.3327 -0.0208 -0.0030
19677TIP3    H180446   4.552   0.197   2.563  0.7791 -3.9321 -1.3338
19677TIP3    H280447   4.679   0.117   2.571  3.7897  0.6979  2.1463
19678TIP3   OH280448   3.278   4.608  13.577  0.5081  0.5403 -0.0768
19678TIP3    H180449   3.223   4.686  13.568 -1.5027 -0.9279 -1.6160
19678TIP3    H280450   3.216   4.537  13.595  2.0664 -0.9761 -0.4598
19679TIP3   OH280451   1.773   6.705   1.160 -0.1400  0.2553  0.7473
19679TIP3    H180452   1.849   6.694   1.103 -0.9736 -1.3226 -0.1040
19679TIP3    H280453   1.751   6.798   1.153 -0.2052  0.1103 -1.5090
19680TIP3   OH280454   6.567   5.867   5.377 -0.3636 -0.8851 -0.5539
19680TIP3    H180455   6.585   5.845   5.286  1.6529 -1.3002 -0.1126
19680TIP3    H280456   6.493   5.928   5.373  0.3631 -0.0399 -2.5494
19681TIP3   OH280457   2.174   5.102   0.289 -0.2853 -0.0652  0.1200
19681TIP3    H180458   2.147   5.158   0.361  1.5065  2.6385 -1.1431
19681TIP3    H280459   2.100   5.105   0.228 -1.3631 -1.4933  1.2883
19682TIP3   OH280460   0.120   1.476  17.294  0.1742  0.0427 -0.3710
19682TIP3    H180461   0.199   1.529  17.304  0.7234 -0.8323  0.0032
19682TIP3    H280462   0.148   1.387  17.315 -0.8053 -0.3510 -0.7014
19683TIP3   OH280463   1.559   2.626   2.008  0.1897 -0.0880  0.4733
19683TIP3    H180464   1.637   2.654   1.959 -0.1750  1.8128  0.9125
19683TIP3    H280465   1.540   2.698   2.067 -1.4992 -0.8242  0.8993
19684TIP3   OH280466   5.712   0.833   2.695 -0.3490 -0.2952 -0.1310
19684TIP3    H180467   5.702   0.753   2.746  0.8383  0.7603  1.8868
19684TIP3    H280468   5.780   0.812   2.630  0.1177 -0.8520  0.5269
19685TIP3   OH280469   6.495   5.897  15.489 -0.2635  0.1210 -0.1214
19685TIP3    H180470   6.518   5.983  15.453 -0.2551 -0.1162 -0.6836
19685TIP3    H280471   6.482   5.841  15.412  0.7128 -0.6452  0.2435
19686TIP3   OH280472   1.391   2.350  15.984  0.2077  0.0391 -0.3623
19686TIP3    H180473   1.352   2.376  16.067  0.7049  1.0621 -0.4356
19686TIP3    H280474   1.329   2.287  15.947 -2.5035  3.0548 -1.4522
19687TIP3   OH280475   6.304   0.390   0.236 -0.0422  0.1754 -0.6042
19687TIP3    H180476   6.224   0.417   0.191 -0.0646  1.5532  0.1892
19687TIP3    H280477   6.371   0.451   0.205 -0.0195  1.0523  1.0054
19688TIP3   OH280478   3.933   2.969  16.339  0.7288 -0.3356  0.3220
19688TIP3    H180479   3.949   3.064  16.335  1.4502 -0.3660  1.6546
19688TIP3    H280480   3.854   2.960  16.392  1.6816 -0.5087  1.7810
19689TIP3   OH280481   3.139   2.148  16.323  0.4728 -0.0196  0.4095
19689TIP3    H180482   3.057   2.099  16.323  0.2445  0.3514  0.8753
19689TIP3    H280483   3.188   2.114  16.248 -1.3891  1.8974 -1.8447
19690TIP3   OH280484   3.906   4.490   4.273  0.0579  0.1889  0.0980
19690TIP3    H180485   3.965   4.490   4.197 -1.4250 -0.9384 -1.1127
19690TIP3    H280486   3.917   4.403   4.311 -0.1631  0.2918  0.3967
19691TIP3   OH280487   5.870   6.192  15.837 -0.4000  0.5388  0.3944
19691TIP3    H180488   5.929   6.260  15.807  1.3679 -0.8292  0.6044
19691TIP3    H280489   5.789   6.238  15.861  0.9260  2.6104  1.1145
19692TIP3   OH280490   1.307   3.149  12.213 -0.0698 -0.2139 -0.0710
19692TIP3    H180491   1.397   3.124  12.192  0.0945 -0.8317  1.2823
19692TIP3    H280492   1.291   3.112  12.300 -1.0327  1.4014  0.4873
19693TIP3   OH280493   6.011   0.498  17.090 -0.6724 -0.3939 -0.5784
19693TIP3    H180494   6.016   0.450  17.007 -0.1194  0.2459 -0.9279
19693TIP3    H280495   5.969   0.581  17.066 -1.1324 -0.4809 -0.0860
19694TIP3   OH280496   2.764   6.743   0.363  0.1493 -0.1912  0.5388
19694TIP3    H180497   2.815   6.768   0.440 -0.0691 -0.0113  0.6230
19694TIP3    H280498   2.681   6.712   0.397  0.3603 -0.9102  0.4284
19695TIP3   OH280499   5.849   6.398   6.067 -0.8800 -0.9839  1.2694
19695TIP3    H180500   5.877   6.490   6.063 -0.0611 -1.1622  2.3555
19695TIP3    H280501   5.899   6.361   6.140 -0.8728 -2.4090  0.5782
19696TIP3   OH280502   6.130   1.083   5.118 -0.3593 -0.3079  0.2688
19696TIP3    H180503   6.046   1.070   5.161  0.5509  0.7824  2.4943
19696TIP3    H280504   6.169   1.158   5.162  1.3744 -0.1544 -1.3835
19697TIP3   OH280505   2.175   3.192   1.160 -0.3795 -0.4056  0.4052
19697TIP3    H180506   2.092   3.149   1.138 -0.2478 -0.9900  1.0126
19697TIP3    H280507   2.163   3.283   1.134 -1.0360 -0.5905  0.0452
19698TIP3   OH280508   2.686   2.018   2.420  0.4167  0.2594  0.3482
19698TIP3    H180509   2.707   1.925   2.420  0.8862  0.3278 -1.2240
19698TIP3    H280510   2.696   2.045   2.511 -0.4269 -1.3646  0.9790
19699TIP3   OH280511   6.639   0.437   3.000  0.4506  0.6849  0.0994
19699TIP3    H180512   6.544   0.441   2.987  0.4971  0.6871 -0.2446
19699TIP3    H280513   6.665   0.353   2.963  0.6796  0.9916 -0.4506
19700TIP3   OH280514   3.878   6.752   0.858  0.1688 -0.3582  0.2170
19700TIP3    H180515   3.926   6.739   0.940 -0.9036 -1.7335  0.6577
19700TIP3    H280516   3.786   6.748   0.884 -0.1883  0.3695 -0.8914
19701TIP3   OH280517   5.785   4.205   6.247 -0.1348  0.4325  0.8405
19701TIP3    H180518   5.701   4.249   6.235 -0.7287 -0.8310  0.0569
19701TIP3    H280519   5.842   4.271   6.285 -1.2131  1.6039  0.4903
19702TIP3   OH280520   4.520   0.600   3.921  0.0762 -0.1932  0.0494
19702TIP3    H180521   4.531   0.593   4.016  0.5086  1.1104  0.1256
19702TIP3    H280522   4.460   0.529   3.898  0.4728 -0.9365  1.1966
19703TIP3   OH280523   1.751   6.235  12.879  0.3856  0.2480  0.6518
19703TIP3    H180524   1.711   6.303  12.826 -0.2778 -0.1995  0.5716
19703TIP3    H280525   1.829   6.208  12.830  1.7567  2.2325  1.5552
19704TIP3   OH280526   2.372   3.609  14.613 -0.1229  0.4590 -0.2006
19704TIP3    H180527   2.349   3.571  14.697 -0.1417  0.4461 -0.2115
19704TIP3    H280528   2.289   3.617  14.567  0.0503 -1.0310 -0.8495
19705TIP3   OH280529   4.285   0.659  16.843  0.6065 -0.8721  0.6242
19705TIP3    H180530   4.255   0.679  16.931  1.7371  2.6509  0.3785
19705TIP3    H280531   4.246   0.727  16.788 -0.8736 -3.5178 -1.8734
19706TIP3   OH280532   0.908   4.221   1.036 -0.8020 -0.1893 -0.2568
19706TIP3    H180533   0.973   4.162   1.000  0.5472  0.9029  0.2883
19706TIP3    H280534   0.923   4.304   0.991 -1.7497  0.1212 -0.0373
19707TIP3   OH280535   4.690   5.603   3.385 -0.3759 -0.1339  0.2251
19707TIP3    H180536   4.673   5.514   3.356  0.5981 -0.9125  1.9230
19707TIP3    H280537   4.667   5.603   3.478 -1.1944  1.6324  0.0669
19708TIP3   OH280538   6.000   2.353  10.894 -0.6816  0.3548  0.1611
19708TIP3    H180539   5.971   2.436  10.932 -1.0617  1.1054 -1.6405
19708TIP3    H280540   5.925   2.324  10.842  0.2498  0.0613 -1.0609
19709TIP3   OH280541   5.395   5.569   2.485  0.5288  0.1747 -0.3407
19709TIP3    H180542   5.375   5.632   2.415  2.2037 -0.6644 -1.6524
19709TIP3    H280543   5.480   5.533   2.460 -0.8479 -3.4634 -0.2741
19710TIP3   OH280544   2.291   1.909  15.702  0.4812 -0.1678 -0.3901
19710TIP3    H180545   2.323   1.952  15.623  1.7698  1.2496  0.8248
19710TIP3    H280546   2.368   1.903  15.759  0.1400 -3.2776 -0.0783
19711TIP3   OH280547   4.885   2.085  13.982 -0.0201  0.4653  0.1325
19711TIP3    H180548   4.952   2.057  13.920  1.1896  0.6126  1.3367
19711TIP3    H280549   4.869   2.177  13.961  0.1186  0.4150 -0.1927
19712TIP3   OH280550   6.697   6.615   0.080 -0.1769  0.0567  0.1117
19712TIP3    H180551   6.603   6.627   0.068 -0.1266 -0.7899 -1.3483
19712TIP3    H280552   6.708   6.521   0.090  0.6020  0.0249 -0.8683
19713TIP3   OH280553   3.805   6.690  12.112  0.1676  0.5813 -0.2524
19713TIP3    H180554   3.879   6.751  12.118 -1.1758  2.2324  0.8530
19713TIP3    H280555   3.808   6.641  12.194  1.0984 -0.7042 -1.0315
19714TIP3   OH280556   3.079   3.789  12.223  0.0503 -0.1913  0.4915
19714TIP3    H180557   3.172   3.810  12.219 -0.2685  1.4777  1.1440
19714TIP3    H280558   3.037   3.859  12.174 -0.8826 -0.9390  0.1845
19715TIP3   OH280559   6.586   4.786   3.297  0.0056  0.6152  0.1473
19715TIP3    H180560   6.516   4.738   3.252  0.8187  0.7951 -1.3377
19715TIP3    H280561   6.660   4.725   3.297 -0.6235 -0.3771  3.4594
19716TIP3   OH280562   4.883   5.166   0.972  0.3627 -0.0503 -0.2248
19716TIP3    H180563   4.943   5.095   0.995  0.3694 -0.6421 -1.9173
19716TIP3    H280564   4.821   5.126   0.911 -0.1632  1.1955 -0.5438
19717TIP3   OH280565   2.460   2.268   4.227  0.6082 -0.4446  0.0502
19717TIP3    H180566   2.421   2.306   4.148  0.3671 -1.7220 -0.4760
19717TIP3    H280567   2.408   2.303   4.299 -1.4699 -1.9421 -0.6074
19718TIP3   OH280568   2.114   3.795   3.915  0.3862 -0.1120  0.3775
19718TIP3    H180569   2.090   3.838   3.833  1.2210  1.3485  0.8647
19718TIP3    H280570   2.088   3.704   3.903  0.3908  0.0968 -1.4664
19719TIP3   OH280571   6.117   6.615  13.734  0.8475  0.4953  0.1467
19719TIP3    H180572   6.045   6.588  13.792 -0.3628  2.6572 -0.2060
19719TIP3    H280573   6.183   6.547  13.744 -2.3157 -3.1943 -1.6411
19720TIP3   OH280574   1.476   5.135   1.720 -0.0406  0.2351  0.1723
19720TIP3    H180575   1.518   5.064   1.672 -1.9818  0.2703 -1.7042
19720TIP3    H280576   1.383   5.125   1.702 -0.3700  3.6254 -0.7765
19721TIP3   OH280577   1.642   0.221   6.713  0.1452  0.0541 -0.4543
19721TIP3    H180578   1.704   0.290   6.735  1.3305  0.3088 -3.9887
19721TIP3    H280579   1.571   0.232   6.776  0.5646  4.1333 -0.4186
19722TIP3   OH280580   0.896   1.790  17.368 -1.2172  0.2028 -0.3112
19722TIP3    H180581   0.919   1.698  17.381 -0.2161  0.5109  0.1970
19722TIP3    H280582   0.852   1.815  17.449 -0.1401  0.5664  0.1758
19723TIP3   OH280583   0.597   2.355  13.873 -0.4321 -0.3338  0.0030
19723TIP3    H180584   0.682   2.367  13.831  0.5640 -0.1279  1.9422
19723TIP3    H280585   0.589   2.430  13.932 -0.8551 -1.5354  1.5411
19724TIP3   OH280586   2.577   0.071   1.762  0.0093  0.5308 -0.2329
19724TIP3    H180587   2.669   0.059   1.740  0.0246 -0.0134  0.1080
19724TIP3    H280588   2.563   0.165   1.761  0.7132  0.6427  0.3165
19725TIP3   OH280589   2.902   0.299  13.068 -0.4692  0.7612 -0.1277
19725TIP3    H180590   2.931   0.385  13.038  0.5730  0.6339  0.4846
19725TIP3    H280591   2.914   0.301  13.163  0.7734 -0.4802 -0.2248
19726TIP3   OH280592   6.387   4.273   3.960  0.1038 -0.4432 -0.1362
19726TIP3    H180593   6.429   4.354   3.932  1.0931 -0.0724  2.2168
19726TIP3    H280594   6.301   4.300   3.993 -0.2293 -0.6128 -0.8273
19727TIP3   OH280595   1.682   5.390  14.386 -0.1948 -0.0557 -0.2968
19727TIP3    H180596   1.718   5.378  14.474  0.6482  1.3621 -0.4240
19727TIP3    H280597   1.756   5.418  14.333 -0.0338 -3.4061 -2.1577
19728TIP3   OH280598   5.229   5.172   3.563 -0.6305  0.1552  0.3457
19728TIP3    H180599   5.226   5.087   3.519 -1.6760 -0.5223  1.6198
19728TIP3    H280600   5.186   5.232   3.503  0.0288 -0.2146 -0.5299
19729TIP3   OH280601   5.349   4.412   0.977 -0.1089 -0.1860 -0.5271
19729TIP3    H180602   5.423   4.352   0.980 -1.5530 -2.0671 -0.9592
19729TIP3    H280603   5.308   4.397   0.892  0.3772  2.6166 -1.3688
19730TIP3   OH280604   2.843   1.633   1.583  0.4464  0.0091  0.1584
19730TIP3    H180605   2.909   1.564   1.572  0.8672  0.3377  0.5881
19730TIP3    H280606   2.818   1.657   1.494  1.9794  0.9079 -0.0618
19731TIP3   OH280607   1.681   5.586  11.097  0.4302  0.7552  0.2999
19731TIP3    H180608   1.758   5.624  11.055  0.4608  1.1026  0.6662
19731TIP3    H280609   1.714   5.509  11.143  0.2990  0.0232 -0.7899
19732TIP3   OH280610   3.605   6.142   5.735 -0.0943  0.2687  0.1893
19732TIP3    H180611   3.540   6.166   5.801 -1.5939  0.8836 -1.4169
19732TIP3    H280612   3.652   6.068   5.773 -1.6515 -0.1066  1.4938
19733TIP3   OH280613   6.379   2.410   4.783 -0.7636 -0.0733  0.0660
19733TIP3    H180614   6.346   2.431   4.870  0.3036 -2.8250  1.2526
19733TIP3    H280615   6.473   2.398   4.796 -0.6274 -0.7506 -1.4174
19734TIP3   OH280616   3.264   1.782   5.464  0.0364 -0.0987 -0.6504
19734TIP3    H180617   3.217   1.813   5.542  0.7858 -0.9230  0.1449
19734TIP3    H280618   3.349   1.824   5.469  0.5758 -1.2060 -0.2854
19735TIP3   OH280619   2.560   1.640   5.361  0.1104  0.5555 -0.6297
19735TIP3    H180620   2.557   1.544   5.364  1.0430  0.5361  0.2201
19735TIP3    H280621   2.587   1.660   5.272 -0.8970  0.0610 -1.0587
19736TIP3   OH280622   6.416   4.245   2.318  0.2403  0.1193  0.1243
19736TIP3    H180623   6.342   4.305   2.323 -0.6254 -0.9274 -0.0291
19736TIP3    H280624   6.388   4.166   2.364  0.5367 -1.0155 -1.5444
19737TIP3   OH280625   0.394   2.842   5.341 -0.0951  0.2682 -0.1425
19737TIP3    H180626   0.331   2.840   5.269  1.4685  0.3742 -1.5729
19737TIP3    H280627   0.408   2.936   5.357  1.0947  0.2834 -1.1424
19738TIP3   OH280628   4.990   1.561   3.688 -0.6335  0.2089 -0.2023
19738TIP3    H180629   5.027   1.499   3.750 -0.0778  0.8427  0.0981
19738TIP3    H280630   4.916   1.601   3.734 -0.6636  0.1629 -0.2102
19739TIP3   OH280631   2.754   1.243   2.803  0.2801  0.7305 -0.7913
19739TIP3    H180632   2.803   1.317   2.840 -1.5712  0.9601  1.4234
19739TIP3    H280633   2.668   1.278   2.782 -0.3013 -0.5656 -0.6870
19740TIP3   OH280634   3.710   3.350   2.954 -0.0655 -0.1421  0.0215
19740TIP3    H180635   3.698   3.326   2.862  0.0868 -2.4854  0.5504
19740TIP3    H280636   3.732   3.267   2.998  0.3803  1.0015  2.0852
19741TIP3   OH280637   0.496   5.677  14.424 -0.3279  0.4218  0.5014
19741TIP3    H180638   0.430   5.731  14.469 -0.4442  0.5545  0.1777
19741TIP3    H280639   0.545   5.635  14.494 -0.2744  0.9059  0.7589
19742TIP3   OH280640   1.677   5.804   0.270 -0.4240 -0.5280 -0.2029
19742TIP3    H180641   1.640   5.794   0.358 -0.5536  1.4270  0.0021
19742TIP3    H280642   1.768   5.831   0.285 -1.0529  2.0646 -0.5698
19743TIP3   OH280643   1.341   1.693  12.878 -0.0972 -0.3140 -0.7236
19743TIP3    H180644   1.276   1.735  12.935  0.2661 -0.1353 -0.4403
19743TIP3    H280645   1.310   1.713  12.789  0.0343  0.5126 -0.5944
19744TIP3   OH280646   1.868   3.772   2.098 -0.1545  0.0619  0.0485
19744TIP3    H180647   1.927   3.816   2.037  1.1820  0.1334  1.3290
19744TIP3    H280648   1.902   3.795   2.184 -0.6147 -1.8493  0.7893
19745TIP3   OH280649   1.143   3.357  13.094 -0.1763 -0.0775 -0.4490
19745TIP3    H180650   1.178   3.429  13.041 -0.3760 -0.9416 -1.7997
19745TIP3    H280651   1.053   3.384  13.114 -1.0075 -0.8734 -2.8259
19746TIP3   OH280652   2.483   3.095   4.483  0.1135 -0.2354 -0.5084
19746TIP3    H180653   2.512   3.011   4.518 -0.5705 -0.2865 -0.0476
19746TIP3    H280654   2.542   3.160   4.522 -1.0362 -0.2169  1.2747
19747TIP3   OH280655   1.364   3.861   0.720  0.5854 -0.1975  0.3178
19747TIP3    H180656   1.333   3.773   0.741  1.8506 -1.2084 -1.7322
19747TIP3    H280657   1.286   3.909   0.694  0.1738 -1.4926 -0.9444
19748TIP3   OH280658   0.422   0.328   0.195 -0.4002  0.6732  0.5895
19748TIP3    H180659   0.437   0.416   0.228  1.0640  1.9842 -3.0685
19748TIP3    H280660   0.337   0.331   0.152 -1.2674 -0.3564  2.1278
19749TIP3   OH280661   5.258   2.326  11.604 -0.1714  0.1282 -0.0371
19749TIP3    H180662   5.252   2.281  11.519 -1.5315  1.5231 -0.7310
19749TIP3    H280663   5.267   2.418  11.581 -0.2522  0.4969  1.3589
19750TIP3   OH280664   0.975   5.688   3.905  0.1099 -0.2737  0.0431
19750TIP3    H180665   0.981   5.601   3.866  0.0404  0.0453 -0.6955
19750TIP3    H280666   1.048   5.692   3.967 -0.1010 -0.9840  0.3381
19751TIP3   OH280667   1.230   1.962   0.595  0.0565  0.0997  0.1757
19751TIP3    H180668   1.249   1.869   0.608  0.0914  0.0381 -0.3103
19751TIP3    H280669   1.241   1.977   0.501  0.4628  0.6903  0.3120
19752TIP3   OH280670   5.154   1.303   1.337 -0.2696  0.0215 -0.0789
19752TIP3    H180671   5.185   1.237   1.399 -0.2349 -1.0236 -1.1669
19752TIP3    H280672   5.073   1.266   1.301 -0.1310  0.4738 -0.8739
19753TIP3   OH280673   4.927   6.611   1.707  0.5922 -0.0539 -0.2459
19753TIP3    H180674   4.862   6.606   1.637  2.2193  0.7393 -1.8939
19753TIP3    H280675   4.952   6.520   1.724 -1.6973 -0.4806  1.2265
19754TIP3   OH280676   5.297   4.121   1.310 -0.5631  0.4134  0.2380
19754TIP3    H180677   5.210   4.107   1.347 -0.0726 -0.7086  1.0051
19754TIP3    H280678   5.288   4.095   1.218 -0.8177 -0.5964  0.5358
19755TIP3   OH280679   5.924   2.284  13.070 -0.1096  0.5109 -0.3372
19755TIP3    H180680   5.914   2.199  13.112  0.0061  0.9793  0.6822
19755TIP3    H280681   6.006   2.319  13.106 -0.2463  1.1200 -0.6014
19756TIP3   OH280682   4.392   4.610   0.755  0.1777  0.8916  0.2423
19756TIP3    H180683   4.426   4.564   0.832 -2.2539 -0.3270  0.6574
19756TIP3    H280684   4.438   4.569   0.681  0.0617 -0.3254  0.8124
19757TIP3   OH280685   1.415   1.657  16.025  0.4808  0.2493 -0.0103
19757TIP3    H180686   1.367   1.574  16.026  0.8496  0.0242 -0.3291
19757TIP3    H280687   1.489   1.642  16.083  2.2174 -0.6995 -2.2869
19758TIP3   OH280688   4.945   1.542   2.880  0.3215 -0.2671 -0.1014
19758TIP3    H180689   4.935   1.636   2.892 -0.1553 -0.4582  1.1394
19758TIP3    H280690   4.948   1.530   2.785 -1.0396  0.8655 -0.3182
19759TIP3   OH280691   2.499   2.821   4.552 -0.6241  0.3984 -0.1255
19759TIP3    H180692   2.542   2.809   4.637 -0.1047  1.2652 -0.2522
19759TIP3    H280693   2.408   2.794   4.568 -0.7609  1.3922  0.9709
19760TIP3   OH280694   0.975   1.909   2.066  0.4108 -0.5961 -0.2993
19760TIP3    H180695   0.943   1.983   2.119  2.5060  1.0085 -1.1388
19760TIP3    H280696   0.902   1.888   2.007 -0.1800  0.9236 -0.1490
19761TIP3   OH280697   1.213   2.105  13.556 -0.4479 -0.1359  0.3574
19761TIP3    H180698   1.168   2.132  13.636 -0.4190  1.6256 -0.1605
19761TIP3    H280699   1.246   2.187  13.519  0.0855 -0.9806 -1.1290
19762TIP3   OH280700   4.560   3.902   0.639 -0.3992  0.4267 -0.0050
19762TIP3    H180701   4.629   3.896   0.573 -0.8316  1.6061 -0.6052
19762TIP3    H280702   4.580   3.832   0.701  2.3840  1.7885  0.8311
19763TIP3   OH280703   0.403   6.249  16.735  0.1852 -0.4829  0.0233
19763TIP3    H180704   0.313   6.280  16.726  0.6270  0.9729  0.3603
19763TIP3    H280705   0.457   6.326  16.718  1.2984 -0.5204  2.8798
19764TIP3   OH280706   5.488   6.588   2.818  0.2265  0.1747 -0.9167
19764TIP3    H180707   5.486   6.538   2.737 -2.1958  0.5315 -1.1546
19764TIP3    H280708   5.424   6.658   2.805 -0.7765 -0.1835  1.5567
19765TIP3   OH280709   4.089   2.803   2.209  0.2070  0.2812 -0.3064
19765TIP3    H180710   3.994   2.811   2.218  0.3952  2.2616  0.2747
19765TIP3    H280711   4.105   2.709   2.213 -1.5633 -0.0160  1.3205
19766TIP3   OH280712   5.436   5.552  16.445  0.0629  0.2694 -0.1718
19766TIP3    H180713   5.344   5.573  16.431 -0.7432 -1.4075  2.0154
19766TIP3    H280714   5.461   5.499  16.369 -1.7470 -1.8786  0.6344
19767TIP3   OH280715   2.187   5.339   3.437  0.4172 -0.5117 -0.1447
19767TIP3    H180716   2.274   5.336   3.475 -0.3841 -1.4150  1.7302
19767TIP3    H280717   2.171   5.250   3.406  0.5919 -0.0662 -1.5856
19768TIP3   OH280718   1.970   4.499  12.214  0.3348  0.1701  0.0252
19768TIP3    H180719   1.907   4.556  12.170 -1.2238 -0.2349  1.6624
19768TIP3    H280720   2.029   4.559  12.260  1.1319  0.5410 -1.4060
19769TIP3   OH280721   4.257   6.025   1.055  0.0953  0.1484 -0.3123
19769TIP3    H180722   4.317   5.957   1.022 -0.9219 -0.8883 -0.0920
19769TIP3    H280723   4.178   6.014   1.003 -0.6174  0.1701  0.7437
19770TIP3   OH280724   4.738   5.415   0.914  0.1131  0.2253 -0.0128
19770TIP3    H180725   4.797   5.487   0.889  1.1401 -0.1498  1.2279
19770TIP3    H280726   4.796   5.349   0.951 -0.8216 -1.2303 -1.0402
19771TIP3   OH280727   1.134   5.758   0.136  0.1116  0.2417  0.0218
19771TIP3    H180728   1.136   5.672   0.179 -0.5373  0.3232  0.2355
19771TIP3    H280729   1.163   5.819   0.204  1.4063  0.1061 -0.3850
19772TIP3   OH280730   0.226   6.273  12.754 -0.5494  0.3690 -0.6284
19772TIP3    H180731   0.244   6.357  12.797 -0.8334  0.6328 -1.0113
19772TIP3    H280732   0.307   6.253  12.707  0.4077 -0.7909  1.3802
19773TIP3   OH280733   0.180   5.233   1.019 -0.0416 -0.4571  0.2664
19773TIP3    H180734   0.218   5.321   1.019 -0.6561 -0.1835 -0.9523
19773TIP3    H280735   0.089   5.246   0.995 -0.1072 -1.4405 -0.0432
19774TIP3   OH280736   1.816   4.803   5.436  0.6108  0.1524 -0.2788
19774TIP3    H180737   1.804   4.790   5.342  0.4928  1.2971 -0.4300
19774TIP3    H280738   1.900   4.848   5.443  0.9044 -0.4640  0.2110
19775TIP3   OH280739   4.766   0.319   0.659  0.3956  0.1774 -0.5123
19775TIP3    H180740   4.725   0.234   0.645  0.6440  0.0093 -0.2242
19775TIP3    H280741   4.856   0.298   0.682 -0.0229  0.4350  1.5023
19776TIP3   OH280742   4.184   6.361   2.546 -0.3221  0.1159  0.6338
19776TIP3    H180743   4.091   6.381   2.536 -0.1671  0.2526 -0.6058
19776TIP3    H280744   4.225   6.446   2.564  0.0344  0.7148 -2.4645
19777TIP3   OH280745   1.364   2.555   5.734 -0.0794 -0.0518 -0.4672
19777TIP3    H180746   1.376   2.650   5.739  1.1150 -0.1065 -1.6076
19777TIP3    H280747   1.450   2.521   5.708 -1.0047 -1.2092 -2.2848
19778TIP3   OH280748   4.672   5.378  17.348  0.5635  0.1536  0.2786
19778TIP3    H180749   4.646   5.395  17.258 -1.5062  3.4180  1.3408
19778TIP3    H280750   4.742   5.441  17.366 -0.6256  1.1854  1.5479
19779TIP3   OH280751   0.037   5.021  14.668 -0.2690  0.4304 -0.4844
19779TIP3    H180752   0.052   5.097  14.724 -1.5925  0.0181  0.4960
19779TIP3    H280753  -0.014   4.961  14.723 -2.7674  0.5436 -2.5032
19780TIP3   OH280754   5.886   6.515   0.466  0.6319  0.9673 -0.0248
19780TIP3    H180755   5.833   6.445   0.502 -1.4817  1.3228 -2.2090
19780TIP3    H280756   5.931   6.475   0.391  0.3032  1.6329 -0.5896
19781TIP3   OH280757   1.047   6.137   3.365 -0.2654  0.0053  0.2801
19781TIP3    H180758   1.097   6.083   3.425  0.5037  0.8595  0.4348
19781TIP3    H280759   1.067   6.102   3.278 -0.6709 -0.6650  0.4530
19782TIP3   OH280760   5.243   6.519   6.889  0.0054 -0.2096  0.3517
19782TIP3    H180761   5.200   6.474   6.962  0.1512  0.0815  0.6207
19782TIP3    H280762   5.306   6.456   6.854 -0.3628 -0.5014  0.2029
19783TIP3   OH280763   3.918   4.844   3.492 -0.9009 -0.2822 -0.0992
19783TIP3    H180764   3.969   4.774   3.533 -1.0736 -3.1766 -4.1595
19783TIP3    H280765   3.827   4.817   3.503 -1.0338 -0.0503 -0.5933
19784TIP3   OH280766   2.491   2.320  15.828 -0.5981 -0.1234 -0.1367
19784TIP3    H180767   2.544   2.365  15.893 -1.1864  1.4059 -0.6638
19784TIP3    H280768   2.438   2.257  15.878 -1.3383  1.2978  0.9399
19785TIP3   OH280769   3.303   2.568  13.988  0.2953 -0.5753 -0.1974
19785TIP3    H180770   3.251   2.648  13.987  0.2745 -0.5909 -0.3817
19785TIP3    H280771   3.393   2.598  13.989  0.2848 -0.5468  0.2329
19786TIP3   OH280772   2.894   6.166   1.960  0.8760  0.4013 -0.0543
19786TIP3    H180773   2.930   6.222   2.029  1.3848  1.9204 -1.4763
19786TIP3    H280774   2.814   6.211   1.932 -1.0581 -1.7968  1.5474
19787TIP3   OH280775   3.101   1.159   3.411 -0.1750  0.2473  0.1995
19787TIP3    H180776   3.126   1.244   3.448 -0.2298  0.3687 -0.0407
19787TIP3    H280777   3.005   1.161   3.411 -0.1952  0.8712 -1.3504
19788TIP3   OH280778   3.336   2.187  13.149 -0.1831 -0.0093  0.4686
19788TIP3    H180779   3.321   2.257  13.085 -0.8894  0.3577  1.0289
19788TIP3    H280780   3.302   2.108  13.106  0.4523  0.0127 -0.0925
19789TIP3   OH280781   3.383   6.302  15.436  0.1687  0.3312  0.4006
19789TIP3    H180782   3.394   6.250  15.515 -0.8963  2.1207  1.7966
19789TIP3    H280783   3.339   6.381  15.465 -0.7914  0.8055 -2.0976
19790TIP3   OH280784   5.837   6.606  15.687 -0.1949 -0.4945 -0.9549
19790TIP3    H180785   5.772   6.563  15.631  0.8559 -1.2449 -1.6419
19790TIP3    H280786   5.890   6.658  15.627 -0.2362  0.2064 -0.3890
19791TIP3   OH280787   6.144   4.377   4.103  0.6359 -0.1854 -0.1532
19791TIP3    H180788   6.150   4.351   4.195  0.8179  0.1484 -0.0720
19791TIP3    H280789   6.066   4.431   4.098 -0.5613 -1.8750 -0.5934
19792TIP3   OH280790   4.441   5.837  15.397  0.3123  0.4550 -0.7505
19792TIP3    H180791   4.445   5.803  15.486 -2.0912  0.6859 -0.4948
19792TIP3    H280792   4.487   5.771  15.344  1.3529  0.0825  0.5656
19793TIP3   OH280793   2.304   3.984   3.631 -0.2780 -0.3274  0.2558
19793TIP3    H180794   2.369   4.054   3.638 -0.7040  0.0996 -0.0150
19793TIP3    H280795   2.313   3.950   3.542 -0.5822 -0.1067  0.1377
19794TIP3   OH280796   5.030   2.180  15.704  0.4306 -0.6008 -0.1472
19794TIP3    H180797   5.006   2.200  15.613 -1.4148  0.0182  0.4381
19794TIP3    H280798   5.062   2.263  15.740 -0.6291 -0.3731  0.2934
19795TIP3   OH280799   2.250   1.035  15.440 -0.3902  0.5719  0.4757
19795TIP3    H180800   2.249   0.970  15.370 -1.2722  1.2027 -0.1214
19795TIP3    H280801   2.291   1.112  15.400 -0.4521  0.7776  0.8070
19796TIP3   OH280802   0.110   2.643   6.003 -0.2484 -0.5139  0.0218
19796TIP3    H180803   0.162   2.641   6.083 -0.8704 -1.5465  0.4144
19796TIP3    H280804   0.047   2.714   6.017 -0.2357 -0.5712  0.3631
19797TIP3   OH280805   1.718   5.652   3.018 -0.1692  0.6186 -0.2845
19797TIP3    H180806   1.795   5.639   2.963 -0.6768  2.1018 -1.4316
19797TIP3    H280807   1.730   5.592   3.092  2.1197  0.8876 -0.3761
19798TIP3   OH280808   3.152   4.578  16.618 -0.0512 -0.0220 -0.1706
19798TIP3    H180809   3.068   4.535  16.607 -0.9538  1.8121 -0.8675
19798TIP3    H280810   3.194   4.571  16.532 -0.6447  1.3045 -0.5967
19799TIP3   OH280811   2.198   6.205  14.902 -0.2903  0.1007  0.5533
19799TIP3    H180812   2.164   6.295  14.899 -0.8705 -0.1328 -1.5961
19799TIP3    H280813   2.269   6.204  14.838  1.0571 -0.5040  2.0001
19800TIP3   OH280814   1.449   1.347   4.608  0.1556  0.3151  0.2488
19800TIP3    H180815   1.506   1.374   4.681  0.3496 -1.5724  0.8569
19800TIP3    H280816   1.362   1.341   4.647  0.1745 -0.2263  0.2144
19801TIP3   OH280817   1.298   0.309   1.999 -0.1332 -0.1833 -0.6328
19801TIP3    H180818   1.357   0.369   2.045 -0.6248  0.5917 -1.0013
19801TIP3    H280819   1.282   0.238   2.062  2.6287 -1.4012 -1.1437
19802TIP3   OH280820   2.000   1.345  14.823  0.7347 -0.4627  0.1900
19802TIP3    H180821   2.057   1.415  14.792  0.1714  0.4603  1.1454
19802TIP3    H280822   1.986   1.366  14.916 -0.4439 -1.1549  0.1832
19803TIP3   OH280823   2.566   3.410  15.623 -0.0254  0.4524  0.1960
19803TIP3    H180824   2.631   3.479  15.626  0.0695  0.3840 -0.2934
19803TIP3    H280825   2.506   3.434  15.552  0.5386 -0.4249 -0.6084
19804TIP3   OH280826   3.718   3.895  14.103  0.0638  0.8124 -0.8157
19804TIP3    H180827   3.780   3.835  14.144  0.8393  1.2439 -1.3283
19804TIP3    H280828   3.683   3.946  14.176 -0.8240 -0.4371 -0.3396
19805TIP3   OH280829   2.120   6.532  14.577 -0.1966 -0.4078  0.0218
19805TIP3    H180830   2.066   6.611  14.580 -0.1256 -0.3961  1.9125
19805TIP3    H280831   2.202   6.560  14.536  0.5311  0.9857  2.2907
19806TIP3   OH280832   5.093   1.798  16.995 -0.0512  0.1379 -0.2357
19806TIP3    H180833   5.069   1.890  17.002  3.2113  1.0586  0.6426
19806TIP3    H280834   5.114   1.786  16.902  1.3273  0.8660 -0.0487
19807TIP3   OH280835   6.199   4.322   5.523 -0.2455 -0.5872  0.0577
19807TIP3    H180836   6.206   4.239   5.475  0.1232 -0.7425  0.3748
19807TIP3    H280837   6.167   4.296   5.610 -0.6910 -0.3326 -0.0276
19808TIP3   OH280838   4.470   5.670  15.618 -0.2830 -0.7903 -0.1357
19808TIP3    H180839   4.437   5.681  15.707  0.2102 -1.5082  0.1484
19808TIP3    H280840   4.533   5.598  15.625  2.8397  1.7215 -0.2542
19809TIP3   OH280841   0.102   2.745   1.288 -0.4831  0.5190  0.6413
19809TIP3    H180842   0.176   2.691   1.319 -0.2011  1.2953  1.3470
19809TIP3    H280843   0.053   2.765   1.367 -0.1790  1.9022  0.5058
19810TIP3   OH280844   3.887   1.017  17.395  0.5123 -0.4515  0.2833
19810TIP3    H180845   3.900   0.922  17.394 -0.3447 -0.5966 -1.5774
19810TIP3    H280846   3.909   1.045  17.306 -1.1936  0.7850  0.2123
19811TIP3   OH280847   6.506   4.884   2.520 -0.6427 -0.4929 -0.4600
19811TIP3    H180848   6.542   4.970   2.541 -1.9376 -0.0928  0.2303
19811TIP3    H280849   6.548   4.825   2.582  0.1401 -0.3548 -0.8392
19812TIP3   OH280850   0.504   1.518  12.591 -0.2475  0.0075  0.0473
19812TIP3    H180851   0.412   1.532  12.567 -0.2084 -0.3987 -0.3524
19812TIP3    H280852   0.502   1.445  12.652 -0.0103 -1.3821 -1.5493
19813TIP3   OH280853   3.062   5.868   1.697  0.0733  0.6854 -0.9638
19813TIP3    H180854   3.029   5.952   1.665  0.4560  0.8179 -1.0111
19813TIP3    H280855   3.130   5.843   1.634 -1.2718 -0.5537 -1.9973
19814TIP3   OH280856   3.896   3.786  15.674 -0.0196 -0.7728 -1.1446
19814TIP3    H180857   3.987   3.804  15.653  0.2948 -0.6734  0.2212
19814TIP3    H280858   3.878   3.702  15.630  0.3934 -0.2884 -2.2850
19815TIP3   OH280859   1.183   2.016   0.087 -0.4733  0.0744 -0.2764
19815TIP3    H180860   1.102   2.027   0.137 -1.0615 -1.9486 -0.7026
19815TIP3    H280861   1.158   1.960   0.013  1.3169 -0.6296 -0.3995
19816TIP3   OH280862   0.343   2.322  17.128  0.3099  0.3263  0.5375
19816TIP3    H180863   0.437   2.307  17.144 -0.0586 -1.8011  1.0061
19816TIP3    H280864   0.319   2.390  17.191  1.1929 -0.3519  1.6489
19817TIP3   OH280865   4.076   0.177   2.212 -0.3956  0.0592 -0.2920
19817TIP3    H180866   4.122   0.239   2.268 -1.5468  1.4959 -0.8690
19817TIP3    H280867   4.057   0.226   2.132  0.4060 -1.6603 -1.6097
19818TIP3   OH280868   4.995   3.814   2.121  0.1951  0.3433  0.7879
19818TIP3    H180869   5.050   3.747   2.161 -0.9789 -1.1677 -0.0260
19818TIP3    H280870   5.005   3.799   2.027  0.3779  1.7264  0.5678
19819TIP3   OH280871   0.123   2.896   1.960  0.0232  0.2027  0.1154
19819TIP3    H180872   0.061   2.925   2.027  0.1330 -0.0320  0.3221
19819TIP3    H280873   0.208   2.925   1.993  0.0593  0.2260 -0.0009
19820TIP3   OH280874   4.512   0.487   0.752 -0.3829  0.3055 -0.0936
19820TIP3    H180875   4.604   0.462   0.743 -0.1528  1.3862 -0.8036
19820TIP3    H280876   4.485   0.448   0.836  1.1936  1.3835  0.9625
19821TIP3   OH280877   2.402   0.882  14.449  0.7844  0.5251 -0.4315
19821TIP3    H180878   2.444   0.807  14.407  1.2529 -1.4549  3.1178
19821TIP3    H280879   2.475   0.937  14.477  0.6930  0.2664  0.3426
19822TIP3   OH280880   2.932   0.385   0.499  0.3297 -0.1204 -0.1298
19822TIP3    H180881   2.902   0.350   0.583  0.8987  0.8747  0.5077
19822TIP3    H280882   2.854   0.429   0.463  0.2247 -0.0893  0.1317
19823TIP3   OH280883   4.884   2.145  12.136 -0.1651  0.0733 -0.2688
19823TIP3    H180884   4.893   2.205  12.062 -0.9460 -0.6297 -0.9545
19823TIP3    H280885   4.841   2.067  12.099 -0.5785 -0.2887  0.9185
19824TIP3   OH280886   1.327   4.486   4.827  0.1381 -0.0926 -0.0889
19824TIP3    H180887   1.305   4.395   4.809 -1.4159 -0.1649  1.8848
19824TIP3    H280888   1.405   4.482   4.881 -0.2127 -0.2890  0.4091
19825TIP3   OH280889   3.869   5.363  16.927  0.3476 -0.0698 -0.1436
19825TIP3    H180890   3.808   5.397  16.862 -1.7429 -2.2947  0.5143
19825TIP3    H280891   3.949   5.415  16.914 -0.7695  1.1909 -2.8112
19826TIP3   OH280892   2.869   5.968   3.819 -1.0633  0.0406  0.8861
19826TIP3    H180893   2.902   6.053   3.789 -0.7114 -0.2572  0.4137
19826TIP3    H280894   2.774   5.978   3.822 -1.1009  0.1018 -0.2622
19827TIP3   OH280895   0.887   6.215  11.793  0.5176 -0.9109 -0.2219
19827TIP3    H180896   0.809   6.159  11.783  0.6679 -1.0525 -0.6191
19827TIP3    H280897   0.947   6.185  11.724  0.7764 -0.5540 -0.1538
19828TIP3   OH280898   4.977   2.664   0.411 -0.2461  0.5743  0.2129
19828TIP3    H180899   4.963   2.755   0.384  0.0611  0.5688  0.0430
19828TIP3    H280900   4.899   2.619   0.380  0.1574  0.5409 -0.7882
19829TIP3   OH280901   1.847   2.308   1.778 -0.4232  0.4727  0.3063
19829TIP3    H180902   1.843   2.283   1.685 -2.4487  0.5095  0.3436
19829TIP3    H280903   1.906   2.383   1.780 -0.4036  0.5123 -0.9715
19830TIP3   OH280904   1.727   0.599  16.744  0.0690 -0.0442  0.4331
19830TIP3    H180905   1.634   0.578  16.733  0.0854 -0.4629  1.0932
19830TIP3    H280906   1.770   0.551  16.673 -0.0942 -0.8284  0.8463
19831TIP3   OH280907   2.184   6.229  11.579 -0.5811 -0.0878 -0.1371
19831TIP3    H180908   2.187   6.320  11.607  0.2439 -0.1180 -0.0820
19831TIP3    H280909   2.237   6.228  11.499 -0.4579 -0.5480 -0.0506
19832TIP3   OH280910   4.949   2.412  13.941 -0.0712  0.0298 -0.3649
19832TIP3    H180911   5.005   2.459  13.880  0.7990 -2.3351 -1.4998
19832TIP3    H280912   4.861   2.448  13.926  1.0204  4.4442  2.0772
19833TIP3   OH280913   4.041   0.557   5.966  0.3770 -0.3527 -0.0517
19833TIP3    H180914   4.095   0.632   5.991  0.2475 -0.7251  1.4442
19833TIP3    H280915   4.055   0.494   6.036 -0.5010 -1.2273 -0.6507
19834TIP3   OH280916   6.186   6.354   2.660  0.5723  0.3231 -0.1958
19834TIP3    H180917   6.134   6.407   2.720 -0.9398 -2.5536  1.2242
19834TIP3    H280918   6.253   6.314   2.715 -1.5854 -3.3413  0.0849
19835TIP3   OH280919   5.826   1.485   0.405 -0.3864 -0.2506  0.1351
19835TIP3    H180920   5.782   1.560   0.364 -0.7010  0.1453  1.1501
19835TIP3    H280921   5.895   1.524   0.458  1.6434 -0.8948 -1.8743
19836TIP3   OH280922   2.378   3.318   4.091  0.6497  0.7216 -0.1113
19836TIP3    H180923   2.342   3.233   4.114  0.1896  0.7318 -0.7628
19836TIP3    H280924   2.352   3.331   4.000  0.6162  1.6038  0.0142
19837TIP3   OH280925   0.888   4.411  13.727  0.7203  0.0036  0.5901
19837TIP3    H180926   0.900   4.371  13.640 -2.2630 -0.7897  0.4229
19837TIP3    H280927   0.900   4.505  13.712  1.8982 -0.2574 -0.2871
19838TIP3   OH280928   2.147   3.453   1.115  0.5664 -0.1433 -0.0025
19838TIP3    H180929   2.237   3.474   1.138  1.3124 -2.1403 -0.8804
19838TIP3    H280930   2.127   3.511   1.042  1.5963 -0.5544 -0.6278
19839TIP3   OH280931   5.985   5.108   4.816  0.3258 -0.0212 -0.2923
19839TIP3    H180932   5.949   5.053   4.885  0.6772 -1.6074 -1.3267
19839TIP3    H280933   5.909   5.154   4.780 -0.0229 -0.0718  0.3624
19840TIP3   OH280934   3.925   1.693  16.459 -0.0428 -0.5808  0.2228
19840TIP3    H180935   3.907   1.625  16.395 -1.2380  0.5832 -0.7420
19840TIP3    H280936   3.851   1.753  16.451  0.0359 -0.1239  2.3410
19841TIP3   OH280937   4.524   0.561  15.842  0.0634  1.0887 -0.4209
19841TIP3    H180938   4.440   0.522  15.819  0.6410  0.0627 -0.9078
19841TIP3    H280939   4.504   0.625  15.910 -0.9020 -0.2449  0.5902
19842TIP3   OH280940   2.269   0.861  12.698 -0.2033  0.2289 -0.0367
19842TIP3    H180941   2.247   0.838  12.608 -0.7151  3.0973 -0.7507
19842TIP3    H280942   2.346   0.809  12.718 -0.0150 -0.4017 -2.1716
19843TIP3   OH280943   4.173   4.113  15.693 -0.6277 -0.2694  0.7166
19843TIP3    H180944   4.144   4.098  15.783 -0.9568  0.1329  0.6847
19843TIP3    H280945   4.133   4.197  15.669  0.5760  0.3072  0.6666
19844TIP3   OH280946   3.127   3.423   2.475  0.3781  0.4054 -0.2999
19844TIP3    H180947   3.076   3.351   2.513  0.6235  0.1649 -0.4273
19844TIP3    H280948   3.191   3.380   2.419 -0.4696  0.7856 -1.6122
19845TIP3   OH280949   4.014   3.205   1.327 -0.1078  0.1040  0.6473
19845TIP3    H180950   4.054   3.223   1.412  0.2283  1.4083  0.2260
19845TIP3    H280951   4.088   3.197   1.267 -0.3180 -1.2456  0.5212
19846TIP3   OH280952   4.196   1.500   3.584  0.5233  0.5027 -0.0453
19846TIP3    H180953   4.232   1.587   3.568 -0.2599  0.8757  0.1969
19846TIP3    H280954   4.215   1.451   3.503 -1.2763  1.6501 -1.2271
19847TIP3   OH280955   2.119   4.072   3.376  0.0396 -0.0346 -0.1743
19847TIP3    H180956   2.132   4.079   3.281  0.5955 -0.6695 -0.1514
19847TIP3    H280957   2.161   3.990   3.400  0.6099  0.5167  0.7616
19848TIP3   OH280958   2.561   3.582   0.538  0.5521  0.1626  0.1873
19848TIP3    H180959   2.636   3.531   0.570  0.1163  1.5951  4.1623
19848TIP3    H280960   2.503   3.518   0.497  2.6101 -1.4541 -0.3787
19849TIP3   OH280961   1.060   2.894   6.619  0.1508 -0.2817  0.0845
19849TIP3    H180962   1.001   2.820   6.604  0.2257  0.1124 -2.7651
19849TIP3    H280963   1.004   2.962   6.657 -0.3267 -1.1635  1.0078
19850TIP3   OH280964   0.106   4.298  13.459  0.1361 -0.1018  0.4039
19850TIP3    H180965   0.094   4.366  13.525 -1.7423  0.2550 -0.2417
19850TIP3    H280966   0.124   4.218  13.509  0.8862  0.5572  1.2229
19851TIP3   OH280967   5.861   5.139  14.597  0.1289  0.1587 -0.1764
19851TIP3    H180968   5.818   5.097  14.522 -1.3535 -1.9883  1.7531
19851TIP3    H280969   5.951   5.108  14.593 -0.2421 -0.9131 -0.3975
19852TIP3   OH280970   6.153   5.562  13.361  0.1154 -0.0652  0.2614
19852TIP3    H180971   6.127   5.652  13.378 -1.7338 -0.8560  2.1029
19852TIP3    H280972   6.070   5.515  13.349  0.9751 -1.7211  0.4923
19853TIP3   OH280973   2.004   3.597   4.998  0.7505  0.4661  0.2949
19853TIP3    H180974   2.062   3.636   5.064  1.7617  0.9287 -0.8371
19853TIP3    H280975   2.031   3.506   4.994  0.1141  0.2257  1.1005
19854TIP3   OH280976   3.809   2.282   4.686  0.5593 -0.4638  0.4699
19854TIP3    H180977   3.891   2.278   4.736  1.7452  1.3247 -1.1855
19854TIP3    H280978   3.812   2.205   4.629  1.1797 -0.3367  0.3242
19855TIP3   OH280979   0.111   5.235  12.559  0.3431 -0.0929  0.2953
19855TIP3    H180980   0.038   5.220  12.499 -0.3172  0.7242  0.8726
19855TIP3    H280981   0.103   5.166  12.624 -0.4873  0.5333  0.8793
19856TIP3   OH280982   0.012   1.360  11.771  0.4595 -0.4444 -0.0800
19856TIP3    H180983   0.013   1.374  11.676  1.4922  0.5023  0.0491
19856TIP3    H280984  -0.057   1.419  11.803  1.1936  0.4554 -0.0983
19857TIP3   OH280985   5.482   5.129   6.037  0.4003  0.1318 -0.1988
19857TIP3    H180986   5.430   5.204   6.010  0.5244 -0.1666 -1.3600
19857TIP3    H280987   5.452   5.108   6.125 -0.5556  0.7282 -0.3735
19858TIP3   OH280988   4.277   3.196   4.429 -0.1495  0.0765  0.2988
19858TIP3    H180989   4.325   3.279   4.424 -0.5302  0.2658 -0.4496
19858TIP3    H280990   4.259   3.173   4.338 -1.4239 -0.0117  0.5490
19859TIP3   OH280991   4.915   2.808   4.758  0.8003 -0.0558 -0.1105
19859TIP3    H180992   4.983   2.762   4.709  0.8244  0.3332 -0.4435
19859TIP3    H280993   4.838   2.752   4.750  1.4147 -1.1853  1.3903
19860TIP3   OH280994   0.685   3.855   0.626  0.5442  0.3724 -0.3358
19860TIP3    H180995   0.612   3.806   0.664  0.1540 -0.1821 -1.7465
19860TIP3    H280996   0.737   3.883   0.702 -0.7864  0.2546  0.6597
19861TIP3   OH280997   2.926   3.797   3.953  0.4302 -0.2162 -0.2130
19861TIP3    H180998   2.922   3.870   4.015  0.2784  0.6994 -1.2676
19861TIP3    H280999   2.835   3.783   3.926  0.6707  0.5860 -1.5426
19862TIP3   OH281000   2.215   6.697   6.267  0.0319 -0.1055 -0.5361
19862TIP3    H181001   2.184   6.623   6.320  0.2768 -0.3386 -0.7151
19862TIP3    H281002   2.262   6.656   6.194 -0.2871  0.2149 -0.9238
19863TIP3   OH281003   4.480   5.104   3.770 -0.1591  0.2340  0.3256
19863TIP3    H181004   4.460   5.191   3.804  0.6189  0.3125  0.5911
19863TIP3    H281005   4.395   5.070   3.740 -0.3997  1.2617 -0.2044
19864TIP3   OH281006   4.466   4.163  12.470 -0.4838 -0.3127 -0.2757
19864TIP3    H181007   4.475   4.090  12.531 -3.2982  0.0413  0.7580
19864TIP3    H281008   4.474   4.124  12.383 -0.5164 -1.5852  0.2769
19865TIP3   OH281009   2.228   2.861   5.523  0.3168 -0.4011 -0.0251
19865TIP3    H181010   2.257   2.888   5.610 -0.8501 -0.9082  0.5469
19865TIP3    H281011   2.151   2.807   5.540 -0.7875  0.6499 -1.4310
19866TIP3   OH281012   3.664   2.206   4.220  0.3579 -0.7690  0.1670
19866TIP3    H181013   3.577   2.197   4.258  0.6647 -0.7365  0.9067
19866TIP3    H281014   3.665   2.295   4.184  0.2596 -0.5745  0.6341
19867TIP3   OH281015   5.020   3.810  15.754  0.2715 -0.2041  0.2805
19867TIP3    H181016   5.094   3.755  15.729  1.7326  1.9995 -0.5662
19867TIP3    H281017   5.049   3.854  15.834  0.1369  1.1031 -0.3654
19868TIP3   OH281018   1.261   2.829  14.422 -0.4824 -0.3743  0.3032
19868TIP3    H181019   1.177   2.856  14.460 -1.3985 -1.6593 -0.6933
19868TIP3    H281020   1.273   2.739  14.451 -0.6995 -1.0437 -1.5056
19869TIP3   OH281021   4.514   5.145  14.746 -0.0994 -0.5747  0.1442
19869TIP3    H181022   4.511   5.219  14.685  0.9074  0.2921  1.1001
19869TIP3    H281023   4.424   5.112  14.747 -0.4069  0.1573 -0.8691
19870TIP3   OH281024   2.585   6.259  15.056 -0.4025  0.7519  0.5779
19870TIP3    H181025   2.648   6.298  15.116  0.7471 -0.9866  0.5846
19870TIP3    H281026   2.635   6.191  15.010 -1.8727  0.3984 -0.5842
19871TIP3   OH281027   2.977   4.092  14.621  0.1297 -0.2382  0.3506
19871TIP3    H181028   2.961   4.004  14.654  2.1952 -0.4250  1.0065
19871TIP3    H281029   2.990   4.146  14.699 -3.0403  1.1568  0.0540
19872TIP3   OH281030   3.623   4.821  15.527 -0.0885 -0.1335  0.3556
19872TIP3    H181031   3.681   4.813  15.452  1.3598 -0.2059  1.4413
19872TIP3    H281032   3.576   4.903  15.513  0.5812  0.1377 -0.3471
19873TIP3   OH281033   6.154   2.545  14.081 -0.4690 -0.0499  0.1443
19873TIP3    H181034   6.100   2.568  14.157  0.1209  3.2067 -0.2804
19873TIP3    H281035   6.155   2.624  14.027 -0.2101 -1.9867 -2.9186
19874TIP3   OH281036   0.142   3.191   2.195 -0.1591 -0.2527  0.0747
19874TIP3    H181037   0.105   3.213   2.281 -1.0676 -1.5874  0.0604
19874TIP3    H281038   0.158   3.276   2.154  1.5158  0.4504  2.0306
19875TIP3   OH281039   2.464   5.966   1.666 -0.0876  0.8376 -0.0628
19875TIP3    H181040   2.548   5.934   1.699 -0.9246  0.0739  1.4362
19875TIP3    H281041   2.420   5.888   1.633 -1.3379  0.6724  1.8152
19876TIP3   OH281042   0.346   6.307  11.317 -0.2211 -0.7243  0.4399
19876TIP3    H181043   0.251   6.309  11.307 -0.1224 -1.5222 -0.9478
19876TIP3    H281044   0.373   6.398  11.305 -0.5331 -0.9440 -2.9858
19877TIP3   OH281045   0.479   1.318   4.845 -0.6743  0.3343 -0.0147
19877TIP3    H181046   0.506   1.334   4.935 -0.6829  1.6312 -0.2254
19877TIP3    H281047   0.396   1.270   4.853 -1.8677  2.3728  0.7388
19878TIP3   OH281048   0.059   2.312  11.889  0.3640  0.1427 -0.0241
19878TIP3    H181049  -0.019   2.258  11.887  0.8721 -0.5668 -1.3762
19878TIP3    H281050   0.123   2.260  11.937  0.1887  0.4931  0.6029
19879TIP3   OH281051   6.326   1.154   0.115 -0.1360  0.3007  0.1553
19879TIP3    H181052   6.402   1.113   0.155  0.5262  0.3638 -1.0131
19879TIP3    H281053   6.341   1.248   0.126  0.3884  0.3388 -0.8419
19880TIP3   OH281054   1.967   6.562   5.040  0.1970 -0.4308 -0.2132
19880TIP3    H181055   2.016   6.547   4.959  1.1969  0.6675  0.1656
19880TIP3    H281056   1.893   6.501   5.035  1.4348 -1.9182 -0.9414
19881TIP3   OH281057   1.092   4.589   3.707  0.1940 -0.0853  0.1906
19881TIP3    H181058   1.186   4.598   3.723 -0.0671  0.2123  1.7294
19881TIP3    H281059   1.067   4.511   3.756 -0.6082  0.6419  0.9548
19882TIP3   OH281060   4.325   5.635   0.856 -0.3567  0.1589  0.2078
19882TIP3    H181061   4.281   5.670   0.779  3.1005  2.2143 -1.0723
19882TIP3    H281062   4.410   5.606   0.823  0.1923 -1.4988  2.8303
19883TIP3   OH281063   5.552   3.192   5.503  0.0269  0.2654 -0.0858
19883TIP3    H181064   5.631   3.182   5.556 -0.4038  2.5370  1.1396
19883TIP3    H281065   5.581   3.238   5.424  0.1260 -0.0866 -0.2565
19884TIP3   OH281066   1.320   6.442  13.315  0.0671  0.0968 -0.6040
19884TIP3    H181067   1.366   6.427  13.397 -0.1050  0.8692 -0.3581
19884TIP3    H281068   1.355   6.375  13.255  0.7067 -0.0218 -0.1110
19885TIP3   OH281069   5.664   4.382  13.662 -0.3193  0.1442 -0.5348
19885TIP3    H181070   5.628   4.468  13.682  0.6503  0.7459 -1.2704
19885TIP3    H281071   5.661   4.376  13.566  1.3238  0.1511 -0.6215
19886TIP3   OH281072   3.226   4.171  15.960 -0.0580  0.9089 -0.2136
19886TIP3    H181073   3.313   4.162  16.000  1.0624 -0.2540 -2.6643
19886TIP3    H281074   3.244   4.188  15.867 -2.4468  0.7796 -0.7643
19887TIP3   OH281075   0.424   2.274   2.953  0.6081  0.2112  0.0641
19887TIP3    H181076   0.368   2.326   2.895 -1.8225  0.4770  2.4275
19887TIP3    H281077   0.377   2.191   2.963  1.3125 -0.0842  1.0927
19888TIP3   OH281078   0.242   0.574   6.232 -0.1279 -0.5139 -0.0894
19888TIP3    H181079   0.270   0.515   6.162  0.8667 -1.9841  1.4573
19888TIP3    H281080   0.264   0.527   6.313  0.1546  1.7427  1.2258
19889TIP3   OH281081   3.262   1.850  15.045 -0.2125 -0.1777  0.5740
19889TIP3    H181082   3.288   1.918  14.983 -0.6245 -0.9996 -0.5211
19889TIP3    H281083   3.201   1.894  15.104 -0.3234  0.4505  0.0064
19890TIP3   OH281084   0.098   3.712  14.402 -0.0111  0.6504  0.2864
19890TIP3    H181085   0.191   3.698  14.387 -0.3987 -2.3349  0.0522
19890TIP3    H281086   0.086   3.700  14.496 -0.2690 -0.0461  0.1757
19891TIP3   OH281087   1.251   2.723  13.360  0.0238 -0.0922 -0.0537
19891TIP3    H181088   1.300   2.786  13.413 -0.8584  0.1068  0.5532
19891TIP3    H281089   1.312   2.696  13.291  0.2259  1.9135 -0.7216
19892TIP3   OH281090   6.353   3.605   4.200 -0.5657  0.5723  0.3557
19892TIP3    H181091   6.338   3.529   4.257  0.8136 -0.4626 -0.5779
19892TIP3    H281092   6.267   3.625   4.163 -1.0418 -0.2436  0.9825
19893TIP3   OH281093   6.350   6.235  11.945  0.4941  0.5921 -0.3735
19893TIP3    H181094   6.441   6.223  11.973  1.3709  0.9967 -2.8331
19893TIP3    H281095   6.336   6.168  11.878  0.9605  3.9250 -4.1861
19894TIP3   OH281096   0.763   3.544   0.592 -0.0110  0.6172  0.8198
19894TIP3    H181097   0.826   3.579   0.655  0.4251  0.8946  0.2336
19894TIP3    H281098   0.693   3.609   0.589  0.6095  1.2685  0.0285
19895TIP3   OH281099   4.684   1.502   0.169  0.0521  0.0983 -0.3027
19895TIP3    H181100   4.738   1.580   0.176  1.7847 -0.8937 -1.5564
19895TIP3    H281101   4.696   1.473   0.078 -0.3758 -1.7034  0.1680
19896TIP3   OH281102   6.403   6.509   1.817  0.2914  0.2846  0.0821
19896TIP3    H181103   6.446   6.585   1.776  1.1875 -0.8086 -1.0739
19896TIP3    H281104   6.433   6.511   1.908 -0.7303  2.0373  0.4287
19897TIP3   OH281105   4.606   1.561  12.003  0.5652 -0.5306 -0.4723
19897TIP3    H181106   4.570   1.475  12.024  0.0449 -0.2817 -0.3368
19897TIP3    H281107   4.648   1.548  11.917 -1.2911 -0.4352 -1.4372
19898TIP3   OH281108   5.327   4.067   5.812  0.6555 -0.6865 -1.0199
19898TIP3    H181109   5.340   4.035   5.723  2.1512 -0.3374 -0.9543
19898TIP3    H281110   5.397   4.027   5.863 -0.4207 -1.1891  0.0966
19899TIP3   OH281111   3.050   2.710   2.297 -0.6189  0.5519 -0.6940
19899TIP3    H181112   2.992   2.643   2.333 -0.5292  0.3005 -1.0102
19899TIP3    H281113   2.993   2.766   2.243 -0.5829  0.3495 -0.9442
19900TIP3   OH281114   4.950   2.589  16.485 -0.0095  0.2817 -0.1184
19900TIP3    H181115   5.027   2.594  16.430  1.4177 -1.6686  1.5250
19900TIP3    H281116   4.878   2.570  16.425  1.4107 -1.4083 -1.3749
19901TIP3   OH281117   5.488   0.987  15.974  0.4461 -0.4848 -0.2865
19901TIP3    H181118   5.555   0.937  15.928 -1.0438 -1.4714 -1.5039
19901TIP3    H281119   5.466   1.058  15.914  0.0308 -0.5074 -0.1689
19902TIP3   OH281120   3.159   4.699  17.356 -0.4099 -0.1236 -0.2949
19902TIP3    H181121   3.158   4.647  17.437 -0.2797  0.1592 -0.1094
19902TIP3    H281122   3.107   4.776  17.377  0.4742  0.4505 -0.1408
19903TIP3   OH281123   1.981   3.924   5.050  0.5378  0.2090 -0.0060
19903TIP3    H181124   2.057   3.878   5.086  0.1352 -0.3060  0.2040
19903TIP3    H281125   2.007   4.016   5.047  0.9234  0.1289  0.7144
19904TIP3   OH281126   4.787   1.140   0.940 -0.1524  0.0434  0.0385
19904TIP3    H181127   4.825   1.053   0.956 -0.8840 -1.0825 -3.5971
19904TIP3    H281128   4.862   1.193   0.912  0.0399  0.2424  0.8747
19905TIP3   OH281129   1.293   3.593  12.875 -0.2798 -0.2818 -0.3788
19905TIP3    H181130   1.355   3.537  12.829 -1.1113 -1.5841  0.0196
19905TIP3    H281131   1.218   3.600  12.816 -1.9074 -3.0171  1.1297
19906TIP3   OH281132   2.224   5.666  11.477  0.5544  0.7152 -0.1143
19906TIP3    H181133   2.202   5.754  11.507  2.1973  0.9182  0.6213
19906TIP3    H281134   2.276   5.679  11.398 -0.9025  0.2907 -1.2000
19907TIP3   OH281135   2.165   5.805  15.928  0.1284 -0.4774  0.6882
19907TIP3    H181136   2.074   5.832  15.943 -0.3220 -1.5761  0.0229
19907TIP3    H281137   2.171   5.717  15.965  0.6893 -0.7413 -0.0073
19908TIP3   OH281138   0.498   5.646   3.120 -0.0657 -0.0214 -0.4840
19908TIP3    H181139   0.566   5.712   3.130  1.0987 -1.4015  1.4779
19908TIP3    H281140   0.517   5.604   3.037  1.4320 -0.3019 -0.0221
19909TIP3   OH281141   4.145   4.477  16.484 -0.5193 -0.1302 -1.1065
19909TIP3    H181142   4.222   4.528  16.463 -0.2050 -0.1920 -0.1472
19909TIP3    H281143   4.170   4.425  16.560 -1.6943  0.3144 -0.3849
19910TIP3   OH281144   2.996   0.789   6.137 -0.5213  0.1844  0.1358
19910TIP3    H181145   2.960   0.702   6.154 -0.4727  0.4340  1.6381
19910TIP3    H281146   2.941   0.848   6.189 -2.0990  1.4166 -2.6678
19911TIP3   OH281147   5.125   0.236   7.166 -0.5906 -0.4948 -0.4905
19911TIP3    H181148   5.136   0.155   7.116  1.6325 -1.6010  1.6094
19911TIP3    H281149   5.085   0.209   7.248  0.4453  0.4747  0.3584
19912TIP3   OH281150   2.074   0.261  16.277  0.0045  0.0816  0.4770
19912TIP3    H181151   2.077   0.212  16.194  2.7584  4.1656 -2.2140
19912TIP3    H281152   2.006   0.327  16.263  0.3235  0.6561  1.5682
19913TIP3   OH281153   2.515   5.050  12.678 -0.3195 -0.5587  0.2946
19913TIP3    H181154   2.543   4.974  12.729 -0.8530 -1.0526 -0.1388
19913TIP3    H281155   2.585   5.062  12.614 -0.9340 -1.6117 -0.5995
19914TIP3   OH281156   5.675   4.182  16.463 -0.2672 -0.0927 -0.5239
19914TIP3    H181157   5.677   4.229  16.546 -1.8997  1.5735 -1.3412
19914TIP3    H281158   5.643   4.095  16.486  1.1726 -0.3069  0.8165
19915TIP3   OH281159   0.109   3.011  14.104 -0.2421 -0.1082 -0.2576
19915TIP3    H181160   0.104   2.967  14.019  2.4226 -0.1624 -0.4831
19915TIP3    H281161   0.040   2.970  14.157 -1.4430 -0.6059 -2.1299
19916TIP3   OH281162   6.455   3.904  12.475  0.4959  0.3349 -0.9647
19916TIP3    H181163   6.456   3.866  12.387 -0.4738  0.5843 -1.0993
19916TIP3    H281164   6.452   3.998  12.460 -1.5151  0.3605 -0.7319
19917TIP3   OH281165   6.424   5.979   1.384  0.7577 -0.1141 -0.0712
19917TIP3    H181166   6.341   5.967   1.430  0.1997 -1.8836 -1.4057
19917TIP3    H281167   6.485   5.922   1.430  0.4399 -1.1474 -0.8975
19918TIP3   OH281168   1.841   1.367  16.775  0.3621  0.2989 -0.3726
19918TIP3    H181169   1.775   1.320  16.826  0.1182  1.0204 -0.0138
19918TIP3    H281170   1.789   1.422  16.715  0.6428 -0.1389 -1.0222
19919TIP3   OH281171   0.528   6.742   2.939  0.4343  0.2612  0.2158
19919TIP3    H181172   0.453   6.687   2.918 -0.8287  2.0463 -0.1647
19919TIP3    H281173   0.491   6.818   2.984  1.9828  1.2439 -0.0662
19920TIP3   OH281174   6.483   3.942  16.485  0.1606  0.3844  0.0884
19920TIP3    H181175   6.438   3.880  16.427 -0.5649  1.2821 -0.3296
19920TIP3    H281176   6.449   3.921  16.572  1.3310 -1.0417  0.2434
19921TIP3   OH281177   0.716   1.324   6.108 -0.0025 -0.7490  0.1987
19921TIP3    H181178   0.666   1.334   6.189 -1.2222 -0.8764 -0.5225
19921TIP3    H281179   0.738   1.414   6.082  1.4742 -0.7564  1.3001
19922TIP3   OH281180   4.455   4.996   2.890  0.0736 -0.0477 -0.0406
19922TIP3    H181181   4.394   4.950   2.946  0.1003 -0.0293  0.0040
19922TIP3    H281182   4.532   4.939   2.885  0.9954  0.9335  1.7631
19923TIP3   OH281183   4.598   0.143   2.034 -0.1018 -0.0146 -0.1536
19923TIP3    H181184   4.660   0.214   2.047 -0.2544  0.1590 -0.3572
19923TIP3    H281185   4.638   0.087   1.968  0.3645 -0.5293  0.5586
19924TIP3   OH281186   6.736   5.202   2.093 -0.5249  0.0061  0.0074
19924TIP3    H181187   6.686   5.148   2.154  0.1965  0.4411  1.0097
19924TIP3    H281188   6.744   5.287   2.136  1.2656 -0.1085  0.0126
19925TIP3   OH281189   5.430   1.361   1.454  0.0012  0.1161 -0.3502
19925TIP3    H181190   5.434   1.265   1.457 -0.0105  0.1144  2.5433
19925TIP3    H281191   5.341   1.382   1.483  0.0885  1.0138 -0.7079
19926TIP3   OH281192   5.131   2.115   0.572 -0.0102  0.6697  0.1241
19926TIP3    H181193   5.216   2.077   0.548 -0.6311 -1.3308  0.8648
19926TIP3    H281194   5.077   2.106   0.494  0.4507  2.0142 -0.3723
19927TIP3   OH281195   2.425   2.786  12.323  0.6570  0.1449  0.1378
19927TIP3    H181196   2.504   2.770  12.374  1.5101 -1.8885 -1.6880
19927TIP3    H281197   2.453   2.777  12.232 -1.5511  0.0939 -0.5876
19928TIP3   OH281198   1.673   1.587   2.893 -0.1807  0.8598 -0.0148
19928TIP3    H181199   1.681   1.643   2.816  0.9506 -0.5926 -0.9963
19928TIP3    H281200   1.753   1.604   2.943 -0.6916  1.4440  0.6311
19929TIP3   OH281201   0.242   6.240   0.176  0.0776  0.2591 -0.1097
19929TIP3    H181202   0.181   6.198   0.115 -0.1500  0.8157 -0.2774
19929TIP3    H281203   0.221   6.334   0.170 -0.6459  0.2467  1.5725
19930TIP3   OH281204   2.766   6.376  13.223 -0.1053 -0.5207 -0.2765
19930TIP3    H181205   2.858   6.354  13.233  0.7272  0.9984 -3.3226
19930TIP3    H281206   2.726   6.295  13.190  0.4509 -0.7568 -0.3894
19931TIP3   OH281207   5.131   1.128   2.167 -0.8000  0.2905 -0.0316
19931TIP3    H181208   5.170   1.109   2.082 -1.4845  0.0985 -0.3153
19931TIP3    H281209   5.205   1.131   2.227 -0.5274 -2.8831 -0.0360
19932TIP3   OH281210   4.388   1.489   1.103 -0.8403 -0.7917  0.1966
19932TIP3    H181211   4.444   1.414   1.087  0.2230  0.0261 -0.0591
19932TIP3    H281212   4.313   1.454   1.151  0.2292 -1.7990  1.1905
19933TIP3   OH281213   2.477   2.788   3.551  0.3360 -0.4608  0.5056
19933TIP3    H181214   2.433   2.836   3.621  0.4356 -0.2096  0.3982
19933TIP3    H281215   2.542   2.850   3.516  0.5689 -0.7232  0.4645
19934TIP3   OH281216   4.763   1.168  14.447 -0.3885 -0.3427 -0.6910
19934TIP3    H181217   4.766   1.125  14.533 -2.2529  0.0624 -0.3996
19934TIP3    H281218   4.765   1.261  14.467 -1.0226 -0.2466 -1.0869
19935TIP3   OH281219   4.305   2.539  17.148  0.5572 -0.3222 -0.0938
19935TIP3    H181220   4.396   2.539  17.180  1.3456  1.1685 -2.1500
19935TIP3    H281221   4.299   2.463  17.091  1.6516  1.4351 -2.7144
19936TIP3   OH281222   6.244   0.452   5.800 -0.1117  0.3663  0.3936
19936TIP3    H181223   6.239   0.433   5.706  1.5384 -0.1453  0.3706
19936TIP3    H281224   6.277   0.542   5.804  1.1113 -0.0656  0.4513
19937TIP3   OH281225   6.379   5.108   4.322 -0.2633 -0.5031 -0.3353
19937TIP3    H181226   6.326   5.139   4.395  0.7004  0.9901 -0.2304
19937TIP3    H281227   6.380   5.181   4.260  1.3363 -0.6207 -0.4934
19938TIP3   OH281228   1.116   1.132  13.539 -0.2649  0.2574  0.2007
19938TIP3    H181229   1.057   1.199  13.573  1.1411  2.4736 -1.3956
19938TIP3    H281230   1.072   1.099  13.460 -1.2167 -1.1853  1.2942
19939TIP3   OH281231   5.763   2.395  16.402 -0.0900  0.3543 -0.4658
19939TIP3    H181232   5.835   2.426  16.347  1.7241 -1.2913  0.8439
19939TIP3    H281233   5.756   2.302  16.382 -0.5008  0.0814  0.8865
19940TIP3   OH281234   2.166   2.750  11.910 -0.3749 -0.2189 -0.4755
19940TIP3    H181235   2.094   2.731  11.971 -1.4956  0.4060 -1.5710
19940TIP3    H281236   2.172   2.672  11.855 -0.9630  0.1668 -1.0957
19941TIP3   OH281237   1.236   5.683  15.775  0.0664 -0.3561  0.1526
19941TIP3    H181238   1.239   5.764  15.825 -0.9548 -0.9339  1.1970
19941TIP3    H281239   1.274   5.617  15.833 -1.6078 -1.1330  0.4152
19942TIP3   OH281240   2.818   5.996  12.516  0.2254 -0.4263  0.6599
19942TIP3    H181241   2.876   5.923  12.539 -1.2655 -2.5479 -1.8251
19942TIP3    H281242   2.743   5.986  12.574 -0.4987 -1.6407 -0.4492
19943TIP3   OH281243   6.690   5.513  12.552 -0.0492  0.3119 -0.3823
19943TIP3    H181244   6.776   5.477  12.530  0.7369  1.2350  1.0737
19943TIP3    H281245   6.663   5.464  12.630 -0.1518  1.0739  0.0633
19944TIP3   OH281246   6.541   1.630   5.622  0.1845  0.4144 -0.0861
19944TIP3    H181247   6.454   1.593   5.637  0.0890 -0.4134 -2.2450
19944TIP3    H281248   6.571   1.658   5.709 -2.2450  0.8121  0.6941
19945TIP3   OH281249   6.081   2.041   1.385 -0.5255 -0.5987 -0.3376
19945TIP3    H181250   6.079   1.990   1.466 -0.6964 -1.5915 -0.9432
19945TIP3    H281251   6.001   2.093   1.388 -0.7483 -0.9485 -0.0696
19946TIP3   OH281252   0.575   2.276  10.787  0.6165 -0.6209  0.1115
19946TIP3    H181253   0.658   2.295  10.831  0.3453  0.5548  0.1608
19946TIP3    H281254   0.549   2.359  10.747 -0.8016 -0.8123  0.5624
19947TIP3   OH281255   2.985   4.922  17.355  0.6685  0.0093  0.6377
19947TIP3    H181256   3.034   4.998  17.325  0.6546  0.7675  2.3891
19947TIP3    H281257   2.931   4.955  17.427 -0.6069 -1.3123  0.3378
19948TIP3   OH281258   4.781   2.310  13.702  0.0784 -0.8207 -0.2233
19948TIP3    H181259   4.755   2.252  13.631 -0.5422 -0.0282 -0.6556
19948TIP3    H281260   4.858   2.356  13.669  0.3453 -1.1132 -0.0210
19949TIP3   OH281261   0.709   3.675  15.605 -0.6666  0.2160 -0.0538
19949TIP3    H181262   0.653   3.670  15.683  0.8379  3.4059  1.4311
19949TIP3    H281263   0.688   3.760  15.566  0.4385 -0.2065 -1.6727
19950TIP3   OH281264   2.888   0.124   0.184  0.2221 -0.3906 -0.2031
19950TIP3    H181265   2.865   0.216   0.183  0.6556 -0.2807 -1.0374
19950TIP3    H281266   2.833   0.086   0.253  0.7335  0.6515  0.8249
19951TIP3   OH281267   3.136   0.082   2.972 -0.1608 -0.3787  0.1709
19951TIP3    H181268   3.135  -0.012   2.991 -0.4792 -0.4464 -0.1723
19951TIP3    H281269   3.092   0.090   2.888 -0.5957  0.1384  0.4421
19952TIP3   OH281270   5.209   5.507  16.997  0.4618  0.6051 -0.6308
19952TIP3    H181271   5.239   5.593  17.027  1.9075  0.2992 -1.1280
19952TIP3    H281272   5.114   5.517  16.987 -0.0320  1.0498  2.9782
19953TIP3   OH281273   3.175   6.724   6.190 -0.5165  0.1863 -0.0355
19953TIP3    H181274   3.158   6.812   6.157 -0.2072  0.0441 -0.5920
19953TIP3    H281275   3.135   6.723   6.277 -0.3575  0.9344  0.0569
19954TIP3   OH281276   3.401   6.334  11.648  0.4393  0.0067 -0.1089
19954TIP3    H181277   3.347   6.352  11.725  0.7765 -1.1393  0.4328
19954TIP3    H281278   3.395   6.239  11.637  1.6232 -0.0338 -0.5614
19955TIP3   OH281279   0.356   2.702   2.189 -0.2812  0.2473 -0.7482
19955TIP3    H181280   0.391   2.648   2.261  4.0473  1.7344 -1.3980
19955TIP3    H281281   0.382   2.791   2.212 -0.1112  0.9613 -3.4171
19956TIP3   OH281282   0.891   3.233   1.451 -0.3059 -0.3040 -0.4379
19956TIP3    H181283   0.821   3.190   1.500 -0.3739 -0.7073 -0.8728
19956TIP3    H281284   0.847   3.305   1.405 -0.4163 -0.4739 -0.6033
19957TIP3   OH281285   1.439   2.310  17.140 -0.0563 -0.0617 -0.3669
19957TIP3    H181286   1.345   2.296  17.131 -0.0332 -0.8927  0.5631
19957TIP3    H281287   1.464   2.262  17.219  0.7212  2.1091  0.8187
19958TIP3   OH281288   3.631   5.896   2.753  0.2160  1.0260 -0.5108
19958TIP3    H181289   3.680   5.941   2.822  0.5924  0.1791 -0.2020
19958TIP3    H281290   3.611   5.810   2.790  0.4246  0.5539 -1.4564
19959TIP3   OH281291   1.061   5.625   4.953  0.2493  0.1183  0.1525
19959TIP3    H181292   1.043   5.707   4.908  0.5325 -0.2527 -0.6375
19959TIP3    H281293   1.065   5.559   4.884 -1.3813 -0.8150  0.8808
19960TIP3   OH281294   6.656   2.664   4.575  0.2443  0.1750 -0.0070
19960TIP3    H181295   6.720   2.600   4.542  0.7696  0.3163  0.7163
19960TIP3    H281296   6.584   2.610   4.609  0.2270 -0.0019 -0.3234
19961TIP3   OH281297   5.072   2.001  11.402 -0.1146 -0.5758  0.0614
19961TIP3    H181298   5.125   1.923  11.414  0.2547 -0.1753  1.1428
19961TIP3    H281299   5.098   2.034  11.316  1.2136 -0.5343  0.4545
19962TIP3   OH281300   1.902   6.231   2.610  0.1141 -0.1123  0.2474
19962TIP3    H181301   1.954   6.155   2.585 -0.0972 -0.4391  0.7824
19962TIP3    H281302   1.889   6.221   2.704 -0.7670  0.0650  0.1469
19963TIP3   OH281303   0.551   0.366   0.560 -0.5833 -0.2376  0.6209
19963TIP3    H181304   0.459   0.343   0.548  0.0551 -2.0608 -1.5539
19963TIP3    H281305   0.593   0.339   0.478  1.7771  1.2343  1.2441
19964TIP3   OH281306   2.662   2.953   5.562  0.2662 -0.0385 -0.5615
19964TIP3    H181307   2.689   2.883   5.502 -1.7828 -0.0834 -1.4888
19964TIP3    H281308   2.744   2.979   5.605  1.2931 -2.1293 -1.0930
19965TIP3   OH281309   5.932   4.804  15.614  0.0209  0.0568  0.1002
19965TIP3    H181310   5.931   4.821  15.709  0.7441 -1.1119  0.3416
19965TIP3    H281311   6.024   4.813  15.589  0.4200 -2.8361  0.1850
19966TIP3   OH281312   4.694   3.016  14.294 -0.5552  0.7471 -0.2552
19966TIP3    H181313   4.645   3.097  14.311 -0.1396  0.8070  0.7315
19966TIP3    H281314   4.648   2.949  14.343  0.0660  0.7185  0.3112
19967TIP3   OH281315   1.080   5.907   6.336 -0.3831  0.3101  0.1302
19967TIP3    H181316   1.077   5.845   6.263 -1.0851  0.2321  0.2193
19967TIP3    H281317   1.103   5.854   6.412 -0.9528  0.1567  0.2010
19968TIP3   OH281318   1.086   6.402  15.958  0.1060  0.4759  0.3822
19968TIP3    H181319   1.053   6.380  16.045  0.6967  2.0617  1.0475
19968TIP3    H281320   1.176   6.430  15.973  0.0340  1.3212 -0.6598
19969TIP3   OH281321   5.381   4.829   2.261 -0.0792  0.0755  0.3042
19969TIP3    H181322   5.300   4.822   2.312 -0.2954 -2.5832 -0.2924
19969TIP3    H281323   5.450   4.808   2.324 -0.1854 -1.2529  0.0004
19970TIP3   OH281324   6.374   1.792   4.403 -0.4842 -0.2486  0.5008
19970TIP3    H181325   6.454   1.842   4.386  0.5861 -1.3065  2.1252
19970TIP3    H281326   6.321   1.850   4.458 -1.2671  0.7690 -1.2099
19971TIP3   OH281327   1.011   1.334  11.188  0.4152  0.2003  0.0194
19971TIP3    H181328   1.091   1.383  11.172  1.1485 -0.3326  1.7951
19971TIP3    H281329   0.948   1.401  11.217  1.2700  0.2346  1.9734
19972TIP3   OH281330   1.875   4.908   4.317 -0.4879 -0.3861  0.0621
19972TIP3    H181331   1.887   4.816   4.339 -0.1657 -0.3190  0.1778
19972TIP3    H281332   1.959   4.934   4.277  0.2001  0.3828  1.8805
19973TIP3   OH281333   4.728   2.577   4.727 -0.0388 -0.3456 -0.5826
19973TIP3    H181334   4.774   2.517   4.786  1.2440 -0.0882 -1.2840
19973TIP3    H281335   4.667   2.625   4.784  0.0610 -1.1832  0.2477
19974TIP3   OH281336   2.773   2.860  15.700  0.5769  0.0271 -0.0988
19974TIP3    H181337   2.737   2.933  15.650 -1.6996 -1.0665 -0.1662
19974TIP3    H281338   2.865   2.857  15.674  0.6388  2.5545 -0.4187
19975TIP3   OH281339   3.795   2.798   1.316 -0.0450  0.0533 -0.7368
19975TIP3    H181340   3.775   2.832   1.403 -0.6915 -1.0431 -0.4390
19975TIP3    H281341   3.820   2.707   1.330 -1.5637 -0.5804 -1.8058
19976TIP3   OH281342   5.985   1.022  15.424 -0.3250  0.0253  0.9288
19976TIP3    H181343   5.999   1.116  15.416  0.4171 -0.1344  0.1890
19976TIP3    H281344   6.029   0.997  15.505 -0.0785  0.2332  0.8569
19977TIP3   OH281345   5.871   4.416  16.008  0.0437 -0.3239  0.1186
19977TIP3    H181346   5.843   4.371  16.088 -0.2024 -0.8045 -0.2384
19977TIP3    H281347   5.935   4.481  16.039 -0.0732 -0.4816  0.7097
19978TIP3   OH281348   2.110   1.762  16.025 -0.3886  0.3055 -0.5810
19978TIP3    H181349   2.201   1.753  15.996  0.0423 -0.6789  0.9900
19978TIP3    H281350   2.063   1.790  15.946  1.1297  0.0789 -1.6153
19979TIP3   OH281351   3.102   4.475   0.731  0.3796 -0.4179 -0.1397
19979TIP3    H181352   3.070   4.559   0.699  2.7747  0.6531  0.0356
19979TIP3    H281353   3.089   4.415   0.657  0.6904  0.6771 -1.1199
19980TIP3   OH281354   5.093   6.379  14.756 -0.7416  0.0709  0.3626
19980TIP3    H181355   5.138   6.299  14.729  0.9661  1.5557 -1.4017
19980TIP3    H281356   5.133   6.402  14.840  0.4196  0.2831 -0.2308
19981TIP3   OH281357   5.288   0.321   2.485  0.0274  0.2077  0.0863
19981TIP3    H181358   5.271   0.264   2.410  0.9934 -0.6302  0.4787
19981TIP3    H281359   5.362   0.376   2.459 -1.5819  2.1210 -0.7038
19982LIG     O181360   3.195   2.685   2.904 -0.1927 -0.2350  0.5523
19982LIG     O281361   2.937   2.848   3.248  0.6071 -0.1175  0.8816
19982LIG     N181362   3.048   3.007   3.116 -0.5574 -0.4240  0.1900
19982LIG     N281363   3.325   2.968   2.893  0.4738 -0.2490  0.3801
19982LIG     N381364   3.082   2.770   3.085  0.6240 -0.1384 -0.3932
19982LIG     N481365   3.223   3.136   3.014 -0.8286 -0.2262 -0.3207
19982LIG     C181366   3.216   2.911   2.957  0.0950 -0.8171  0.7903
19982LIG     C281367   3.161   3.020   3.029  0.1395 -0.0567 -0.2526
19982LIG     C381368   3.163   2.787   2.973 -0.8415  0.9006 -0.1422
19982LIG     C481369   3.013   2.874   3.155  0.7275 -0.4580  0.0380
19982LIG     C581370   3.316   3.108   2.925 -0.1589  0.8025  1.0586
19982LIG     C681371   2.999   3.110   3.206 -0.1028 -0.2598 -0.8008
19982LIG     C781372   3.418   2.901   2.810 -0.1616  0.3127 -0.2123
19982LIG     C881373   3.036   2.633   3.120 -0.2172 -0.6506  0.6605
19982LIG     H181374   3.388   3.179   2.884  0.8309 -2.4396 -3.6791
19982LIG     H281375   2.888   3.120   3.200 -0.6272 -1.8481  3.0642
19982LIG     H381376   3.044   3.211   3.198 -1.1441  0.4738  1.6294
19982LIG     H481377   3.025   3.076   3.309  0.1954  0.9042 -0.4759
19982LIG     H581378   3.390   2.889   2.703 -0.3337 -3.2442  0.1252
19982LIG     H681379   3.460   2.810   2.859  0.0869  1.3867  1.6690
19982LIG     H781380   3.502   2.974   2.799 -0.9342  0.8687 -3.4366
19982LIG     H881381   3.113   2.562   3.083  1.6575  0.7411  1.7012
19982LIG     H981382   2.937   2.601   3.084  0.1456 -0.9772 -0.0604
19982LIG    H1081383   3.034   2.612   3.230  2.0345 -1.1881  0.6471
   6.75769   6.75769  17.39573
